 Gaussian 16, Revision A.03,
 Gaussian 16:  ES64L-G16RevA.03 25-Dec-2016

 -----------------------------------
 #p cam-b3lyp/Def2SVP td=(nstates=5)
 -----------------------------------

 --------------------------------
 TDDFT excited states in gaussian
 --------------------------------
 Symbolic Z-matrix:
 Charge =  0 Multiplicity = 1

                         Standard orientation:
 ---------------------------------------------------------------------
 Center     Atomic      Atomic             Coordinates (Angstroms)
 Number     Number       Type             X           Y           Z
 ---------------------------------------------------------------------
      1         12           0        6.202870    1.116628    0.603347
      2          6           0        6.727148   -2.313936   -0.273336
      3          6           0        7.230643    1.924429   -2.548511
      4          6           0        6.183531    4.160061    1.494282
      5          6           0        6.318657    0.127437    3.943070
      6          7           0        6.867100   -0.126267   -1.103890
      7          6           0        6.965658   -1.432508   -1.330143
      8          6           0        7.272925   -1.780467   -2.817384
      9          6           0        7.954346   -0.409072   -3.261161
     10          6           0        7.285569    0.526509   -2.269521
     11          6           0        9.461523   -0.374625   -3.029353
     12          6           0        5.972928   -2.067298   -3.641682
     13          6           0        6.196227   -2.728108   -5.005068
     14          1           0        5.220899   -3.697029   -5.481802
     15          7           0        6.168629    2.768456   -0.479770
     16          6           0        6.613506    2.912536   -1.751230
     17          6           0        6.368939    4.325863   -2.110915
     18          6           0        5.920651    5.037213   -0.881641
     19          6           0        6.100461    4.009759    0.112032
     20          6           0        6.515948    4.857808   -3.503457
     21          6           0        5.420999    6.426320   -0.639032
     22          8           0        5.306075    6.911925    0.538063
     23          6           0        5.149939    7.245110   -1.834504
     24          7           0        6.463547    2.057854    2.448279
     25          6           0        6.348641    3.385031    2.568206
     26          6           0        6.292888    3.800331    4.008469
     27          6           0        6.148787    2.452213    4.852012
     28          6           0        6.233800    1.434927    3.687463
     29          6           0        7.499817    4.597350    4.522370
     30          6           0        4.948852    2.357990    5.827561
     31          6           0        3.654825    2.310356    5.046329
     32          7           0        6.295468   -0.767610    1.676714
     33          6           0        6.357756   -0.944044    3.066558
     34          6           0        6.516484   -2.389277    3.311863
     35          6           0        6.552386   -2.955120    2.038923
     36          6           0        6.450583   -1.925745    1.059987
     37          6           0        6.665231   -3.007085    4.584900
     38          6           0        6.677827   -4.187446    1.277678
     39          8           0        6.700724   -5.385275    1.564338
     40          6           0        6.918478   -3.810071   -0.250557
     41          6           0        5.985528   -4.650951   -1.078709
     42          8           0        4.750103   -4.485898   -1.016688
     43          8           0        6.695588   -5.345763   -1.980703
     44          6           0        5.827042   -6.178821   -2.854659
     45          1           0        7.756855    2.308924   -3.424413
     46          1           0        6.069290    5.186620    1.848632
     47          1           0        6.277042   -0.263879    4.961203
     48          1           0        7.971900   -2.605466   -2.956076
     49          1           0        7.687617   -0.133533   -4.281286
     50          1           0        9.799797   -1.251227   -2.477031
     51          1           0        9.646864    0.532688   -2.454092
     52          1           0        9.995476   -0.246506   -3.971296
     53          1           0        5.535262   -1.122187   -3.963046
     54          1           0        5.272190   -2.667707   -3.060474
     55          1           0        7.206697   -3.128187   -5.093364
     56          1           0        6.142865   -1.955340   -5.771998
     57          1           0        7.016868    4.142526   -4.154607
     58          1           0        7.201447    5.703386   -3.450576
     59          1           0        5.562995    5.182688   -3.921388
     60          1           0        6.063094    7.335941   -2.423102
     61          1           0        4.715913    8.175385   -1.469731
     62          1           0        4.429769    6.722376   -2.464626
     63          1           0        5.428584    4.435167    4.199223
     64          1           0        7.019155    2.269311    5.482631
     65          1           0        7.236481    5.568080    4.943134
     66          1           0        8.206581    4.706213    3.700224
     67          1           0        8.107719    4.079171    5.263560
     68          1           0        4.907116    3.241447    6.463729
     69          1           0        4.989740    1.483367    6.476879
     70          1           0        3.449898    3.362235    4.850402
     71          1           0        2.862994    1.863959    5.648778
     72          1           0        3.789679    1.819580    4.082255
     73          1           0        6.032045   -3.894103    4.569330
     74          1           0        6.378929   -2.330095    5.389460
     75          1           0        7.733537   -3.222874    4.581038
     76          1           0        7.964466   -4.026140   -0.465833
     77          1           0        6.181885   -7.206358   -2.774105
     78          1           0        5.842625   -5.713968   -3.840597
     79          1           0        4.790504   -6.293448   -2.535616
     80         12           0       -6.957448    0.108039   -0.283316
     81          6           0       -4.623847   -2.611564   -0.090566
     82          6           0       -4.575117    1.833500   -2.010117
     83          6           0       -8.811946    2.674678   -0.081746
     84          6           0       -8.668969   -1.354613    2.376959
     85          7           0       -4.904358   -0.427147   -0.908306
     86          6           0       -4.146767   -1.510962   -0.832543
     87          6           0       -2.836670   -1.439220   -1.662029
     88          6           0       -2.678435    0.157645   -1.724000
     89          6           0       -4.145606    0.554644   -1.574051
     90          6           0       -1.905662    0.731922   -0.548261
     91          6           0       -3.002107   -2.056102   -3.095244
     92          6           0       -1.690930   -2.300285   -3.845542
     93          1           0       -1.594074   -3.469201   -4.715442
     94          7           0       -6.945696    1.787216   -1.341034
     95          6           0       -5.897310    2.329406   -1.995406
     96          6           0       -6.399711    3.573067   -2.599599
     97          6           0       -7.786409    3.804795   -2.111664
     98          6           0       -7.896670    2.752554   -1.121343
     99          6           0       -5.613117    4.366146   -3.602457
    100          6           0       -8.834654    4.815226   -2.467234
    101          8           0       -9.883053    4.979309   -1.748375
    102          6           0       -8.552925    5.671071   -3.628981
    103          7           0       -8.391978    0.706124    1.097547
    104          6           0       -9.089827    1.841882    0.921521
    105          6           0      -10.248745    1.925078    1.886077
    106          6           0      -10.327914    0.489968    2.587347
    107          6           0       -9.091424   -0.174858    1.943528
    108          6           0      -10.145618    3.009971    2.957882
    109          6           0      -11.689188   -0.254583    2.514952
    110          6           0      -11.983407   -0.654510    1.087060
    111          7           0       -6.827154   -1.745636    0.818951
    112          6           0       -7.625812   -2.145588    1.912686
    113          6           0       -7.085266   -3.431469    2.399279
    114          6           0       -5.986839   -3.680960    1.562795
    115          6           0       -5.840100   -2.615178    0.634327
    116          6           0       -7.577406   -4.173938    3.509528
    117          6           0       -4.911684   -4.598384    1.260993
    118          8           0       -4.586299   -5.716313    1.658587
    119          6           0       -3.905050   -3.885082    0.258853
    120          6           0       -3.601019   -4.846815   -0.857004
    121          8           0       -4.493768   -5.200820   -1.647122
    122          8           0       -2.269156   -5.019203   -0.939513
    123          6           0       -1.917176   -5.956542   -2.039206
    124          1           0       -3.823418    2.542367   -2.358456
    125          1           0       -9.545329    3.483180   -0.037671
    126          1           0       -9.205805   -1.922728    3.139668
    127          1           0       -1.970885   -1.880331   -1.182837
    128          1           0       -2.293024    0.479259   -2.688046
    129          1           0       -1.691570   -0.018422    0.198251
    130          1           0       -2.534750    1.508957   -0.134110
    131          1           0       -1.000057    1.233516   -0.901253
    132          1           0       -3.460319   -1.308942   -3.755944
    133          1           0       -3.570401   -2.964998   -3.055560
    134          1           0       -0.819391   -2.241559   -3.182289
    135          1           0       -1.541435   -1.484873   -4.557414
    136          1           0       -4.565648    4.042329   -3.639064
    137          1           0       -5.566397    5.395384   -3.230511
    138          1           0       -6.074110    4.368727   -4.592485
    139          1           0       -7.627590    6.216562   -3.459736
    140          1           0       -9.455738    6.266231   -3.779274
    141          1           0       -8.385748    5.031170   -4.502586
    142          1           0      -11.177119    2.110854    1.360054
    143          1           0      -10.125058    0.552107    3.666621
    144          1           0      -11.000506    3.712254    2.951732
    145          1           0       -9.214776    3.542777    2.815790
    146          1           0      -10.048466    2.643268    3.978319
    147          1           0      -12.500521    0.408575    2.824979
    148          1           0      -11.733910   -1.135349    3.146801
    149          1           0      -12.416478    0.255088    0.660254
    150          1           0      -12.691875   -1.479925    1.058657
    151          1           0      -11.058021   -0.867425    0.539344
    152          1           0       -7.599089   -5.211863    3.204970
    153          1           0       -8.562791   -3.827524    3.814119
    154          1           0       -6.811984   -3.941053    4.254613
    155          1           0       -3.011669   -3.619795    0.825480
    156          1           0       -1.316914   -6.757412   -1.596516
    157          1           0       -1.434022   -5.336210   -2.817337
    158          1           0       -2.722715   -6.522048   -2.492832
 ---------------------------------------------------------------------

 SCF Done:  E(RCAM-B3LYP) =  -4069.81163424     A.U. after   19 cycles

 Excitation energies and oscillator strengths:

 Excited State   1:      Singlet-A      1.6641 eV  745.05 nm  f=0.0050  <S**2>=0.000
     309 -> 315       -0.11298
     310 -> 316        0.12819
     311 -> 313       -0.45191
     312 -> 314        0.51706
 This state for optimization and/or second-order correction.
 Total Energy, E(TD-HF/TD-DFT) =  -4069.75047957
 Copying the excited state density for this state as the 1-particle RhoCI density.

 Excited State   2:      Singlet-A      1.6898 eV  733.74 nm  f=0.7333  <S**2>=0.000
     309 -> 315        0.13416
     310 -> 316        0.11634
     311 -> 313        0.51575
     312 -> 314        0.45087

 Excited State   3:      Singlet-A      2.1846 eV  567.54 nm  f=0.0799  <S**2>=0.000
     309 -> 313        0.13100
     310 -> 314        0.62945
     312 -> 316       -0.26619

 Excited State   4:      Singlet-A      2.1931 eV  565.35 nm  f=0.1177  <S**2>=0.000
     309 -> 313        0.62718
     310 -> 314       -0.12988
     311 -> 315       -0.27292

 Excited State   5:      Singlet-A      2.5874 eV  479.18 nm  f=0.0000  <S**2>=0.000
     312 -> 313        0.70687

 The electronic state is 1-A.
 Alpha  occ. eigenvalues --  -46.87994 -46.87512 -19.26457 -19.26002 -19.19202
 Alpha  occ. eigenvalues --  -19.19018 -19.18879 -19.18600 -19.18324 -19.17851
 Alpha  occ. eigenvalues --  -14.42644 -14.42341 -14.41636 -14.41213 -14.39601
 Alpha  occ. eigenvalues --  -14.39207 -14.38775 -14.38447 -10.39259 -10.38804
 Alpha  occ. eigenvalues --  -10.35653 -10.35280 -10.34545 -10.34022 -10.31851
 Alpha  occ. eigenvalues --  -10.31588 -10.31373 -10.31139 -10.31110 -10.30855
 Alpha  occ. eigenvalues --  -10.30752 -10.30691 -10.30394 -10.30249 -10.30204
 Alpha  occ. eigenvalues --  -10.30093 -10.30013 -10.29813 -10.29749 -10.29446
 Alpha  occ. eigenvalues --  -10.29302 -10.29256 -10.28951 -10.28764 -10.28556
 Alpha  occ. eigenvalues --  -10.28493 -10.28415 -10.28306 -10.28246 -10.27971
 Alpha  occ. eigenvalues --  -10.27946 -10.27916 -10.27851 -10.27775 -10.27692
 Alpha  occ. eigenvalues --  -10.27658 -10.27607 -10.27592 -10.27521 -10.27406
 Alpha  occ. eigenvalues --  -10.27370 -10.27328 -10.27326 -10.27315 -10.27261
 Alpha  occ. eigenvalues --  -10.26944 -10.26805 -10.26638 -10.26482 -10.26400
 Alpha  occ. eigenvalues --  -10.26331 -10.26329 -10.26197 -10.26039 -10.25960
 Alpha  occ. eigenvalues --  -10.25813 -10.25795 -10.25709 -10.25575 -10.25295
 Alpha  occ. eigenvalues --  -10.25008 -10.24971 -10.24848 -10.24716 -10.24636
 Alpha  occ. eigenvalues --  -10.24544  -3.16738  -3.16262  -1.91621  -1.91206
 Alpha  occ. eigenvalues --   -1.91145  -1.91048  -1.90733  -1.90570  -1.16807
 Alpha  occ. eigenvalues --   -1.16312  -1.08779  -1.08447  -1.07420  -1.06854
 Alpha  occ. eigenvalues --   -1.06821  -1.06657  -1.04774  -1.04334  -1.03948
 Alpha  occ. eigenvalues --   -1.03513  -1.03422  -1.02894  -1.02598  -1.01962
 Alpha  occ. eigenvalues --   -0.92153  -0.91807  -0.89691  -0.89384  -0.89357
 Alpha  occ. eigenvalues --   -0.88956  -0.88455  -0.88092  -0.88032  -0.87863
 Alpha  occ. eigenvalues --   -0.87643  -0.87525  -0.87474  -0.86998  -0.85178
 Alpha  occ. eigenvalues --   -0.84818  -0.84099  -0.83743  -0.83167  -0.82840
 Alpha  occ. eigenvalues --   -0.82818  -0.82476  -0.81762  -0.81364  -0.80782
 Alpha  occ. eigenvalues --   -0.80246  -0.78985  -0.78500  -0.77399  -0.77116
 Alpha  occ. eigenvalues --   -0.76985  -0.76699  -0.76102  -0.75633  -0.75063
 Alpha  occ. eigenvalues --   -0.74654  -0.72950  -0.72549  -0.71849  -0.71415
 Alpha  occ. eigenvalues --   -0.70069  -0.69638  -0.69065  -0.68650  -0.67825
 Alpha  occ. eigenvalues --   -0.67441  -0.67430  -0.67024  -0.65480  -0.65074
 Alpha  occ. eigenvalues --   -0.65034  -0.64803  -0.64604  -0.64454  -0.64441
 Alpha  occ. eigenvalues --   -0.64060  -0.62473  -0.62031  -0.60633  -0.60211
 Alpha  occ. eigenvalues --   -0.59995  -0.59612  -0.59166  -0.58829  -0.58682
 Alpha  occ. eigenvalues --   -0.58254  -0.57756  -0.57485  -0.57331  -0.57079
 Alpha  occ. eigenvalues --   -0.56488  -0.56160  -0.56050  -0.55707  -0.55639
 Alpha  occ. eigenvalues --   -0.55504  -0.55275  -0.55073  -0.54691  -0.54286
 Alpha  occ. eigenvalues --   -0.54092  -0.53720  -0.53485  -0.53413  -0.53097
 Alpha  occ. eigenvalues --   -0.53076  -0.52961  -0.52959  -0.52705  -0.52598
 Alpha  occ. eigenvalues --   -0.52528  -0.52279  -0.52060  -0.51816  -0.51731
 Alpha  occ. eigenvalues --   -0.51477  -0.51367  -0.51020  -0.50782  -0.50367
 Alpha  occ. eigenvalues --   -0.50202  -0.50112  -0.49833  -0.49739  -0.49707
 Alpha  occ. eigenvalues --   -0.49394  -0.49330  -0.49274  -0.49026  -0.48911
 Alpha  occ. eigenvalues --   -0.48764  -0.48647  -0.48615  -0.48362  -0.48243
 Alpha  occ. eigenvalues --   -0.48182  -0.47881  -0.47479  -0.47426  -0.46974
 Alpha  occ. eigenvalues --   -0.46970  -0.46752  -0.46554  -0.46538  -0.46372
 Alpha  occ. eigenvalues --   -0.46330  -0.46122  -0.45982  -0.45914  -0.45615
 Alpha  occ. eigenvalues --   -0.45367  -0.45071  -0.44749  -0.44696  -0.44327
 Alpha  occ. eigenvalues --   -0.44324  -0.44307  -0.44276  -0.44196  -0.43957
 Alpha  occ. eigenvalues --   -0.43930  -0.43768  -0.43666  -0.43571  -0.43331
 Alpha  occ. eigenvalues --   -0.43202  -0.43202  -0.42873  -0.42823  -0.42748
 Alpha  occ. eigenvalues --   -0.42629  -0.42426  -0.42183  -0.41879  -0.41810
 Alpha  occ. eigenvalues --   -0.41727  -0.41490  -0.41320  -0.41282  -0.41060
 Alpha  occ. eigenvalues --   -0.41028  -0.40824  -0.40740  -0.40581  -0.40537
 Alpha  occ. eigenvalues --   -0.40454  -0.40345  -0.40022  -0.39605  -0.39310
 Alpha  occ. eigenvalues --   -0.38642  -0.38214  -0.37956  -0.37496  -0.37466
 Alpha  occ. eigenvalues --   -0.37463  -0.37122  -0.37021  -0.36887  -0.36514
 Alpha  occ. eigenvalues --   -0.36370  -0.36027  -0.34472  -0.34097  -0.33954
 Alpha  occ. eigenvalues --   -0.33608  -0.33372  -0.33018  -0.31546  -0.31222
 Alpha  occ. eigenvalues --   -0.31157  -0.30815  -0.30182  -0.29748  -0.29643
 Alpha  occ. eigenvalues --   -0.29499  -0.29188  -0.29057  -0.24269  -0.23881
 Alpha  occ. eigenvalues --   -0.21313  -0.20969
 Alpha virt. eigenvalues --   -0.08961  -0.08643  -0.01940  -0.01539  -0.00254
 Alpha virt. eigenvalues --    0.00114   0.02031   0.02376   0.02836   0.03360
 Alpha virt. eigenvalues --    0.04523   0.04897   0.04920   0.05440   0.05969

 Mulliken charges:
               1
     1  Mg   0.837065
     2  C   -0.003389
     3  C   -0.094585
     4  C   -0.045917
     5  C   -0.063673
     6  N   -0.256786
     7  C   -0.052683
     8  C   -0.013807
     9  C   -0.086857
    10  C    0.045829
    11  C    0.104721
    12  C    0.053597
    13  C   -0.071724
    14  H    0.035693
    15  N   -0.433149
    16  C    0.167739
    17  C   -0.177646
    18  C   -0.004409
    19  C    0.148256
    20  C    0.110186
    21  C    0.011675
    22  O   -0.249414
    23  C    0.062845
    24  N   -0.341082
    25  C    0.041102
    26  C   -0.028208
    27  C   -0.024106
    28  C    0.074801
    29  C    0.076046
    30  C    0.035025
    31  C   -0.004531
    32  N   -0.310655
    33  C    0.080465
    34  C   -0.169038
    35  C    0.008820
    36  C    0.082863
    37  C    0.127122
    38  C    0.046552
    39  O   -0.187260
    40  C   -0.005459
    41  C    0.213270
    42  O   -0.257714
    43  O   -0.304553
    44  C    0.157668
    45  H   -0.017442
    46  H   -0.016666
    47  H   -0.040774
    48  H    0.001423
    49  H   -0.004262
    50  H    0.025763
    51  H    0.016657
    52  H    0.016932
    53  H    0.010069
    54  H    0.043385
    55  H    0.018642
    56  H    0.017861
    57  H    0.005935
    58  H    0.027227
    59  H    0.038388
    60  H    0.037819
    61  H    0.035722
    62  H    0.030107
    63  H    0.016489
    64  H    0.009952
    65  H    0.023448
    66  H    0.012630
    67  H    0.005136
    68  H    0.006801
    69  H    0.005362
    70  H    0.008567
    71  H    0.018763
    72  H    0.028120
    73  H    0.048632
    74  H    0.009549
    75  H    0.046397
    76  H    0.035584
    77  H    0.043744
    78  H    0.046176
    79  H    0.053153
    80  Mg   0.837531
    81  C   -0.016893
    82  C   -0.087861
    83  C   -0.045745
    84  C   -0.065270
    85  N   -0.254569
    86  C   -0.049695
    87  C   -0.015519
    88  C   -0.090505
    89  C    0.045800
    90  C    0.114609
    91  C    0.062631
    92  C   -0.078014
    93  H    0.033642
    94  N   -0.423450
    95  C    0.162750
    96  C   -0.174850
    97  C   -0.008129
    98  C    0.152019
    99  C    0.099567
   100  C    0.015354
   101  O   -0.253529
   102  C    0.061303
   103  N   -0.350084
   104  C    0.037397
   105  C   -0.019734
   106  C   -0.034809
   107  C    0.089048
   108  C    0.073774
   109  C    0.034822
   110  C   -0.007621
   111  N   -0.324182
   112  C    0.078657
   113  C   -0.163347
   114  C    0.002593
   115  C    0.096047
   116  C    0.131521
   117  C    0.042313
   118  O   -0.186804
   119  C    0.001233
   120  C    0.211036
   121  O   -0.252226
   122  O   -0.303724
   123  C    0.152822
   124  H   -0.020165
   125  H   -0.015976
   126  H   -0.040718
   127  H    0.002660
   128  H   -0.005182
   129  H    0.023934
   130  H    0.013901
   131  H    0.015751
   132  H    0.012810
   133  H    0.037588
   134  H    0.024687
   135  H    0.017695
   136  H    0.008201
   137  H    0.025759
   138  H    0.039128
   139  H    0.038033
   140  H    0.036000
   141  H    0.033612
   142  H    0.014119
   143  H    0.012240
   144  H    0.024805
   145  H    0.011658
   146  H    0.005435
   147  H    0.005976
   148  H    0.003553
   149  H    0.010771
   150  H    0.017711
   151  H    0.030284
   152  H    0.046071
   153  H    0.008157
   154  H    0.047095
   155  H    0.037212
   156  H    0.045751
   157  H    0.049732
   158  H    0.051819
 Sum of Mulliken charges =  -0.00000

 Dipole moment (field-independent basis, Debye):
    X=              4.6940    Y=              5.8065    Z=             -4.2630  Tot=              8.5978
 Quadrupole moment (field-independent basis, Debye-Ang):
   XX=           -501.3702   YY=           -566.2955   ZZ=           -455.7656
   XY=              7.2143   XZ=            -38.7813   YZ=              1.9408

 Normal termination of Gaussian 16 at Sat Sep 11 13:02:53 2021.
