 Gaussian 16, Revision A.03,
 Gaussian 16:  ES64L-G16RevA.03 25-Dec-2016

 -----------------------------------
 #p cam-b3lyp/Def2SVP td=(nstates=5)
 -----------------------------------

 --------------------------------
 TDDFT excited states in gaussian
 --------------------------------
 Symbolic Z-matrix:
 Charge =  0 Multiplicity = 1

                         Standard orientation:
 ---------------------------------------------------------------------
 Center     Atomic      Atomic             Coordinates (Angstroms)
 Number     Number       Type             X           Y           Z
 ---------------------------------------------------------------------
      1         12           0        4.807840    1.074706    0.602149
      2          6           0        5.478139   -2.139490   -0.823283
      3          6           0        5.801500    2.433133   -2.366079
      4          6           0        4.658508    3.926243    1.981662
      5          6           0        4.964356   -0.445443    3.734291
      6          7           0        5.525088    0.159038   -1.281399
      7          6           0        5.679295   -1.086779   -1.718816
      8          6           0        6.001690   -1.171760   -3.240727
      9          6           0        6.624241    0.281373   -3.447686
     10          6           0        5.915823    1.011904   -2.320569
     11          6           0        8.128490    0.340366   -3.202215
     12          6           0        4.715417   -1.373157   -4.110595
     13          6           0        4.967200   -1.790363   -5.562455
     14          1           0        4.034225   -2.707560   -6.199365
     15          7           0        4.703680    2.879493   -0.194559
     16          6           0        5.142514    3.249612   -1.421638
     17          6           0        4.838097    4.691361   -1.545611
     18          6           0        4.359429    5.171026   -0.219378
     19          6           0        4.582459    4.002368    0.592948
     20          6           0        4.962855    5.451150   -2.830487
     21          6           0        3.800954    6.478979    0.244839
     22          8           0        3.664984    6.758768    1.484921
     23          6           0        3.495726    7.471428   -0.801546
     24          7           0        5.027457    1.709217    2.578711
     25          6           0        4.856066    2.992495    2.914578
     26          6           0        4.782106    3.162129    4.403098
     27          6           0        4.695240    1.688617    5.012172
     28          6           0        4.823972    0.881565    3.696738
     29          6           0        5.953781    3.913520    5.050091
     30          6           0        3.500026    1.384701    5.949998
     31          6           0        2.209510    1.412173    5.162019
     32          7           0        4.980208   -0.955054    1.351423
     33          6           0        5.049412   -1.355281    2.693698
     34          6           0        5.269471   -2.813229    2.698967
     35          6           0        5.329946   -3.159614    1.350558
     36          6           0        5.184765   -1.988217    0.553662
     37          6           0        5.443906   -3.625534    3.854029
     38          6           0        5.508074   -4.243324    0.397825
     39          8           0        5.581869   -5.469982    0.483596
     40          6           0        5.733027   -3.609570   -1.045636
     41          6           0        4.837074   -4.340916   -2.007774
     42          8           0        3.595714   -4.240319   -1.928584
     43          8           0        5.576444   -4.847220   -3.006539
     44          6           0        4.744521   -5.560610   -4.012091
     45          1           0        6.311197    2.978413   -3.162835
     46          1           0        4.500497    4.874686    2.499278
     47          1           0        4.939051   -1.000543    4.673799
     48          1           0        6.735233   -1.932573   -3.508127
     49          1           0        6.346414    0.709774   -4.410498
     50          1           0        8.503587   -0.600277   -2.799209
     51          1           0        8.274783    1.147473   -2.484114
     52          1           0        8.656870    0.644207   -4.106247
     53          1           0        4.238009   -0.407223   -4.275260
     54          1           0        4.040668   -2.089980   -3.641335
     55          1           0        5.993832   -2.127675   -5.707908
     56          1           0        4.881265   -0.904732   -6.192117
     57          1           0        5.494049    4.874574   -3.586753
     58          1           0        5.611687    6.304468   -2.634084
     59          1           0        3.997091    5.800171   -3.196294
     60          1           0        4.404412    7.696221   -1.360391
     61          1           0        3.022318    8.309855   -0.291865
     62          1           0        2.798727    7.029900   -1.514424
     63          1           0        3.891465    3.720034    4.689329
     64          1           0        5.572363    1.441002    5.610516
     65          1           0        5.649164    4.789750    5.622921
     66          1           0        6.655589    4.185900    4.262330
     67          1           0        6.582917    3.306281    5.700371
     68          1           0        3.420440    2.148738    6.722564
     69          1           0        3.577885    0.417551    6.446797
     70          1           0        1.960032    2.472420    5.140372
     71          1           0        1.437180    0.839799    5.676903
     72          1           0        2.365528    1.093029    4.131343
     73          1           0        4.849090   -4.523641    3.687995
     74          1           0        5.128706   -3.102961    4.756896
     75          1           0        6.520436   -3.792723    3.822616
     76          1           0        6.787356   -3.743142   -1.285785
     77          1           0        5.142786   -6.571571   -4.099124
     78          1           0        4.740671   -4.939438   -4.907934
     79          1           0        3.713682   -5.769620   -3.723949
     80         12           0       -5.672380   -0.044594   -0.309111
     81          6           0       -2.943432   -2.291125    0.311370
     82          6           0       -3.348337    2.397910   -0.826445
     83          6           0       -8.048566    2.055287   -0.417273
     84          6           0       -7.735346   -2.314693    1.345123
     85          7           0       -3.461766   -0.066800   -0.238855
     86          6           0       -2.532385   -0.992086   -0.053300
     87          6           0       -1.084316   -0.517664   -0.349230
     88          6           0       -1.297642    1.058483   -0.127625
     89          6           0       -2.787592    1.151232   -0.450329
     90          6           0       -1.092764    1.496854    1.312934
     91          6           0       -0.639861   -0.835956   -1.819997
     92          6           0        0.859138   -0.681870   -2.086438
     93          1           0        1.498455   -1.604342   -3.020679
     94          7           0       -5.726932    1.796092   -1.049047
     95          6           0       -4.685927    2.639818   -1.209402
     96          6           0       -5.252525    3.875529   -1.771688
     97          6           0       -6.735562    3.751834   -1.776383
     98          6           0       -6.898883    2.510943   -1.045909
     99          6           0       -4.402102    4.988455   -2.311694
    100          6           0       -7.826817    4.614924   -2.333535
    101          8           0       -9.055397    4.436546   -2.014793
    102          6           0       -7.405471    5.733387   -3.189685
    103          7           0       -7.566770   -0.013711    0.546832
    104          6           0       -8.422034    0.993243    0.296799
    105          6           0       -9.810266    0.665645    0.792654
    106          6           0       -9.763485   -0.876627    1.213103
    107          6           0       -8.266962   -1.162616    0.960079
    108          6           0      -10.309290    1.499588    1.972443
    109          6           0      -10.815789   -1.815721    0.562388
    110          6           0      -10.542798   -1.949137   -0.918513
    111          7           0       -5.459896   -2.037573    0.497697
    112          6           0       -6.443089   -2.793924    1.172491
    113          6           0       -5.794479   -4.038592    1.633498
    114          6           0       -4.462702   -3.908640    1.211614
    115          6           0       -4.288487   -2.661429    0.553108
    116          6           0       -6.419940   -5.074026    2.383702
    117          6           0       -3.162142   -4.538254    1.182926
    118          8           0       -2.723145   -5.640308    1.509242
    119          6           0       -2.090773   -3.463602    0.709973
    120          6           0       -1.232783   -4.098430   -0.349907
    121          8           0       -1.721324   -4.427796   -1.445106
    122          8           0        0.058372   -4.013233    0.018929
    123          6           0        0.949579   -4.619642   -1.005688
    124          1           0       -2.715741    3.285026   -0.784843
    125          1           0       -8.928145    2.694716   -0.521893
    126          1           0       -8.333972   -3.116669    1.782337
    127          1           0       -0.334498   -0.891576    0.337603
    128          1           0       -0.716540    1.639589   -0.838963
    129          1           0       -0.952799    0.654736    1.974285
    130          1           0       -1.985299    2.045865    1.583126
    131          1           0       -0.268114    2.212652    1.375486
    132          1           0       -1.030457   -0.057878   -2.488411
    133          1           0       -0.959475   -1.817820   -2.110561
    134          1           0        1.438008   -0.613228   -1.157381
    135          1           0        1.027136    0.279196   -2.578535
    136          1           0       -3.350937    4.868480   -2.021746
    137          1           0       -4.719846    5.907343   -1.807172
    138          1           0       -4.515370    5.119984   -3.389901
    139          1           0       -6.737204    6.384164   -2.630776
    140          1           0       -8.329172    6.179209   -3.563695
    141          1           0       -6.825654    5.332642   -4.028640
    142          1           0      -10.542429    0.793031    0.004731
    143          1           0       -9.930899   -1.010095    2.291994
    144          1           0      -11.259615    2.026251    1.763696
    145          1           0       -9.535121    2.205122    2.243416
    146          1           0      -10.453799    0.947759    2.899700
    147          1           0      -11.816175   -1.386058    0.656095
    148          1           0      -10.846840   -2.804285    1.008216
    149          1           0      -11.022263   -1.060056   -1.338914
    150          1           0      -10.989651   -2.860861   -1.309806
    151          1           0       -9.469525   -1.875545   -1.129055
    152          1           0       -6.098297   -6.011161    1.949157
    153          1           0       -7.503596   -4.978246    2.366787
    154          1           0       -6.005604   -4.873890    3.375433
    155          1           0       -1.510383   -3.172067    1.586187
    156          1           0        1.551996   -5.378242   -0.496468
    157          1           0        1.491352   -3.773612   -1.468794
    158          1           0        0.485572   -5.208364   -1.788336
 ---------------------------------------------------------------------

 SCF Done:  E(RCAM-B3LYP) =  -4069.81411457     A.U. after   19 cycles

 Excitation energies and oscillator strengths:

 Excited State   1:      Singlet-A      1.6509 eV  751.00 nm  f=0.0035  <S**2>=0.000
     309 -> 315        0.12324
     310 -> 316       -0.11331
     311 -> 313        0.50268
     312 -> 314       -0.46903
 This state for optimization and/or second-order correction.
 Total Energy, E(TD-HF/TD-DFT) =  -4069.75344411
 Copying the excited state density for this state as the 1-particle RhoCI density.

 Excited State   2:      Singlet-A      1.6976 eV  730.34 nm  f=0.7022  <S**2>=0.000
     309 -> 315        0.12306
     310 -> 316        0.13031
     311 -> 313        0.46690
     312 -> 314        0.50049

 Excited State   3:      Singlet-A      2.1810 eV  568.47 nm  f=0.1061  <S**2>=0.000
     310 -> 314        0.63876
     312 -> 316       -0.26846

 Excited State   4:      Singlet-A      2.1951 eV  564.82 nm  f=0.0963  <S**2>=0.000
     309 -> 313        0.63586
     311 -> 315       -0.27677

 Excited State   5:      Singlet-A      2.2901 eV  541.40 nm  f=0.0000  <S**2>=0.000
     312 -> 313        0.70616

 The electronic state is 1-A.
 Alpha  occ. eigenvalues --  -46.88293 -46.87284 -19.27182 -19.24473 -19.20144
 Alpha  occ. eigenvalues --  -19.19274 -19.18691 -19.18415 -19.17846 -19.17491
 Alpha  occ. eigenvalues --  -14.42908 -14.42118 -14.41913 -14.40982 -14.39888
 Alpha  occ. eigenvalues --  -14.39064 -14.38981 -14.38207 -10.40141 -10.37767
 Alpha  occ. eigenvalues --  -10.35905 -10.35100 -10.34929 -10.33629 -10.32341
 Alpha  occ. eigenvalues --  -10.31861 -10.31411 -10.31030 -10.30970 -10.30890
 Alpha  occ. eigenvalues --  -10.30644 -10.30596 -10.30359 -10.30080 -10.30015
 Alpha  occ. eigenvalues --  -10.29951 -10.29822 -10.29706 -10.29522 -10.29219
 Alpha  occ. eigenvalues --  -10.29098 -10.29024 -10.28950 -10.28868 -10.28701
 Alpha  occ. eigenvalues --  -10.28548 -10.28242 -10.28211 -10.28168 -10.28047
 Alpha  occ. eigenvalues --  -10.27990 -10.27980 -10.27914 -10.27910 -10.27869
 Alpha  occ. eigenvalues --  -10.27825 -10.27807 -10.27728 -10.27614 -10.27305
 Alpha  occ. eigenvalues --  -10.27239 -10.27212 -10.27210 -10.27098 -10.27088
 Alpha  occ. eigenvalues --  -10.27025 -10.26868 -10.26613 -10.26515 -10.26451
 Alpha  occ. eigenvalues --  -10.26251 -10.26194 -10.26124 -10.26097 -10.25894
 Alpha  occ. eigenvalues --  -10.25763 -10.25673 -10.25578 -10.25516 -10.25294
 Alpha  occ. eigenvalues --  -10.25249 -10.25145 -10.25054 -10.24493 -10.24459
 Alpha  occ. eigenvalues --  -10.24311  -3.17029  -3.16035  -1.91912  -1.91496
 Alpha  occ. eigenvalues --   -1.91338  -1.90917  -1.90505  -1.90342  -1.17566
 Alpha  occ. eigenvalues --   -1.14926  -1.09184  -1.08037  -1.07782  -1.07675
 Alpha  occ. eigenvalues --   -1.06674  -1.05561  -1.05049  -1.04219  -1.04095
 Alpha  occ. eigenvalues --   -1.03701  -1.03282  -1.02874  -1.02667  -1.01728
 Alpha  occ. eigenvalues --   -0.92502  -0.91471  -0.89952  -0.89635  -0.89129
 Alpha  occ. eigenvalues --   -0.88703  -0.88698  -0.88270  -0.88121  -0.87886
 Alpha  occ. eigenvalues --   -0.87728  -0.87417  -0.87279  -0.86801  -0.85442
 Alpha  occ. eigenvalues --   -0.84535  -0.84365  -0.83504  -0.83413  -0.83136
 Alpha  occ. eigenvalues --   -0.82634  -0.82161  -0.82147  -0.81095  -0.80708
 Alpha  occ. eigenvalues --   -0.79464  -0.79239  -0.78281  -0.77646  -0.77414
 Alpha  occ. eigenvalues --   -0.76737  -0.76409  -0.76249  -0.75320  -0.75061
 Alpha  occ. eigenvalues --   -0.74135  -0.73208  -0.72313  -0.72125  -0.71087
 Alpha  occ. eigenvalues --   -0.70295  -0.69441  -0.69330  -0.68354  -0.68118
 Alpha  occ. eigenvalues --   -0.67682  -0.67135  -0.66733  -0.65772  -0.65384
 Alpha  occ. eigenvalues --   -0.65102  -0.64762  -0.64700  -0.64355  -0.63990
 Alpha  occ. eigenvalues --   -0.63671  -0.62934  -0.61022  -0.60890  -0.60256
 Alpha  occ. eigenvalues --   -0.60000  -0.59466  -0.59368  -0.59016  -0.58535
 Alpha  occ. eigenvalues --   -0.58286  -0.57913  -0.57779  -0.56966  -0.56849
 Alpha  occ. eigenvalues --   -0.56595  -0.56532  -0.56074  -0.55912  -0.55817
 Alpha  occ. eigenvalues --   -0.55285  -0.55151  -0.54834  -0.54438  -0.54332
 Alpha  occ. eigenvalues --   -0.53786  -0.53751  -0.53562  -0.53543  -0.53430
 Alpha  occ. eigenvalues --   -0.53224  -0.52840  -0.52696  -0.52639  -0.52354
 Alpha  occ. eigenvalues --   -0.52248  -0.52194  -0.52085  -0.51763  -0.51630
 Alpha  occ. eigenvalues --   -0.51474  -0.51097  -0.51015  -0.50570  -0.50418
 Alpha  occ. eigenvalues --   -0.50353  -0.50196  -0.49998  -0.49745  -0.49632
 Alpha  occ. eigenvalues --   -0.49546  -0.49511  -0.49159  -0.49087  -0.48953
 Alpha  occ. eigenvalues --   -0.48883  -0.48693  -0.48603  -0.48172  -0.48062
 Alpha  occ. eigenvalues --   -0.47861  -0.47803  -0.47751  -0.47252  -0.47085
 Alpha  occ. eigenvalues --   -0.47065  -0.46873  -0.46668  -0.46488  -0.46332
 Alpha  occ. eigenvalues --   -0.46216  -0.46055  -0.45870  -0.45623  -0.45440
 Alpha  occ. eigenvalues --   -0.45117  -0.44937  -0.44928  -0.44791  -0.44613
 Alpha  occ. eigenvalues --   -0.44522  -0.44489  -0.44091  -0.44085  -0.43887
 Alpha  occ. eigenvalues --   -0.43836  -0.43701  -0.43638  -0.43569  -0.43476
 Alpha  occ. eigenvalues --   -0.43225  -0.43073  -0.42955  -0.42457  -0.42399
 Alpha  occ. eigenvalues --   -0.42253  -0.42211  -0.42104  -0.41978  -0.41588
 Alpha  occ. eigenvalues --   -0.41530  -0.41315  -0.41284  -0.41128  -0.41005
 Alpha  occ. eigenvalues --   -0.40985  -0.40816  -0.40731  -0.40515  -0.40376
 Alpha  occ. eigenvalues --   -0.40237  -0.39993  -0.39820  -0.39720  -0.39131
 Alpha  occ. eigenvalues --   -0.38874  -0.38237  -0.38001  -0.37804  -0.37743
 Alpha  occ. eigenvalues --   -0.37515  -0.37101  -0.36896  -0.36755  -0.36612
 Alpha  occ. eigenvalues --   -0.36017  -0.34968  -0.34868  -0.34712  -0.33849
 Alpha  occ. eigenvalues --   -0.33677  -0.32943  -0.32521  -0.31805  -0.31518
 Alpha  occ. eigenvalues --   -0.30970  -0.30556  -0.30533  -0.29918  -0.29778
 Alpha  occ. eigenvalues --   -0.29362  -0.28969  -0.28805  -0.24564  -0.23626
 Alpha  occ. eigenvalues --   -0.21577  -0.20745
 Alpha virt. eigenvalues --   -0.09237  -0.08406  -0.02214  -0.01321  -0.00531
 Alpha virt. eigenvalues --    0.00314   0.01708   0.01954   0.02660   0.03583
 Alpha virt. eigenvalues --    0.03848   0.04250   0.05154   0.05636   0.06292

 Mulliken charges:
               1
     1  Mg   0.828199
     2  C   -0.003793
     3  C   -0.093273
     4  C   -0.046005
     5  C   -0.062597
     6  N   -0.257169
     7  C   -0.053323
     8  C   -0.012300
     9  C   -0.087449
    10  C    0.046577
    11  C    0.104531
    12  C    0.043765
    13  C   -0.072805
    14  H    0.037844
    15  N   -0.433128
    16  C    0.167443
    17  C   -0.177647
    18  C   -0.004596
    19  C    0.147762
    20  C    0.110103
    21  C    0.010880
    22  O   -0.248966
    23  C    0.063042
    24  N   -0.340535
    25  C    0.041421
    26  C   -0.028245
    27  C   -0.024302
    28  C    0.074327
    29  C    0.075825
    30  C    0.034901
    31  C   -0.005181
    32  N   -0.311129
    33  C    0.080614
    34  C   -0.167067
    35  C    0.009620
    36  C    0.082132
    37  C    0.126676
    38  C    0.045843
    39  O   -0.186869
    40  C   -0.008385
    41  C    0.224369
    42  O   -0.255985
    43  O   -0.301213
    44  C    0.155857
    45  H   -0.016987
    46  H   -0.016247
    47  H   -0.039745
    48  H    0.000905
    49  H   -0.003303
    50  H    0.025855
    51  H    0.017084
    52  H    0.017759
    53  H    0.013544
    54  H    0.047001
    55  H    0.018646
    56  H    0.019184
    57  H    0.006622
    58  H    0.027869
    59  H    0.038725
    60  H    0.038561
    61  H    0.036284
    62  H    0.029505
    63  H    0.016566
    64  H    0.010624
    65  H    0.023982
    66  H    0.012837
    67  H    0.005731
    68  H    0.007536
    69  H    0.006324
    70  H    0.008570
    71  H    0.020029
    72  H    0.026878
    73  H    0.050427
    74  H    0.010515
    75  H    0.046674
    76  H    0.037670
    77  H    0.047141
    78  H    0.049579
    79  H    0.052577
    80  Mg   0.836519
    81  C   -0.015693
    82  C   -0.088204
    83  C   -0.046330
    84  C   -0.066271
    85  N   -0.254030
    86  C   -0.050129
    87  C   -0.016023
    88  C   -0.091213
    89  C    0.045141
    90  C    0.110712
    91  C    0.067224
    92  C   -0.093428
    93  H    0.050849
    94  N   -0.423289
    95  C    0.162153
    96  C   -0.175259
    97  C   -0.008764
    98  C    0.151853
    99  C    0.099818
   100  C    0.014922
   101  O   -0.254174
   102  C    0.061500
   103  N   -0.350388
   104  C    0.037212
   105  C   -0.019503
   106  C   -0.034806
   107  C    0.089461
   108  C    0.074009
   109  C    0.034963
   110  C   -0.007529
   111  N   -0.324245
   112  C    0.079038
   113  C   -0.164041
   114  C    0.003000
   115  C    0.095477
   116  C    0.131609
   117  C    0.040973
   118  O   -0.185858
   119  C    0.004247
   120  C    0.210168
   121  O   -0.257572
   122  O   -0.308474
   123  C    0.151709
   124  H   -0.020325
   125  H   -0.016693
   126  H   -0.041335
   127  H    0.001765
   128  H   -0.005526
   129  H    0.023121
   130  H    0.014160
   131  H    0.018534
   132  H    0.009478
   133  H    0.039697
   134  H    0.029879
   135  H    0.015155
   136  H    0.007481
   137  H    0.025328
   138  H    0.037889
   139  H    0.037756
   140  H    0.035362
   141  H    0.033089
   142  H    0.013703
   143  H    0.011812
   144  H    0.024304
   145  H    0.011503
   146  H    0.004951
   147  H    0.005516
   148  H    0.003320
   149  H    0.010533
   150  H    0.017325
   151  H    0.030639
   152  H    0.046189
   153  H    0.007632
   154  H    0.046338
   155  H    0.033643
   156  H    0.040531
   157  H    0.070130
   158  H    0.035089
 Sum of Mulliken charges =  -0.00000

 Dipole moment (field-independent basis, Debye):
    X=              5.1613    Y=              6.5917    Z=             -2.5150  Tot=              8.7415
 Quadrupole moment (field-independent basis, Debye-Ang):
   XX=           -490.7761   YY=           -555.1367   ZZ=           -468.7785
   XY=             22.4631   XZ=            -33.3930   YZ=            -10.8868

 Normal termination of Gaussian 16 at Fri Sep 10 19:22:58 2021.
