 Gaussian 16, Revision A.03,
 Gaussian 16:  ES64L-G16RevA.03 25-Dec-2016

 -----------------------------------
 #p cam-b3lyp/Def2SVP td=(nstates=5)
 -----------------------------------

 --------------------------------
 TDDFT excited states in gaussian
 --------------------------------
 Symbolic Z-matrix:
 Charge =  0 Multiplicity = 1

                         Standard orientation:
 ---------------------------------------------------------------------
 Center     Atomic      Atomic             Coordinates (Angstroms)
 Number     Number       Type             X           Y           Z
 ---------------------------------------------------------------------
      1         12           0        6.841553    0.284400    0.125176
      2          6           0        6.839466   -3.137870   -0.923767
      3          6           0        7.701952    1.108782   -3.072193
      4          6           0        7.293182    3.258430    1.129066
      5          6           0        7.102847   -0.873834    3.401742
      6          7           0        7.194563   -0.947557   -1.679903
      7          6           0        7.102800   -2.243097   -1.963325
      8          6           0        7.238083   -2.553947   -3.483997
      9          6           0        8.053602   -1.259908   -3.933875
     10          6           0        7.596868   -0.296797   -2.852333
     11          6           0        9.566343   -1.428162   -3.834851
     12          6           0        5.848144   -2.632981   -4.200625
     13          6           0        5.869880   -3.249203   -5.602464
     14          1           0        4.740434   -4.062173   -6.027645
     15          7           0        6.933757    1.978286   -0.887295
     16          6           0        7.287033    2.126904   -2.186677
     17          6           0        7.200094    3.575735   -2.469540
     18          6           0        6.951582    4.277111   -1.179420
     19          6           0        7.077279    3.187738   -0.245159
     20          6           0        7.299680    4.152303   -3.848453
     21          6           0        6.659228    5.704785   -0.841179
     22          8           0        6.706312    6.142812    0.359025
     23          6           0        6.399474    6.608877   -1.976163
     24          7           0        7.374367    1.093513    1.974251
     25          6           0        7.443923    2.417073    2.154074
     26          6           0        7.562041    2.765061    3.608341
     27          6           0        7.313467    1.406403    4.409598
     28          6           0        7.168492    0.444803    3.204369
     29          6           0        8.900950    3.376548    4.043561
     30          6           0        6.196247    1.417372    5.482966
     31          6           0        4.846977    1.572450    4.817745
     32          7           0        6.775873   -1.646660    1.113982
     33          6           0        6.929238   -1.897411    2.485214
     34          6           0        6.917753   -3.361371    2.660592
     35          6           0        6.774205   -3.864183    1.368919
     36          6           0        6.727048   -2.783515    0.442515
     37          6           0        7.089296   -4.054641    3.891195
     38          6           0        6.674440   -5.063703    0.553409
     39          8           0        6.564453   -6.267362    0.791317
     40          6           0        6.835163   -4.645494   -0.974693
     41          6           0        5.735255   -5.319773   -1.748554
     42          8           0        4.541315   -5.002702   -1.571529
     43          8           0        6.271599   -6.053971   -2.735382
     44          6           0        5.232559   -6.726421   -3.560222
     45          1           0        8.199643    1.465906   -3.975912
     46          1           0        7.343542    4.272596    1.530774
     47          1           0        7.094801   -1.306101    4.404005
     48          1           0        7.809562   -3.453096   -3.715010
     49          1           0        7.741730   -0.903163   -4.915299
     50          1           0        9.831816   -2.366556   -3.348166
     51          1           0        9.915385   -0.580925   -3.244213
     52          1           0       10.032772   -1.322783   -4.814706
     53          1           0        5.512496   -1.625426   -4.446050
     54          1           0        5.125498   -3.167466   -3.583020
     55          1           0        6.808725   -3.769322   -5.794697
     56          1           0        5.854618   -2.439283   -6.331845
     57          1           0        7.647451    3.412051   -4.567915
     58          1           0        8.091657    4.900565   -3.824261
     59          1           0        6.366018    4.615419   -4.168033
     60          1           0        7.264886    6.611949   -2.639187
     61          1           0        6.122183    7.567674   -1.539507
     62          1           0        5.567669    6.213127   -2.559628
     63          1           0        6.806706    3.494216    3.898558
     64          1           0        8.201635    1.084000    4.953553
     65          1           0        8.802208    4.351048    4.522418
     66          1           0        9.545504    3.435079    3.166967
     67          1           0        9.495191    2.749830    4.708030
     68          1           0        6.322856    2.266773    6.153364
     69          1           0        6.176176    0.513882    6.092518
     70          1           0        4.765571    2.650141    4.680684
     71          1           0        4.056182    1.201054    5.470370
     72          1           0        4.836511    1.116342    3.827623
     73          1           0        6.346680   -4.852416    3.897955
     74          1           0        6.961248   -3.387039    4.742966
     75          1           0        8.116307   -4.403645    3.784888
     76          1           0        7.822618   -4.981594   -1.289478
     77          1           0        5.455723   -7.793348   -3.550308
     78          1           0        5.227139   -6.219574   -4.525355
     79          1           0        4.219864   -6.724229   -3.155519
     80         12           0       -6.375730    1.002909    0.376449
     81          6           0       -8.515212   -1.870508    0.163865
     82          6           0       -7.790865    2.085897   -2.532007
     83          6           0       -4.200064    3.310928    0.293311
     84          6           0       -4.378253   -0.819845    2.574942
     85          7           0       -7.941412    0.132664   -0.921081
     86          6           0       -8.726209   -0.933034   -0.868628
     87          6           0       -9.850173   -0.957395   -1.938985
     88          6           0       -9.163122   -0.001128   -3.030949
     89          6           0       -8.265254    0.819213   -2.107088
     90          6           0       -8.279374   -0.749270   -4.015139
     91          6           0      -11.195112   -0.348671   -1.407375
     92          6           0      -12.416413   -0.619757   -2.288683
     93          1           0      -13.708181   -0.832454   -1.641714
     94          7           0       -6.355332    2.712901   -0.630550
     95          6           0       -7.005351    2.987626   -1.780888
     96          6           0       -6.648865    4.373177   -2.123430
     97          6           0       -5.605561    4.838581   -1.169673
     98          6           0       -5.325414    3.604892   -0.462824
     99          6           0       -7.337421    5.145405   -3.211075
    100          6           0       -4.956977    6.170264   -0.941316
    101          8           0       -3.904505    6.291773   -0.219948
    102          6           0       -5.535393    7.313458   -1.662454
    103          7           0       -4.443408    1.146854    1.129919
    104          6           0       -3.733588    2.281452    1.000344
    105          6           0       -2.488494    2.246457    1.854103
    106          6           0       -2.634371    0.946032    2.773442
    107          6           0       -3.954150    0.380563    2.204373
    108          6           0       -1.163004    2.186831    1.095232
    109          6           0       -2.519999    1.152997    4.308613
    110          6           0       -3.701192    1.951517    4.811146
    111          7           0       -6.505608   -0.908496    1.375317
    112          6           0       -5.545940   -1.489776    2.232778
    113          6           0       -6.029180   -2.843786    2.572708
    114          6           0       -7.234728   -2.965948    1.865438
    115          6           0       -7.475053   -1.780027    1.120229
    116          6           0       -5.349961   -3.787760    3.393502
    117          6           0       -8.353317   -3.832546    1.571423
    118          8           0       -8.735461   -4.927437    1.982421
    119          6           0       -9.168793   -3.210706    0.357040
    120          6           0      -10.628780   -3.232675    0.718243
    121          8           0      -11.058042   -2.539556    1.657355
    122          8           0      -11.308683   -3.895160   -0.235281
    123          6           0      -12.763135   -3.934250    0.072698
    124          1           0       -8.004038    2.403961   -3.552925
    125          1           0       -3.470250    4.118529    0.386170
    126          1           0       -3.861519   -1.413489    3.332069
    127          1           0      -10.046596   -1.932085   -2.369320
    128          1           0       -9.897613    0.637590   -3.514618
    129          1           0       -8.165136   -1.788472   -3.744667
    130          1           0       -7.322092   -0.245125   -3.992994
    131          1           0       -8.660968   -0.626910   -5.032851
    132          1           0      -11.147726    0.745279   -1.483292
    133          1           0      -11.392354   -0.677309   -0.405515
    134          1           0      -12.223823   -1.405045   -3.029751
    135          1           0      -12.616268    0.271527   -2.888419
    136          1           0       -7.944424    4.489724   -3.847504
    137          1           0       -6.555701    5.523969   -3.878500
    138          1           0       -7.914255    5.989781   -2.827736
    139          1           0       -5.501116    7.120503   -2.732059
    140          1           0       -4.994235    8.190447   -1.302017
    141          1           0       -6.593733    7.398642   -1.391778
    142          1           0       -2.430737    3.121513    2.489741
    143          1           0       -1.853758    0.202664    2.554588
    144          1           0       -0.476507    3.016228    1.350002
    145          1           0       -1.376779    2.182322    0.034661
    146          1           0       -0.599797    1.263740    1.221300
    147          1           0       -1.627142    1.736373    4.546622
    148          1           0       -2.456077    0.224475    4.866057
    149          1           0       -3.402717    2.985226    4.612543
    150          1           0       -3.853297    1.782111    5.875203
    151          1           0       -4.597403    1.746678    4.214064
    152          1           0       -6.094142   -4.226183    4.045022
    153          1           0       -4.550215   -3.317586    3.961922
    154          1           0       -4.965161   -4.468970    2.629862
    155          1           0       -8.956057   -3.816349   -0.524722
    156          1           0      -13.061642   -4.987144    0.072169
    157          1           0      -13.244277   -3.273896   -0.673070
    158          1           0      -13.073900   -3.626825    1.064352
 ---------------------------------------------------------------------

 SCF Done:  E(RCAM-B3LYP) =  -4069.81177552     A.U. after   19 cycles

 Excitation energies and oscillator strengths:

 Excited State   1:      Singlet-A      1.6650 eV  744.67 nm  f=0.0090  <S**2>=0.000
     309 -> 315        0.10823
     310 -> 316        0.13279
     311 -> 313        0.43246
     312 -> 314        0.53334
 This state for optimization and/or second-order correction.
 Total Energy, E(TD-HF/TD-DFT) =  -4069.75058937
 Copying the excited state density for this state as the 1-particle RhoCI density.

 Excited State   2:      Singlet-A      1.6897 eV  733.77 nm  f=0.7329  <S**2>=0.000
     309 -> 315        0.13842
     310 -> 316       -0.11161
     311 -> 313        0.53214
     312 -> 314       -0.43154

 Excited State   3:      Singlet-A      2.1850 eV  567.44 nm  f=0.0817  <S**2>=0.000
     309 -> 313       -0.12822
     310 -> 314        0.62997
     312 -> 316       -0.26695

 Excited State   4:      Singlet-A      2.1938 eV  565.16 nm  f=0.1156  <S**2>=0.000
     309 -> 313        0.62774
     310 -> 314        0.12687
     311 -> 315       -0.27340

 Excited State   5:      Singlet-A      2.6490 eV  468.03 nm  f=0.0000  <S**2>=0.000
     312 -> 313        0.70691

 The electronic state is 1-A.
 Alpha  occ. eigenvalues --  -46.87834 -46.87543 -19.26309 -19.26262 -19.19069
 Alpha  occ. eigenvalues --  -19.19051 -19.18812 -19.18622 -19.18196 -19.17937
 Alpha  occ. eigenvalues --  -14.42484 -14.42384 -14.41487 -14.41236 -14.39434
 Alpha  occ. eigenvalues --  -14.39239 -14.38625 -14.38480 -10.39110 -10.38997
 Alpha  occ. eigenvalues --  -10.35443 -10.35302 -10.34417 -10.34114 -10.31698
 Alpha  occ. eigenvalues --  -10.31679 -10.31441 -10.31195 -10.30936 -10.30922
 Alpha  occ. eigenvalues --  -10.30606 -10.30541 -10.30277 -10.30242 -10.30241
 Alpha  occ. eigenvalues --  -10.30016 -10.29960 -10.29762 -10.29660 -10.29321
 Alpha  occ. eigenvalues --  -10.29286 -10.29283 -10.28778 -10.28629 -10.28587
 Alpha  occ. eigenvalues --  -10.28567 -10.28395 -10.28295 -10.28146 -10.28049
 Alpha  occ. eigenvalues --  -10.27884 -10.27821 -10.27760 -10.27609 -10.27559
 Alpha  occ. eigenvalues --  -10.27551 -10.27492 -10.27491 -10.27436 -10.27391
 Alpha  occ. eigenvalues --  -10.27370 -10.27362 -10.27357 -10.27226 -10.27186
 Alpha  occ. eigenvalues --  -10.26943 -10.26736 -10.26614 -10.26378 -10.26351
 Alpha  occ. eigenvalues --  -10.26262 -10.26260 -10.26059 -10.26001 -10.25938
 Alpha  occ. eigenvalues --  -10.25879 -10.25803 -10.25681 -10.25464 -10.25223
 Alpha  occ. eigenvalues --  -10.24863 -10.24820 -10.24805 -10.24754 -10.24613
 Alpha  occ. eigenvalues --  -10.24570  -3.16578  -3.16293  -1.91460  -1.91175
 Alpha  occ. eigenvalues --   -1.91046  -1.90888  -1.90764  -1.90601  -1.16659
 Alpha  occ. eigenvalues --   -1.16555  -1.08654  -1.08544  -1.07211  -1.06876
 Alpha  occ. eigenvalues --   -1.06853  -1.06672  -1.04614  -1.04384  -1.03796
 Alpha  occ. eigenvalues --   -1.03546  -1.03268  -1.02917  -1.02446  -1.01992
 Alpha  occ. eigenvalues --   -0.92004  -0.91873  -0.89568  -0.89367  -0.89218
 Alpha  occ. eigenvalues --   -0.89056  -0.88332  -0.88086  -0.87903  -0.87706
 Alpha  occ. eigenvalues --   -0.87661  -0.87570  -0.87288  -0.87024  -0.85011
 Alpha  occ. eigenvalues --   -0.84901  -0.83988  -0.83744  -0.82978  -0.82836
 Alpha  occ. eigenvalues --   -0.82672  -0.82556  -0.81615  -0.81491  -0.80623
 Alpha  occ. eigenvalues --   -0.80337  -0.78819  -0.78527  -0.77255  -0.77036
 Alpha  occ. eigenvalues --   -0.76968  -0.76790  -0.75953  -0.75737  -0.74936
 Alpha  occ. eigenvalues --   -0.74671  -0.72809  -0.72577  -0.71704  -0.71463
 Alpha  occ. eigenvalues --   -0.69970  -0.69625  -0.68900  -0.68727  -0.67668
 Alpha  occ. eigenvalues --   -0.67489  -0.67242  -0.67111  -0.65319  -0.65172
 Alpha  occ. eigenvalues --   -0.64888  -0.64655  -0.64655  -0.64547  -0.64314
 Alpha  occ. eigenvalues --   -0.64076  -0.62329  -0.62173  -0.60464  -0.60231
 Alpha  occ. eigenvalues --   -0.59834  -0.59694  -0.59021  -0.58874  -0.58536
 Alpha  occ. eigenvalues --   -0.58311  -0.57614  -0.57445  -0.57341  -0.57118
 Alpha  occ. eigenvalues --   -0.56337  -0.56091  -0.56005  -0.55790  -0.55538
 Alpha  occ. eigenvalues --   -0.55382  -0.55353  -0.55121  -0.54564  -0.54369
 Alpha  occ. eigenvalues --   -0.53924  -0.53818  -0.53326  -0.53241  -0.53116
 Alpha  occ. eigenvalues --   -0.53041  -0.52947  -0.52800  -0.52768  -0.52584
 Alpha  occ. eigenvalues --   -0.52504  -0.52274  -0.51949  -0.51738  -0.51638
 Alpha  occ. eigenvalues --   -0.51567  -0.51232  -0.51086  -0.50576  -0.50389
 Alpha  occ. eigenvalues --   -0.50077  -0.49934  -0.49881  -0.49741  -0.49534
 Alpha  occ. eigenvalues --   -0.49392  -0.49239  -0.49123  -0.49101  -0.48997
 Alpha  occ. eigenvalues --   -0.48623  -0.48494  -0.48456  -0.48452  -0.48244
 Alpha  occ. eigenvalues --   -0.48240  -0.47723  -0.47491  -0.47321  -0.47007
 Alpha  occ. eigenvalues --   -0.46837  -0.46591  -0.46583  -0.46457  -0.46394
 Alpha  occ. eigenvalues --   -0.46198  -0.46153  -0.45956  -0.45853  -0.45702
 Alpha  occ. eigenvalues --   -0.45241  -0.45077  -0.44608  -0.44531  -0.44411
 Alpha  occ. eigenvalues --   -0.44366  -0.44184  -0.44116  -0.44039  -0.44025
 Alpha  occ. eigenvalues --   -0.43965  -0.43841  -0.43526  -0.43447  -0.43419
 Alpha  occ. eigenvalues --   -0.43275  -0.43060  -0.42830  -0.42784  -0.42737
 Alpha  occ. eigenvalues --   -0.42700  -0.42431  -0.42059  -0.41850  -0.41736
 Alpha  occ. eigenvalues --   -0.41565  -0.41556  -0.41356  -0.41171  -0.40908
 Alpha  occ. eigenvalues --   -0.40877  -0.40828  -0.40632  -0.40615  -0.40599
 Alpha  occ. eigenvalues --   -0.40366  -0.40260  -0.40144  -0.39511  -0.39293
 Alpha  occ. eigenvalues --   -0.38513  -0.38220  -0.37779  -0.37561  -0.37362
 Alpha  occ. eigenvalues --   -0.37294  -0.37142  -0.37096  -0.36747  -0.36670
 Alpha  occ. eigenvalues --   -0.36229  -0.36098  -0.34321  -0.34136  -0.33802
 Alpha  occ. eigenvalues --   -0.33765  -0.33220  -0.33058  -0.31344  -0.31180
 Alpha  occ. eigenvalues --   -0.31066  -0.30858  -0.30056  -0.29841  -0.29474
 Alpha  occ. eigenvalues --   -0.29353  -0.29219  -0.29091  -0.24116  -0.23918
 Alpha  occ. eigenvalues --   -0.21161  -0.21000
 Alpha virt. eigenvalues --   -0.08803  -0.08677  -0.01782  -0.01566  -0.00074
 Alpha virt. eigenvalues --    0.00071   0.02170   0.02327   0.03045   0.03333
 Alpha virt. eigenvalues --    0.04684   0.04838   0.05069   0.05261   0.06147

 Mulliken charges:
               1
     1  Mg   0.838082
     2  C   -0.003034
     3  C   -0.094021
     4  C   -0.045901
     5  C   -0.064209
     6  N   -0.256793
     7  C   -0.052565
     8  C   -0.013971
     9  C   -0.087023
    10  C    0.046356
    11  C    0.104784
    12  C    0.053456
    13  C   -0.071809
    14  H    0.036109
    15  N   -0.433259
    16  C    0.168498
    17  C   -0.176956
    18  C   -0.003722
    19  C    0.148700
    20  C    0.110162
    21  C    0.012676
    22  O   -0.249313
    23  C    0.062287
    24  N   -0.341053
    25  C    0.041110
    26  C   -0.028256
    27  C   -0.023925
    28  C    0.074515
    29  C    0.076101
    30  C    0.035245
    31  C   -0.004604
    32  N   -0.310379
    33  C    0.079992
    34  C   -0.170077
    35  C    0.008376
    36  C    0.082608
    37  C    0.127378
    38  C    0.045963
    39  O   -0.188323
    40  C   -0.005251
    41  C    0.212970
    42  O   -0.257394
    43  O   -0.304738
    44  C    0.157623
    45  H   -0.017462
    46  H   -0.016595
    47  H   -0.041646
    48  H    0.001016
    49  H   -0.003987
    50  H    0.025548
    51  H    0.016490
    52  H    0.016743
    53  H    0.011174
    54  H    0.043994
    55  H    0.017961
    56  H    0.017941
    57  H    0.005805
    58  H    0.026973
    59  H    0.039957
    60  H    0.037116
    61  H    0.036323
    62  H    0.032045
    63  H    0.016587
    64  H    0.009653
    65  H    0.023451
    66  H    0.012697
    67  H    0.004832
    68  H    0.006668
    69  H    0.004724
    70  H    0.009072
    71  H    0.016898
    72  H    0.028567
    73  H    0.047420
    74  H    0.008889
    75  H    0.046190
    76  H    0.035275
    77  H    0.043145
    78  H    0.046383
    79  H    0.053729
    80  Mg   0.837844
    81  C   -0.016959
    82  C   -0.088063
    83  C   -0.045651
    84  C   -0.063957
    85  N   -0.254566
    86  C   -0.049753
    87  C   -0.015115
    88  C   -0.090504
    89  C    0.045776
    90  C    0.114463
    91  C    0.062596
    92  C   -0.077748
    93  H    0.034663
    94  N   -0.423398
    95  C    0.162837
    96  C   -0.175057
    97  C   -0.008057
    98  C    0.152031
    99  C    0.099571
   100  C    0.015234
   101  O   -0.253200
   102  C    0.061276
   103  N   -0.349984
   104  C    0.037560
   105  C   -0.019954
   106  C   -0.035117
   107  C    0.088923
   108  C    0.073103
   109  C    0.034629
   110  C   -0.007636
   111  N   -0.324201
   112  C    0.078430
   113  C   -0.162631
   114  C    0.002291
   115  C    0.096337
   116  C    0.131575
   117  C    0.042580
   118  O   -0.187771
   119  C    0.000850
   120  C    0.211223
   121  O   -0.251139
   122  O   -0.305611
   123  C    0.152099
   124  H   -0.020178
   125  H   -0.015593
   126  H   -0.039596
   127  H   -0.000722
   128  H   -0.004643
   129  H    0.022598
   130  H    0.014447
   131  H    0.015811
   132  H    0.013844
   133  H    0.037670
   134  H    0.020707
   135  H    0.019405
   136  H    0.008494
   137  H    0.025504
   138  H    0.039471
   139  H    0.037795
   140  H    0.036141
   141  H    0.033833
   142  H    0.014248
   143  H    0.014208
   144  H    0.025417
   145  H    0.011206
   146  H    0.007096
   147  H    0.006173
   148  H    0.003884
   149  H    0.010824
   150  H    0.017541
   151  H    0.029963
   152  H    0.045737
   153  H    0.008910
   154  H    0.048235
   155  H    0.035103
   156  H    0.043834
   157  H    0.049327
   158  H    0.053492
 Sum of Mulliken charges =  -0.00000

 Dipole moment (field-independent basis, Debye):
    X=              2.0909    Y=              4.4133    Z=             -7.2255  Tot=              8.7211
 Quadrupole moment (field-independent basis, Debye-Ang):
   XX=           -471.5669   YY=           -561.2160   ZZ=           -454.7871
   XY=            -17.6099   XZ=             28.5591   YZ=              1.2329

 Normal termination of Gaussian 16 at Sat Sep 11 16:21:20 2021.
