 Gaussian 16, Revision A.03,
 Gaussian 16:  ES64L-G16RevA.03 25-Dec-2016

 -----------------------------------
 #p cam-b3lyp/Def2SVP td=(nstates=5)
 -----------------------------------

 --------------------------------
 TDDFT excited states in gaussian
 --------------------------------
 Symbolic Z-matrix:
 Charge =  0 Multiplicity = 1

                         Standard orientation:
 ---------------------------------------------------------------------
 Center     Atomic      Atomic             Coordinates (Angstroms)
 Number     Number       Type             X           Y           Z
 ---------------------------------------------------------------------
      1         12           0       15.783015   -0.691954    0.398371
      2          6           0       16.061812    1.992994   -1.952276
      3          6           0       16.760522    1.515429    2.809804
      4          6           0       15.983891   -3.139803    2.404437
      5          6           0       15.940649   -2.881832   -2.308149
      6          7           0       16.313595    1.455668    0.315584
      7          6           0       16.322303    2.383109   -0.636754
      8          6           0       16.560233    3.823936   -0.093818
      9          6           0       17.312689    3.460241    1.263950
     10          6           0       16.735743    2.075206    1.497909
     11          6           0       18.825552    3.342465    1.109429
     12          6           0       15.219530    4.584925    0.180300
     13          6           0       15.357818    6.094471    0.398252
     14          1           0       14.308776    6.972598   -0.097482
     15          7           0       15.819276   -0.730324    2.373229
     16          6           0       16.232317    0.264264    3.195103
     17          6           0       16.066372   -0.249317    4.571831
     18          6           0       15.702647   -1.690564    4.479074
     19          6           0       15.848233   -1.920745    3.064436
     20          6           0       16.202995    0.608576    5.792119
     21          6           0       15.299590   -2.702782    5.504302
     22          8           0       15.252503   -3.953507    5.243451
     23          6           0       15.043478   -2.194453    6.864099
     24          7           0       16.160298   -2.726495    0.122804
     25          6           0       16.133274   -3.579056    1.153043
     26          6           0       16.149014   -5.003562    0.683496
     27          6           0       15.946535   -4.949499   -0.899486
     28          6           0       15.930592   -3.411856   -1.082979
     29          6           0       17.419386   -5.801378    1.008542
     30          6           0       14.774196   -5.774617   -1.487040
     31          6           0       13.455907   -5.183329   -1.040284
     32          7           0       15.789979   -0.511211   -1.764573
     33          6           0       15.884506   -1.554000   -2.697488
     34          6           0       15.959226   -0.933449   -4.032929
     35          6           0       15.919416    0.436574   -3.781341
     36          6           0       15.852227    0.658322   -2.376135
     37          6           0       16.108456   -1.626316   -5.266663
     38          6           0       15.942851    1.765168   -4.371379
     39          8           0       15.899003    2.204088   -5.521562
     40          6           0       16.158867    2.827651   -3.205062
     41          6           0       15.149177    3.926085   -3.398139
     42          8           0       13.929196    3.706096   -3.254553
     43          8           0       15.785320    5.104302   -3.485699
     44          6           0       14.838933    6.240061   -3.648666
     45          1           0       17.282274    2.053649    3.603551
     46          1           0       15.945885   -4.016482    3.054382
     47          1           0       15.906313   -3.503666   -3.204584
     48          1           0       17.201008    4.445394   -0.719614
     49          1           0       17.032072    4.129881    2.076698
     50          1           0       19.124910    3.401047    0.063067
     51          1           0       19.085769    2.369166    1.525925
     52          1           0       19.336761    4.079836    1.728885
     53          1           0       14.832590    4.291271    1.156060
     54          1           0       14.500816    4.400399   -0.618903
     55          1           0       16.337734    6.454500    0.083522
     56          1           0       15.329380    6.288766    1.470465
     57          1           0       16.637084    1.578631    5.553154
     58          1           0       16.941861    0.131459    6.435660
     59          1           0       15.259844    0.711756    6.328919
     60          1           0       15.941658   -1.704097    7.240095
     61          1           0       14.680726   -3.045232    7.439804
     62          1           0       14.272339   -1.425174    6.814055
     63          1           0       15.332940   -5.571137    1.128814
     64          1           0       16.822938   -5.312984   -1.436581
     65          1           0       17.231209   -6.710578    1.580075
     66          1           0       18.105513   -5.141312    1.538478
     67          1           0       18.016260   -6.083559    0.141632
     68          1           0       14.808301   -6.798680   -1.116799
     69          1           0       14.780072   -5.815411   -2.576330
     70          1           0       13.311800   -5.626147   -0.055409
     71          1           0       12.656720   -5.477613   -1.721392
     72          1           0       13.529221   -4.104097   -0.904749
     73          1           0       15.420324   -1.153430   -5.967250
     74          1           0       15.890838   -2.688109   -5.153342
     75          1           0       17.160350   -1.436017   -5.479177
     76          1           0       17.181859    3.191038   -3.297579
     77          1           0       15.130505    6.773528   -4.553449
     78          1           0       14.852956    6.792382   -2.708905
     79          1           0       13.807728    5.977740   -3.887713
     80         12           0      -15.952605    0.461987    0.677264
     81          6           0      -15.857326   -1.939341   -1.987995
     82          6           0      -15.010246    2.812840   -1.607482
     83          6           0      -15.589640    2.505442    3.077255
     84          6           0      -15.761955   -2.210677    2.905764
     85          7           0      -15.520691    0.331298   -1.488062
     86          6           0      -15.577373   -0.621699   -2.406182
     87          6           0      -15.398691   -0.121169   -3.864640
     88          6           0      -14.586699    1.229818   -3.557443
     89          6           0      -15.092080    1.502307   -2.142169
     90          6           0      -13.081889    1.026868   -3.496455
     91          6           0      -16.769904    0.179588   -4.565593
     92          6           0      -16.688272    0.374513   -6.081207
     93          1           0      -17.795338   -0.103188   -6.905033
     94          7           0      -15.864636    2.444616    0.673723
     95          6           0      -15.481934    3.240343   -0.346890
     96          6           0      -15.572201    4.617923    0.161321
     97          6           0      -15.881155    4.561950    1.616011
     98          6           0      -15.767425    3.137162    1.855010
     99          6           0      -15.450735    5.822330   -0.726418
    100          6           0      -16.210305    5.617615    2.627658
    101          8           0      -16.208898    5.369049    3.885050
    102          6           0      -16.442830    6.973326    2.108537
    103          7           0      -15.498125    0.206768    2.689885
    104          6           0      -15.452770    1.257950    3.527076
    105          6           0      -15.381767    0.806366    4.966322
    106          6           0      -15.633818   -0.772560    4.934122
    107          6           0      -15.722146   -0.983619    3.406690
    108          6           0      -14.067513    1.097007    5.690661
    109          6           0      -16.783476   -1.320007    5.823645
    110          6           0      -18.116811   -0.840475    5.296715
    111          7           0      -16.016546   -1.692676    0.531014
    112          6           0      -15.893022   -2.623263    1.585925
    113          6           0      -15.883046   -3.970234    0.979318
    114          6           0      -15.979058   -3.726973   -0.399121
    115          6           0      -16.023923   -2.326536   -0.636306
    116          6           0      -15.745970   -5.199130    1.684406
    117          6           0      -16.041953   -4.336135   -1.708200
    118          8           0      -16.129519   -5.490018   -2.126083
    119          6           0      -15.838486   -3.202390   -2.803460
    120          6           0      -16.901893   -3.374510   -3.853247
    121          8           0      -18.101253   -3.204388   -3.571824
    122          8           0      -16.315834   -3.496746   -5.058221
    123          6           0      -17.330283   -3.658766   -6.133619
    124          1           0      -14.498829    3.579784   -2.189833
    125          1           0      -15.569948    3.163019    3.949424
    126          1           0      -15.804018   -3.098933    3.539728
    127          1           0      -14.810133   -0.772521   -4.499546
    128          1           0      -14.884014    2.030794   -4.229306
    129          1           0      -12.813620   -0.017630   -3.552884
    130          1           0      -12.766358    1.447989   -2.550867
    131          1           0      -12.589544    1.622164   -4.270765
    132          1           0      -17.113801    1.177954   -4.266012
    133          1           0      -17.489620   -0.582397   -4.337501
    134          1           0      -15.729660    0.032314   -6.489760
    135          1           0      -16.703341    1.446078   -6.294577
    136          1           0      -15.060964    5.554749   -1.716310
    137          1           0      -14.674614    6.462219   -0.292786
    138          1           0      -16.380554    6.391099   -0.794245
    139          1           0      -15.559959    7.310391    1.570592
    140          1           0      -16.751581    7.567459    2.970825
    141          1           0      -17.259593    6.933353    1.379199
    142          1           0      -16.159449    1.274401    5.557294
    143          1           0      -14.752197   -1.333017    5.278340
    144          1           0      -14.199613    1.697514    6.610447
    145          1           0      -13.401562    1.598815    5.001286
    146          1           0      -13.490236    0.217491    5.970674
    147          1           0      -16.693541   -0.930726    6.840769
    148          1           0      -16.797703   -2.402570    5.893231
    149          1           0      -18.208216    0.159860    5.730367
    150          1           0      -18.919488   -1.492387    5.635502
    151          1           0      -18.091205   -0.726195    4.206791
    152          1           0      -16.466347   -5.884645    1.258213
    153          1           0      -15.906999   -5.065024    2.752057
    154          1           0      -14.705193   -5.441433    1.453510
    155          1           0      -14.834951   -3.319958   -3.214152
    156          1           0      -17.084556   -4.581534   -6.668221
    157          1           0      -17.302930   -2.717632   -6.714361
    158          1           0      -18.352801   -3.854580   -5.832680
 ---------------------------------------------------------------------

 SCF Done:  E(RCAM-B3LYP) =  -4069.81178910     A.U. after   19 cycles

 Excitation energies and oscillator strengths:

 Excited State   1:      Singlet-A      1.6756 eV  739.95 nm  f=0.3906  <S**2>=0.000
     310 -> 316        0.17358
     312 -> 313        0.68604
     310 <- 316        0.10462
 This state for optimization and/or second-order correction.
 Total Energy, E(TD-HF/TD-DFT) =  -4069.75021245
 Copying the excited state density for this state as the 1-particle RhoCI density.

 Excited State   2:      Singlet-A      1.6799 eV  738.07 nm  f=0.3855  <S**2>=0.000
     309 -> 315        0.17556
     311 -> 314        0.68570
     309 <- 315        0.10514

 Excited State   3:      Singlet-A      2.1861 eV  567.15 nm  f=0.1025  <S**2>=0.000
     310 -> 313        0.64249
     312 -> 316       -0.27308

 Excited State   4:      Singlet-A      2.1926 eV  565.47 nm  f=0.0985  <S**2>=0.000
     309 -> 314        0.64071
     311 -> 315       -0.27832

 Excited State   5:      Singlet-A      3.0660 eV  404.38 nm  f=0.0000  <S**2>=0.000
     311 -> 313        0.70711

 The electronic state is 1-A.
 Alpha  occ. eigenvalues --  -46.87797 -46.87660 -19.26345 -19.26290 -19.19158
 Alpha  occ. eigenvalues --  -19.19025 -19.18813 -19.18715 -19.18172 -19.18050
 Alpha  occ. eigenvalues --  -14.42496 -14.42450 -14.41449 -14.41359 -14.39403
 Alpha  occ. eigenvalues --  -14.39352 -14.38599 -14.38587 -10.39087 -10.39084
 Alpha  occ. eigenvalues --  -10.35446 -10.35392 -10.34392 -10.34227 -10.31751
 Alpha  occ. eigenvalues --  -10.31687 -10.31406 -10.31307 -10.31021 -10.30909
 Alpha  occ. eigenvalues --  -10.30570 -10.30507 -10.30398 -10.30360 -10.30206
 Alpha  occ. eigenvalues --  -10.30142 -10.29920 -10.29895 -10.29631 -10.29436
 Alpha  occ. eigenvalues --  -10.29400 -10.29254 -10.28751 -10.28714 -10.28647
 Alpha  occ. eigenvalues --  -10.28542 -10.28404 -10.28365 -10.28135 -10.28118
 Alpha  occ. eigenvalues --  -10.28000 -10.27793 -10.27727 -10.27667 -10.27584
 Alpha  occ. eigenvalues --  -10.27521 -10.27499 -10.27483 -10.27480 -10.27467
 Alpha  occ. eigenvalues --  -10.27463 -10.27447 -10.27404 -10.27379 -10.27161
 Alpha  occ. eigenvalues --  -10.27048 -10.26707 -10.26687 -10.26416 -10.26407
 Alpha  occ. eigenvalues --  -10.26235 -10.26181 -10.26142 -10.26019 -10.26017
 Alpha  occ. eigenvalues --  -10.25935 -10.25852 -10.25845 -10.25433 -10.25402
 Alpha  occ. eigenvalues --  -10.24872 -10.24833 -10.24787 -10.24736 -10.24690
 Alpha  occ. eigenvalues --  -10.24684  -3.16539  -3.16410  -1.91421  -1.91292
 Alpha  occ. eigenvalues --   -1.91008  -1.90881  -1.90850  -1.90718  -1.16639
 Alpha  occ. eigenvalues --   -1.16638  -1.08657  -1.08630  -1.07214  -1.06968
 Alpha  occ. eigenvalues --   -1.06942  -1.06648  -1.04581  -1.04494  -1.03760
 Alpha  occ. eigenvalues --   -1.03663  -1.03234  -1.03039  -1.02411  -1.02111
 Alpha  occ. eigenvalues --   -0.91986  -0.91973  -0.89519  -0.89496  -0.89189
 Alpha  occ. eigenvalues --   -0.89147  -0.88286  -0.88222  -0.87871  -0.87794
 Alpha  occ. eigenvalues --   -0.87683  -0.87673  -0.87273  -0.87120  -0.84996
 Alpha  occ. eigenvalues --   -0.84983  -0.83935  -0.83878  -0.82965  -0.82932
 Alpha  occ. eigenvalues --   -0.82650  -0.82649  -0.81594  -0.81588  -0.80597
 Alpha  occ. eigenvalues --   -0.80441  -0.78797  -0.78635  -0.77219  -0.77143
 Alpha  occ. eigenvalues --   -0.76936  -0.76896  -0.75925  -0.75836  -0.74897
 Alpha  occ. eigenvalues --   -0.74804  -0.72774  -0.72699  -0.71672  -0.71580
 Alpha  occ. eigenvalues --   -0.69905  -0.69760  -0.68874  -0.68825  -0.67641
 Alpha  occ. eigenvalues --   -0.67601  -0.67221  -0.67197  -0.65288  -0.65269
 Alpha  occ. eigenvalues --   -0.64855  -0.64769  -0.64652  -0.64622  -0.64269
 Alpha  occ. eigenvalues --   -0.64205  -0.62301  -0.62276  -0.60441  -0.60340
 Alpha  occ. eigenvalues --   -0.59805  -0.59793  -0.58992  -0.58988  -0.58504
 Alpha  occ. eigenvalues --   -0.58425  -0.57587  -0.57552  -0.57309  -0.57237
 Alpha  occ. eigenvalues --   -0.56310  -0.56203  -0.55982  -0.55883  -0.55520
 Alpha  occ. eigenvalues --   -0.55451  -0.55340  -0.55248  -0.54525  -0.54488
 Alpha  occ. eigenvalues --   -0.53908  -0.53896  -0.53299  -0.53227  -0.53222
 Alpha  occ. eigenvalues --   -0.53140  -0.52916  -0.52900  -0.52755  -0.52666
 Alpha  occ. eigenvalues --   -0.52437  -0.52404  -0.51916  -0.51886  -0.51656
 Alpha  occ. eigenvalues --   -0.51618  -0.51200  -0.51197  -0.50570  -0.50475
 Alpha  occ. eigenvalues --   -0.50030  -0.49978  -0.49918  -0.49869  -0.49515
 Alpha  occ. eigenvalues --   -0.49486  -0.49215  -0.49200  -0.49102  -0.49097
 Alpha  occ. eigenvalues --   -0.48594  -0.48556  -0.48460  -0.48445  -0.48377
 Alpha  occ. eigenvalues --   -0.48338  -0.47695  -0.47593  -0.47297  -0.47118
 Alpha  occ. eigenvalues --   -0.46797  -0.46708  -0.46556  -0.46551  -0.46359
 Alpha  occ. eigenvalues --   -0.46270  -0.46163  -0.46086  -0.45824  -0.45821
 Alpha  occ. eigenvalues --   -0.45210  -0.45200  -0.44579  -0.44513  -0.44506
 Alpha  occ. eigenvalues --   -0.44474  -0.44144  -0.44125  -0.44089  -0.44078
 Alpha  occ. eigenvalues --   -0.44020  -0.43938  -0.43551  -0.43497  -0.43386
 Alpha  occ. eigenvalues --   -0.43384  -0.43028  -0.42928  -0.42900  -0.42702
 Alpha  occ. eigenvalues --   -0.42655  -0.42555  -0.42009  -0.41964  -0.41705
 Alpha  occ. eigenvalues --   -0.41668  -0.41535  -0.41457  -0.41141  -0.40988
 Alpha  occ. eigenvalues --   -0.40869  -0.40822  -0.40721  -0.40697  -0.40571
 Alpha  occ. eigenvalues --   -0.40494  -0.40236  -0.40223  -0.39439  -0.39428
 Alpha  occ. eigenvalues --   -0.38468  -0.38352  -0.37750  -0.37650  -0.37320
 Alpha  occ. eigenvalues --   -0.37266  -0.37265  -0.37197  -0.36769  -0.36716
 Alpha  occ. eigenvalues --   -0.36217  -0.36194  -0.34286  -0.34253  -0.33859
 Alpha  occ. eigenvalues --   -0.33775  -0.33187  -0.33175  -0.31343  -0.31274
 Alpha  occ. eigenvalues --   -0.31036  -0.30972  -0.30031  -0.29954  -0.29449
 Alpha  occ. eigenvalues --   -0.29327  -0.29322  -0.29211  -0.24081  -0.24036
 Alpha  occ. eigenvalues --   -0.21128  -0.21117
 Alpha virt. eigenvalues --   -0.08792  -0.08774  -0.01749  -0.01684  -0.00057
 Alpha virt. eigenvalues --   -0.00028   0.02199   0.02207   0.03122   0.03227
 Alpha virt. eigenvalues --    0.04717   0.04732   0.05094   0.05168   0.06174

 Mulliken charges:
               1
     1  Mg   0.838755
     2  C   -0.002969
     3  C   -0.094117
     4  C   -0.045850
     5  C   -0.063959
     6  N   -0.256776
     7  C   -0.052483
     8  C   -0.014020
     9  C   -0.087023
    10  C    0.046331
    11  C    0.104817
    12  C    0.053463
    13  C   -0.071790
    14  H    0.036076
    15  N   -0.433160
    16  C    0.168430
    17  C   -0.177136
    18  C   -0.003979
    19  C    0.148704
    20  C    0.110168
    21  C    0.012286
    22  O   -0.249587
    23  C    0.062477
    24  N   -0.341152
    25  C    0.041260
    26  C   -0.028187
    27  C   -0.023981
    28  C    0.074843
    29  C    0.076168
    30  C    0.035128
    31  C   -0.004509
    32  N   -0.310460
    33  C    0.080403
    34  C   -0.169725
    35  C    0.008340
    36  C    0.082979
    37  C    0.127318
    38  C    0.046097
    39  O   -0.188501
    40  C   -0.005320
    41  C    0.212849
    42  O   -0.257121
    43  O   -0.304785
    44  C    0.157709
    45  H   -0.017592
    46  H   -0.016809
    47  H   -0.041491
    48  H    0.000924
    49  H   -0.004029
    50  H    0.025465
    51  H    0.016462
    52  H    0.016663
    53  H    0.011222
    54  H    0.044101
    55  H    0.017870
    56  H    0.017969
    57  H    0.005876
    58  H    0.026848
    59  H    0.039580
    60  H    0.037350
    61  H    0.035689
    62  H    0.031510
    63  H    0.016582
    64  H    0.009463
    65  H    0.023241
    66  H    0.012544
    67  H    0.004758
    68  H    0.006395
    69  H    0.004721
    70  H    0.008807
    71  H    0.018150
    72  H    0.028959
    73  H    0.047530
    74  H    0.009118
    75  H    0.046001
    76  H    0.035144
    77  H    0.042913
    78  H    0.046410
    79  H    0.053645
    80  Mg   0.837858
    81  C   -0.016808
    82  C   -0.087759
    83  C   -0.045500
    84  C   -0.064898
    85  N   -0.254564
    86  C   -0.049852
    87  C   -0.015089
    88  C   -0.090501
    89  C    0.045749
    90  C    0.114360
    91  C    0.062515
    92  C   -0.077920
    93  H    0.034910
    94  N   -0.423518
    95  C    0.162916
    96  C   -0.174589
    97  C   -0.007806
    98  C    0.152108
    99  C    0.099347
   100  C    0.015556
   101  O   -0.253204
   102  C    0.061195
   103  N   -0.350056
   104  C    0.037527
   105  C   -0.019830
   106  C   -0.034820
   107  C    0.088915
   108  C    0.073659
   109  C    0.034739
   110  C   -0.007674
   111  N   -0.324105
   112  C    0.078459
   113  C   -0.163144
   114  C    0.002246
   115  C    0.096190
   116  C    0.131487
   117  C    0.042390
   118  O   -0.187857
   119  C    0.000932
   120  C    0.211239
   121  O   -0.251028
   122  O   -0.305605
   123  C    0.152025
   124  H   -0.019590
   125  H   -0.015596
   126  H   -0.040476
   127  H   -0.000596
   128  H   -0.004288
   129  H    0.022492
   130  H    0.014430
   131  H    0.016387
   132  H    0.013909
   133  H    0.037660
   134  H    0.020846
   135  H    0.019619
   136  H    0.008816
   137  H    0.026174
   138  H    0.039804
   139  H    0.038278
   140  H    0.036375
   141  H    0.033908
   142  H    0.014380
   143  H    0.012418
   144  H    0.025106
   145  H    0.011665
   146  H    0.005668
   147  H    0.006237
   148  H    0.003642
   149  H    0.010923
   150  H    0.017920
   151  H    0.030125
   152  H    0.046002
   153  H    0.008489
   154  H    0.046963
   155  H    0.035084
   156  H    0.043938
   157  H    0.049526
   158  H    0.053566
 Sum of Mulliken charges =  -0.00000

 Dipole moment (field-independent basis, Debye):
    X=              4.2053    Y=              4.9387    Z=              2.3887  Tot=              6.9124
 Quadrupole moment (field-independent basis, Debye-Ang):
   XX=           -517.3850   YY=           -500.2752   ZZ=           -498.6692
   XY=            -36.4079   XZ=             82.2667   YZ=              0.3691

 Normal termination of Gaussian 16 at Sat Sep  4 21:02:22 2021.
