 Gaussian 16, Revision A.03,
 Gaussian 16:  ES64L-G16RevA.03 25-Dec-2016

 -----------------------------------
 #p cam-b3lyp/Def2SVP td=(nstates=5)
 -----------------------------------

 --------------------------------
 TDDFT excited states in gaussian
 --------------------------------
 Symbolic Z-matrix:
 Charge =  0 Multiplicity = 1

                         Standard orientation:
 ---------------------------------------------------------------------
 Center     Atomic      Atomic             Coordinates (Angstroms)
 Number     Number       Type             X           Y           Z
 ---------------------------------------------------------------------
      1         12           0        7.853847   -0.714113    0.220873
      2          6           0        8.109960    2.521376   -1.288506
      3          6           0        8.616246    0.776590    3.194023
      4          6           0        8.080577   -3.611033    1.490941
      5          6           0        8.236569   -2.068978   -2.967155
      6          7           0        8.284996    1.389976    0.757124
      7          6           0        8.292353    2.543255    0.096015
      8          6           0        8.436982    3.786400    1.023942
      9          6           0        9.144200    3.088760    2.270994
     10          6           0        8.623779    1.674320    2.085394
     11          6           0       10.666356    3.068572    2.175420
     12          6           0        7.050701    4.397508    1.419543
     13          6           0        7.107215    5.792704    2.048502
     14          1           0        6.040941    6.737757    1.753064
     15          7           0        7.803266   -1.292713    2.109130
     16          6           0        8.131315   -0.549196    3.193036
     17          6           0        7.928363   -1.426727    4.365824
     18          6           0        7.638033   -2.798241    3.863078
     19          6           0        7.857698   -2.625637    2.449808
     20          6           0        7.969205   -0.933320    5.779553
     21          6           0        7.237928   -4.066183    4.548913
     22          8           0        7.262050   -5.197844    3.954492
     23          6           0        6.897221   -3.960131    5.979198
     24          7           0        8.339324   -2.580720   -0.577706
     25          6           0        8.306639   -3.684076    0.177622
     26          6           0        8.411071   -4.923247   -0.661121
     27          6           0        8.277465   -4.442853   -2.178067
     28          6           0        8.196751   -2.915439   -1.935658
     29          6           0        9.702043   -5.736816   -0.495273
     30          6           0        7.173179   -5.113295   -3.033332
     31          6           0        5.809581   -4.711965   -2.516967
     32          7           0        7.949235    0.054444   -1.806752
     33          6           0        8.134940   -0.687918   -2.981949
     34          6           0        8.239930    0.278002   -4.091021
     35          6           0        8.123844    1.523941   -3.477828
     36          6           0        7.983231    1.348444   -2.071513
     37          6           0        8.477093   -0.043595   -5.456584
     38          6           0        8.110589    2.963568   -3.680698
     39          8           0        8.097581    3.700072   -4.668061
     40          6           0        8.223359    3.671050   -2.258524
     41          6           0        7.172312    4.745898   -2.200966
     42          8           0        5.958946    4.454316   -2.191601
     43          8           0        7.755060    5.923337   -1.927865
     44          6           0        6.764058    7.027885   -1.827649
     45          1           0        9.075713    1.092952    4.132504
     46          1           0        8.055139   -4.633377    1.873830
     47          1           0        8.272054   -2.421182   -3.999699
     48          1           0        9.074941    4.576987    0.628462
     49          1           0        8.795917    3.499394    3.218518
     50          1           0       11.009230    3.422528    1.203271
     51          1           0       10.953565    2.027523    2.324488
     52          1           0       11.113662    3.623860    3.000253
     53          1           0        6.634766    3.834162    2.254828
     54          1           0        6.378137    4.415931    0.561263
     55          1           0        8.082054    6.257887    1.899495
     56          1           0        7.021512    5.683669    3.129689
     57          1           0        8.367010    0.078980    5.839098
     58          1           0        8.700287   -1.544039    6.308940
     59          1           0        6.999090   -1.013239    6.270288
     60          1           0        7.753325   -3.562345    6.524543
     61          1           0        6.549830   -4.948018    6.279614
     62          1           0        6.093434   -3.232925    6.097717
     63          1           0        7.603724   -5.618292   -0.434120
     64          1           0        9.193354   -4.615205   -2.743855
     65          1           0        9.531818   -6.773864   -0.204998
     66          1           0       10.331581   -5.225359    0.232316
     67          1           0       10.349933   -5.749698   -1.371338
     68          1           0        7.239246   -6.197953   -2.955237
     69          1           0        7.229844   -4.852822   -4.090306
     70          1           0        5.642637   -5.413041   -1.699989
     71          1           0        5.056633   -4.834160   -3.296293
     72          1           0        5.825396   -3.709761   -2.088220
     73          1           0        7.799396    0.580434   -6.039064
     74          1           0        8.305290   -1.102276   -5.649673
     75          1           0        9.527234    0.232798   -5.549689
     76          1           0        9.231055    4.079806   -2.190779
     77          1           0        7.070254    7.798968   -2.534692
     78          1           0        6.709660    7.300705   -0.773602
     79          1           0        5.758239    6.807124   -2.186721
     80         12           0       -8.017738   -0.730526   -0.368655
     81          6           0       -7.858038    2.666832    0.776562
     82          6           0       -7.258912   -1.683014    2.817496
     83          6           0       -7.707163   -3.702036   -1.436864
     84          6           0       -7.629571    0.489968   -3.609857
     85          7           0       -7.632048    0.434186    1.471720
     86          6           0       -7.659620    1.717018    1.800234
     87          6           0       -7.543552    1.993570    3.323258
     88          6           0       -6.798210    0.639024    3.757501
     89          6           0       -7.283054   -0.277140    2.635783
     90          6           0       -5.283636    0.732951    3.676458
     91          6           0       -8.945548    2.125006    4.015446
     92          6           0       -8.911302    2.698869    5.433634
     93          1           0      -10.010702    3.558597    5.863350
     94          7           0       -8.036682   -2.456117    0.611406
     95          6           0       -7.722217   -2.659004    1.908023
     96          6           0       -7.874120   -4.104150    2.137485
     97          6           0       -8.144247   -4.760914    0.829665
     98          6           0       -7.948264   -3.643437   -0.071951
     99          6           0       -7.839206   -4.718750    3.506599
    100          6           0       -8.505098   -6.165625    0.451790
    101          8           0       -8.459832   -6.568586   -0.764099
    102          6           0       -8.822755   -7.080949    1.557585
    103          7           0       -7.501513   -1.515374   -2.223344
    104          6           0       -7.492486   -2.843361   -2.433808
    105          6           0       -7.362407   -3.161732   -3.904221
    106          6           0       -7.529843   -1.763901   -4.662919
    107          6           0       -7.643703   -0.825207   -3.441731
    108          6           0       -6.048521   -3.817028   -4.329294
    109          6           0       -8.626477   -1.685623   -5.760157
    110          6           0       -9.996065   -1.796665   -5.129867
    111          7           0       -7.969171    1.217607   -1.301659
    112          6           0       -7.770201    1.503216   -2.670207
    113          6           0       -7.702478    2.972989   -2.802851
    114          6           0       -7.844844    3.443470   -1.488757
    115          6           0       -7.970740    2.343875   -0.597393
    116          6           0       -7.482433    3.689790   -4.012767
    117          6           0       -7.906592    4.619989   -0.651673
    118          8           0       -7.942053    5.832313   -0.858413
    119          6           0       -7.791043    4.166137    0.867227
    120          6           0       -8.868796    4.869836    1.645543
    121          8           0      -10.068401    4.625199    1.427096
    122          8           0       -8.306405    5.548971    2.661839
    123          6           0       -9.336438    6.254787    3.469722
    124          1           0       -6.803772   -2.081146    3.724820
    125          1           0       -7.701726   -4.704035   -1.872115
    126          1           0       -7.608391    0.951804   -4.599272
    127          1           0       -6.936362    2.852100    3.584072
    128          1           0       -7.154394    0.283603    4.720914
    129          1           0       -4.960986    1.659758    3.225817
    130          1           0       -4.968375   -0.109878    3.075381
    131          1           0       -4.842946    0.579289    4.665657
    132          1           0       -9.335302    1.121243    4.228288
    133          1           0       -9.617474    2.700524    3.408883
    134          1           0       -7.945858    3.164157    5.666820
    135          1           0       -8.989179    1.872513    6.144342
    136          1           0       -7.459715   -4.012271    4.255108
    137          1           0       -7.088356   -5.515872    3.480210
    138          1           0       -8.799652   -5.147547    3.800438
    139          1           0       -7.972607   -7.140057    2.233017
    140          1           0       -9.142035   -8.011441    1.084166
    141          1           0       -9.653623   -6.658577    2.133666
    142          1           0       -8.149593   -3.832591   -4.225761
    143          1           0       -6.611267   -1.476751   -5.195440
    144          1           0       -6.190401   -4.787541   -4.841195
    145          1           0       -5.427454   -3.937272   -3.451597
    146          1           0       -5.418143   -3.210151   -4.977001
    147          1           0       -8.532973   -2.528106   -6.449827
    148          1           0       -8.580750   -0.777898   -6.352551
    149          1           0      -10.130620   -2.876972   -5.020685
    150          1           0      -10.754052   -1.368496   -5.782684
    151          1           0      -10.003078   -1.360314   -4.124280
    152          1           0       -8.174994    4.520971   -4.012584
    153          1           0       -7.624500    3.053120   -4.883535
    154          1           0       -6.436017    3.977872   -3.881235
    155          1           0       -6.792895    4.435567    1.214612
    156          1           0       -9.054453    7.311945    3.493787
    157          1           0       -9.373861    5.721266    4.438082
    158          1           0      -10.339347    6.312617    3.063163
 ---------------------------------------------------------------------

 SCF Done:  E(RCAM-B3LYP) =  -4069.81172934     A.U. after   19 cycles

 Excitation energies and oscillator strengths:

 Excited State   1:      Singlet-A      1.6716 eV  741.71 nm  f=0.1283  <S**2>=0.000
     310 -> 316        0.14202
     311 -> 313       -0.38989
     312 -> 314        0.56470
 This state for optimization and/or second-order correction.
 Total Energy, E(TD-HF/TD-DFT) =  -4069.75029914
 Copying the excited state density for this state as the 1-particle RhoCI density.

 Excited State   2:      Singlet-A      1.6832 eV  736.59 nm  f=0.6238  <S**2>=0.000
     309 -> 315        0.14506
     311 -> 313        0.56406
     312 -> 314        0.38956

 Excited State   3:      Singlet-A      2.1858 eV  567.23 nm  f=0.0788  <S**2>=0.000
     309 -> 313       -0.10162
     310 -> 314        0.63450
     312 -> 316       -0.26959

 Excited State   4:      Singlet-A      2.1923 eV  565.55 nm  f=0.1180  <S**2>=0.000
     309 -> 313        0.63266
     310 -> 314        0.10087
     311 -> 315       -0.27469

 Excited State   5:      Singlet-A      2.7655 eV  448.32 nm  f=0.0000  <S**2>=0.000
     312 -> 313        0.70710

 The electronic state is 1-A.
 Alpha  occ. eigenvalues --  -46.87834 -46.87591 -19.26310 -19.26285 -19.19115
 Alpha  occ. eigenvalues --  -19.19027 -19.18869 -19.18653 -19.18195 -19.17984
 Alpha  occ. eigenvalues --  -14.42485 -14.42431 -14.41486 -14.41288 -14.39442
 Alpha  occ. eigenvalues --  -14.39284 -14.38622 -14.38529 -10.39088 -10.39043
 Alpha  occ. eigenvalues --  -10.35504 -10.35331 -10.34414 -10.34162 -10.31728
 Alpha  occ. eigenvalues --  -10.31667 -10.31437 -10.31243 -10.30963 -10.30945
 Alpha  occ. eigenvalues --  -10.30604 -10.30544 -10.30326 -10.30291 -10.30247
 Alpha  occ. eigenvalues --  -10.30069 -10.29955 -10.29819 -10.29669 -10.29367
 Alpha  occ. eigenvalues --  -10.29331 -10.29295 -10.28775 -10.28672 -10.28633
 Alpha  occ. eigenvalues --  -10.28552 -10.28401 -10.28338 -10.28145 -10.28090
 Alpha  occ. eigenvalues --  -10.27930 -10.27830 -10.27763 -10.27626 -10.27604
 Alpha  occ. eigenvalues --  -10.27536 -10.27535 -10.27485 -10.27437 -10.27437
 Alpha  occ. eigenvalues --  -10.27417 -10.27412 -10.27398 -10.27297 -10.27179
 Alpha  occ. eigenvalues --  -10.26989 -10.26728 -10.26656 -10.26482 -10.26362
 Alpha  occ. eigenvalues --  -10.26260 -10.26218 -10.26062 -10.26056 -10.25974
 Alpha  occ. eigenvalues --  -10.25873 -10.25860 -10.25756 -10.25468 -10.25310
 Alpha  occ. eigenvalues --  -10.24868 -10.24825 -10.24801 -10.24724 -10.24663
 Alpha  occ. eigenvalues --  -10.24620  -3.16577  -3.16341  -1.91458  -1.91223
 Alpha  occ. eigenvalues --   -1.91045  -1.90887  -1.90812  -1.90649  -1.16635
 Alpha  occ. eigenvalues --   -1.16602  -1.08651  -1.08592  -1.07271  -1.06906
 Alpha  occ. eigenvalues --   -1.06899  -1.06649  -1.04616  -1.04430  -1.03797
 Alpha  occ. eigenvalues --   -1.03594  -1.03271  -1.02967  -1.02447  -1.02041
 Alpha  occ. eigenvalues --   -0.92003  -0.91921  -0.89555  -0.89423  -0.89216
 Alpha  occ. eigenvalues --   -0.89100  -0.88322  -0.88147  -0.87904  -0.87717
 Alpha  occ. eigenvalues --   -0.87707  -0.87619  -0.87322  -0.87057  -0.85012
 Alpha  occ. eigenvalues --   -0.84946  -0.83970  -0.83804  -0.83019  -0.82870
 Alpha  occ. eigenvalues --   -0.82680  -0.82597  -0.81605  -0.81540  -0.80627
 Alpha  occ. eigenvalues --   -0.80383  -0.78840  -0.78569  -0.77252  -0.77084
 Alpha  occ. eigenvalues --   -0.76958  -0.76841  -0.75948  -0.75782  -0.74930
 Alpha  occ. eigenvalues --   -0.74732  -0.72809  -0.72628  -0.71704  -0.71515
 Alpha  occ. eigenvalues --   -0.69942  -0.69685  -0.68905  -0.68772  -0.67677
 Alpha  occ. eigenvalues --   -0.67537  -0.67253  -0.67150  -0.65315  -0.65217
 Alpha  occ. eigenvalues --   -0.64883  -0.64705  -0.64649  -0.64595  -0.64304
 Alpha  occ. eigenvalues --   -0.64133  -0.62314  -0.62223  -0.60486  -0.60273
 Alpha  occ. eigenvalues --   -0.59835  -0.59739  -0.59020  -0.58925  -0.58536
 Alpha  occ. eigenvalues --   -0.58360  -0.57607  -0.57494  -0.57342  -0.57168
 Alpha  occ. eigenvalues --   -0.56345  -0.56138  -0.55993  -0.55837  -0.55560
 Alpha  occ. eigenvalues --   -0.55394  -0.55367  -0.55180  -0.54546  -0.54426
 Alpha  occ. eigenvalues --   -0.53923  -0.53862  -0.53338  -0.53256  -0.53162
 Alpha  occ. eigenvalues --   -0.53085  -0.52942  -0.52846  -0.52800  -0.52613
 Alpha  occ. eigenvalues --   -0.52473  -0.52330  -0.51945  -0.51801  -0.51649
 Alpha  occ. eigenvalues --   -0.51607  -0.51225  -0.51137  -0.50628  -0.50417
 Alpha  occ. eigenvalues --   -0.50068  -0.49962  -0.49921  -0.49796  -0.49551
 Alpha  occ. eigenvalues --   -0.49430  -0.49248  -0.49142  -0.49124  -0.49045
 Alpha  occ. eigenvalues --   -0.48618  -0.48503  -0.48499  -0.48479  -0.48304
 Alpha  occ. eigenvalues --   -0.48279  -0.47729  -0.47535  -0.47333  -0.47054
 Alpha  occ. eigenvalues --   -0.46830  -0.46644  -0.46584  -0.46501  -0.46393
 Alpha  occ. eigenvalues --   -0.46203  -0.46191  -0.46015  -0.45844  -0.45758
 Alpha  occ. eigenvalues --   -0.45236  -0.45136  -0.44605  -0.44547  -0.44454
 Alpha  occ. eigenvalues --   -0.44417  -0.44181  -0.44119  -0.44068  -0.44052
 Alpha  occ. eigenvalues --   -0.44013  -0.43880  -0.43516  -0.43498  -0.43418
 Alpha  occ. eigenvalues --   -0.43325  -0.43058  -0.42878  -0.42836  -0.42723
 Alpha  occ. eigenvalues --   -0.42675  -0.42484  -0.42040  -0.41902  -0.41735
 Alpha  occ. eigenvalues --   -0.41604  -0.41563  -0.41403  -0.41173  -0.40926
 Alpha  occ. eigenvalues --   -0.40902  -0.40870  -0.40668  -0.40643  -0.40604
 Alpha  occ. eigenvalues --   -0.40424  -0.40261  -0.40184  -0.39476  -0.39353
 Alpha  occ. eigenvalues --   -0.38502  -0.38281  -0.37774  -0.37607  -0.37355
 Alpha  occ. eigenvalues --   -0.37293  -0.37197  -0.37141  -0.36729  -0.36721
 Alpha  occ. eigenvalues --   -0.36216  -0.36153  -0.34321  -0.34185  -0.33812
 Alpha  occ. eigenvalues --   -0.33783  -0.33220  -0.33107  -0.31398  -0.31212
 Alpha  occ. eigenvalues --   -0.31071  -0.30906  -0.30054  -0.29889  -0.29491
 Alpha  occ. eigenvalues --   -0.29357  -0.29260  -0.29139  -0.24116  -0.23967
 Alpha  occ. eigenvalues --   -0.21164  -0.21048
 Alpha virt. eigenvalues --   -0.08812  -0.08723  -0.01788  -0.01615  -0.00101
 Alpha virt. eigenvalues --    0.00034   0.02168   0.02278   0.03079   0.03289
 Alpha virt. eigenvalues --    0.04688   0.04791   0.05087   0.05214   0.06158

 Mulliken charges:
               1
     1  Mg   0.838643
     2  C   -0.002923
     3  C   -0.094201
     4  C   -0.045946
     5  C   -0.063975
     6  N   -0.256790
     7  C   -0.052411
     8  C   -0.013994
     9  C   -0.086986
    10  C    0.046297
    11  C    0.104806
    12  C    0.053500
    13  C   -0.071944
    14  H    0.036566
    15  N   -0.433118
    16  C    0.168308
    17  C   -0.177277
    18  C   -0.004164
    19  C    0.148654
    20  C    0.110198
    21  C    0.012094
    22  O   -0.249676
    23  C    0.062589
    24  N   -0.341153
    25  C    0.041242
    26  C   -0.028189
    27  C   -0.023990
    28  C    0.074886
    29  C    0.076160
    30  C    0.035114
    31  C   -0.004492
    32  N   -0.310521
    33  C    0.080501
    34  C   -0.169677
    35  C    0.008457
    36  C    0.083012
    37  C    0.127297
    38  C    0.046193
    39  O   -0.188144
    40  C   -0.005329
    41  C    0.212925
    42  O   -0.257047
    43  O   -0.304835
    44  C    0.157558
    45  H   -0.017622
    46  H   -0.016901
    47  H   -0.041414
    48  H    0.001089
    49  H   -0.004082
    50  H    0.025551
    51  H    0.016413
    52  H    0.016698
    53  H    0.010961
    54  H    0.044228
    55  H    0.017961
    56  H    0.017796
    57  H    0.005910
    58  H    0.026817
    59  H    0.039095
    60  H    0.037448
    61  H    0.035402
    62  H    0.031062
    63  H    0.016485
    64  H    0.009545
    65  H    0.023203
    66  H    0.012554
    67  H    0.004824
    68  H    0.006445
    69  H    0.004796
    70  H    0.008726
    71  H    0.018191
    72  H    0.028892
    73  H    0.047674
    74  H    0.009124
    75  H    0.046124
    76  H    0.035242
    77  H    0.043151
    78  H    0.046422
    79  H    0.053973
    80  Mg   0.838050
    81  C   -0.016852
    82  C   -0.087863
    83  C   -0.045451
    84  C   -0.064467
    85  N   -0.254550
    86  C   -0.049767
    87  C   -0.015094
    88  C   -0.090547
    89  C    0.045791
    90  C    0.114406
    91  C    0.062588
    92  C   -0.077738
    93  H    0.034673
    94  N   -0.423505
    95  C    0.162884
    96  C   -0.174687
    97  C   -0.007838
    98  C    0.152104
    99  C    0.099401
   100  C    0.015532
   101  O   -0.253223
   102  C    0.061221
   103  N   -0.349999
   104  C    0.037602
   105  C   -0.019907
   106  C   -0.034896
   107  C    0.088914
   108  C    0.073568
   109  C    0.034724
   110  C   -0.007653
   111  N   -0.324170
   112  C    0.078482
   113  C   -0.162831
   114  C    0.002333
   115  C    0.096247
   116  C    0.131435
   117  C    0.042571
   118  O   -0.187863
   119  C    0.000846
   120  C    0.211197
   121  O   -0.251087
   122  O   -0.305632
   123  C    0.152086
   124  H   -0.019896
   125  H   -0.015597
   126  H   -0.040161
   127  H   -0.000787
   128  H   -0.004633
   129  H    0.022675
   130  H    0.014760
   131  H    0.015717
   132  H    0.013895
   133  H    0.037677
   134  H    0.020584
   135  H    0.019436
   136  H    0.008548
   137  H    0.026128
   138  H    0.039584
   139  H    0.038254
   140  H    0.036278
   141  H    0.033766
   142  H    0.014247
   143  H    0.012918
   144  H    0.024932
   145  H    0.011818
   146  H    0.006087
   147  H    0.006245
   148  H    0.003795
   149  H    0.010829
   150  H    0.017840
   151  H    0.030031
   152  H    0.045851
   153  H    0.008593
   154  H    0.047752
   155  H    0.035169
   156  H    0.043768
   157  H    0.049318
   158  H    0.053544
 Sum of Mulliken charges =  -0.00000

 Dipole moment (field-independent basis, Debye):
    X=              3.7659    Y=             -2.1748    Z=              7.2653  Tot=              8.4673
 Quadrupole moment (field-independent basis, Debye-Ang):
   XX=           -517.9810   YY=           -537.2818   ZZ=           -461.6861
   XY=             26.2627   XZ=              5.6023   YZ=             35.0851

 Normal termination of Gaussian 16 at Sat Sep  4 15:11:46 2021.
