 Gaussian 16, Revision A.03,
 Gaussian 16:  ES64L-G16RevA.03 25-Dec-2016

 -----------------------------------
 #p cam-b3lyp/Def2SVP td=(nstates=5)
 -----------------------------------

 --------------------------------
 TDDFT excited states in gaussian
 --------------------------------
 Symbolic Z-matrix:
 Charge =  0 Multiplicity = 1

                         Standard orientation:
 ---------------------------------------------------------------------
 Center     Atomic      Atomic             Coordinates (Angstroms)
 Number     Number       Type             X           Y           Z
 ---------------------------------------------------------------------
      1         12           0        6.758372   -0.561019    0.667157
      2          6           0        7.101797    2.410886   -1.298055
      3          6           0        7.351019    1.368387    3.418380
      4          6           0        6.910819   -3.230554    2.372138
      5          6           0        7.321298   -2.379395   -2.252137
      6          7           0        7.159429    1.603394    0.901932
      7          6           0        7.205054    2.643419    0.075230
      8          6           0        7.297280    4.013752    0.810796
      9          6           0        7.931947    3.518521    2.187002
     10          6           0        7.422169    2.088120    2.188764
     11          6           0        9.457064    3.496421    2.181557
     12          6           0        5.891052    4.666437    1.030469
     13          6           0        5.912416    6.141129    1.442996
     14          1           0        4.865214    7.021962    0.948171
     15          7           0        6.600016   -0.847720    2.615381
     16          6           0        6.866208    0.053829    3.590900
     17          6           0        6.596313   -0.637813    4.869755
     18          6           0        6.334339   -2.071896    4.565011
     19          6           0        6.634231   -2.113288    3.156562
     20          6           0        6.556844    0.064081    6.192455
     21          6           0        5.895131   -3.224699    5.411341
     22          8           0        5.952450   -4.433021    4.997522
     23          6           0        5.473577   -2.906272    6.787546
     24          7           0        7.287522   -2.522956    0.189206
     25          6           0        7.211271   -3.499588    1.099897
     26          6           0        7.362624   -4.850487    0.465783
     27          6           0        7.315892   -4.606182   -1.111520
     28          6           0        7.222336   -3.060379   -1.108225
     29          6           0        8.641612   -5.619138    0.825473
     30          6           0        6.261741   -5.407192   -1.916236
     31          6           0        4.871167   -4.943414   -1.544332
     32          7           0        6.969502   -0.107272   -1.444852
     33          6           0        7.221430   -1.017333   -2.481672
     34          6           0        7.389940   -0.229475   -3.716561
     35          6           0        7.239801    1.093902   -3.306712
     36          6           0        7.019228    1.132021   -1.900232
     37          6           0        7.704315   -0.752008   -5.002082
     38          6           0        7.238907    2.486120   -3.725740
     39          8           0        7.282554    3.064664   -4.812420
     40          6           0        7.270884    3.401478   -2.423079
     41          6           0        6.218852    4.464127   -2.588353
     42          8           0        5.006763    4.167512   -2.603349
     43          8           0        6.785743    5.674003   -2.464350
     44          6           0        5.791245    6.772948   -2.588641
     45          1           0        7.756464    1.826775    4.322501
     46          1           0        6.863058   -4.183388    2.903425
     47          1           0        7.415338   -2.883437   -3.215751
     48          1           0        7.957158    4.740553    0.336723
     49          1           0        7.530490    4.064928    3.040227
     50          1           0        9.854940    3.702012    1.187903
     51          1           0        9.734749    2.492258    2.502557
     52          1           0        9.856971    4.173689    2.936646
     53          1           0        5.427914    4.232578    1.916657
     54          1           0        5.268471    4.549378    0.142766
     55          1           0        6.894412    6.586290    1.280440
     56          1           0        5.765217    6.196208    2.521652
     57          1           0        6.951165    1.076923    6.120299
     58          1           0        7.256257   -0.453598    6.848611
     59          1           0        5.560311    0.051469    6.634151
     60          1           0        6.297450   -2.423659    7.313728
     61          1           0        5.109102   -3.840125    7.214073
     62          1           0        4.664743   -2.176031    6.749033
     63          1           0        6.543281   -5.509704    0.749569
     64          1           0        8.262422   -4.854721   -1.592126
     65          1           0        8.454565   -6.601687    1.259428
     66          1           0        9.228969   -4.998431    1.501510
     67          1           0        9.338337   -5.759151   -0.000595
     68          1           0        6.322661   -6.466985   -1.671138
     69          1           0        6.378653   -5.309152   -2.995574
     70          1           0        4.657583   -5.514168   -0.641308
     71          1           0        4.163759   -5.188175   -2.337349
     72          1           0        4.863086   -3.887793   -1.272146
     73          1           0        7.061232   -0.228771   -5.709638
     74          1           0        7.543210   -1.829068   -5.041946
     75          1           0        8.758204   -0.484394   -5.076626
     76          1           0        8.273309    3.823915   -2.361333
     77          1           0        6.137632    7.430657   -3.385929
     78          1           0        5.677054    7.201621   -1.592848
     79          1           0        4.807388    6.492283   -2.966256
     80         12           0       -6.405745   -0.750628   -0.560861
     81          6           0       -8.816524    1.584753    0.709259
     82          6           0       -4.748105    1.915029   -1.895447
     83          6           0       -4.517852   -2.806586   -2.069611
     84          6           0       -8.801163   -3.245041   -0.130053
     85          7           0       -6.826630    1.420567   -0.528650
     86          6           0       -7.738209    2.197187    0.037241
     87          6           0       -7.436748    3.716955   -0.057424
     88          6           0       -6.488780    3.693799   -1.353459
     89          6           0       -5.955287    2.267146   -1.240600
     90          6           0       -7.253753    3.815645   -2.660867
     91          6           0       -6.672937    4.254496    1.203392
     92          6           0       -6.618660    5.779298    1.320749
     93          1           0       -6.680854    6.377627    2.651391
     94          7           0       -4.615738   -0.489842   -1.377218
     95          6           0       -4.094567    0.664197   -1.843958
     96          6           0       -2.760767    0.322732   -2.362174
     97          6           0       -2.603031   -1.156267   -2.313258
     98          6           0       -3.943244   -1.551730   -1.929159
     99          6           0       -1.754322    1.360829   -2.765732
    100          6           0       -1.441981   -2.065146   -2.581772
    101          8           0       -1.593677   -3.331407   -2.709895
    102          6           0       -0.136674   -1.419270   -2.783018
    103          7           0       -6.692192   -2.697616   -1.231325
    104          6           0       -5.690880   -3.384123   -1.809275
    105          6           0       -6.045057   -4.844628   -1.957130
    106          6           0       -7.402355   -5.042926   -1.134937
    107          6           0       -7.656623   -3.580095   -0.709661
    108          6           0       -6.241246   -5.339833   -3.389842
    109          6           0       -7.406541   -6.142884   -0.038228
    110          6           0       -6.482155   -5.749048    1.091271
    111          7           0       -8.372579   -0.882192    0.323623
    112          6           0       -9.211521   -2.017013    0.372886
    113          6           0      -10.492173   -1.586095    0.970088
    114          6           0      -10.316254   -0.214553    1.207556
    115          6           0       -9.024971    0.185586    0.769411
    116          6           0      -11.632406   -2.412180    1.178838
    117          6           0      -10.933185    0.987954    1.719506
    118          8           0      -11.986803    1.243879    2.301000
    119          6           0      -10.036266    2.232526    1.303605
    120          6           0       -9.848114    3.096708    2.520276
    121          8           0       -9.210362    2.676283    3.501662
    122          8           0      -10.261584    4.346356    2.241367
    123          6           0      -10.084670    5.243693    3.414109
    124          1           0       -4.276163    2.652511   -2.545269
    125          1           0       -3.866618   -3.579665   -2.483987
    126          1           0       -9.563071   -3.983715    0.127866
    127          1           0       -8.302869    4.341270   -0.241383
    128          1           0       -5.678250    4.412260   -1.262856
    129          1           0       -8.322060    3.778800   -2.507519
    130          1           0       -6.929980    2.981836   -3.269936
    131          1           0       -6.944210    4.717919   -3.196041
    132          1           0       -5.602839    4.036285    1.093752
    133          1           0       -7.081620    3.837148    2.103067
    134          1           0       -7.329466    6.270281    0.644999
    135          1           0       -5.640021    6.119457    0.973482
    136          1           0       -2.212336    2.354132   -2.849145
    137          1           0       -1.438962    1.120515   -3.786841
    138          1           0       -0.875551    1.369984   -2.117376
    139          1           0       -0.201174   -0.727538   -3.619555
    140          1           0        0.582609   -2.235650   -2.872594
    141          1           0        0.097443   -0.819753   -1.896242
    142          1           0       -5.277178   -5.474447   -1.524922
    143          1           0       -8.237768   -5.329313   -1.790591
    144          1           0       -5.580871   -6.187642   -3.652892
    145          1           0       -6.079626   -4.508727   -4.063390
    146          1           0       -7.256489   -5.644434   -3.638223
    147          1           0       -7.020405   -7.081945   -0.442227
    148          1           0       -8.392827   -6.347121    0.364901
    149          1           0       -5.499622   -6.064054    0.727283
    150          1           0       -6.750637   -6.272981    2.006397
    151          1           0       -6.454136   -4.660266    1.215471
    152          1           0      -12.010836   -2.177164    2.164766
    153          1           0      -11.380870   -3.466957    1.089706
    154          1           0      -12.272142   -2.072133    0.360074
    155          1           0      -10.557907    2.759569    0.503803
    156          1           0      -11.061732    5.688730    3.626149
    157          1           0       -9.265119    5.934579    3.140682
    158          1           0       -9.850804    4.783137    4.366811
 ---------------------------------------------------------------------

 SCF Done:  E(RCAM-B3LYP) =  -4069.81234446     A.U. after   19 cycles

 Excitation energies and oscillator strengths:

 Excited State   1:      Singlet-A      1.6673 eV  743.64 nm  f=0.2151  <S**2>=0.000
     309 -> 315        0.11139
     310 -> 316        0.13155
     311 -> 313       -0.44213
     312 -> 314        0.52516
 This state for optimization and/or second-order correction.
 Total Energy, E(TD-HF/TD-DFT) =  -4069.75107393
 Copying the excited state density for this state as the 1-particle RhoCI density.

 Excited State   2:      Singlet-A      1.6875 eV  734.71 nm  f=0.5590  <S**2>=0.000
     309 -> 315       -0.13603
     310 -> 316        0.11378
     311 -> 313        0.52420
     312 -> 314        0.44149

 Excited State   3:      Singlet-A      2.1875 eV  566.79 nm  f=0.0314  <S**2>=0.000
     309 -> 313       -0.23943
     310 -> 314        0.59650
     311 -> 315       -0.10135
     312 -> 316       -0.25401

 Excited State   4:      Singlet-A      2.1948 eV  564.90 nm  f=0.1564  <S**2>=0.000
     309 -> 313        0.59439
     310 -> 314        0.23779
     311 -> 315        0.25960
     312 -> 316       -0.10379

 Excited State   5:      Singlet-A      2.6258 eV  472.18 nm  f=0.0000  <S**2>=0.000
     312 -> 313        0.70695

 The electronic state is 1-A.
 Alpha  occ. eigenvalues --  -46.87905 -46.87515 -19.26509 -19.26271 -19.19259
 Alpha  occ. eigenvalues --  -19.19074 -19.18870 -19.18505 -19.18310 -19.17921
 Alpha  occ. eigenvalues --  -14.42560 -14.42353 -14.41540 -14.41216 -14.39504
 Alpha  occ. eigenvalues --  -14.39198 -14.38703 -14.38455 -10.39307 -10.39001
 Alpha  occ. eigenvalues --  -10.35501 -10.35171 -10.34534 -10.34102 -10.31918
 Alpha  occ. eigenvalues --  -10.31698 -10.31525 -10.31173 -10.31022 -10.30866
 Alpha  occ. eigenvalues --  -10.30683 -10.30607 -10.30274 -10.30255 -10.30212
 Alpha  occ. eigenvalues --  -10.30008 -10.29983 -10.29768 -10.29730 -10.29345
 Alpha  occ. eigenvalues --  -10.29268 -10.29229 -10.28890 -10.28722 -10.28595
 Alpha  occ. eigenvalues --  -10.28575 -10.28478 -10.28248 -10.28241 -10.28007
 Alpha  occ. eigenvalues --  -10.27898 -10.27842 -10.27830 -10.27678 -10.27551
 Alpha  occ. eigenvalues --  -10.27522 -10.27519 -10.27513 -10.27479 -10.27396
 Alpha  occ. eigenvalues --  -10.27341 -10.27315 -10.27285 -10.27259 -10.27113
 Alpha  occ. eigenvalues --  -10.26933 -10.26886 -10.26590 -10.26437 -10.26343
 Alpha  occ. eigenvalues --  -10.26151 -10.26103 -10.26095 -10.26032 -10.25946
 Alpha  occ. eigenvalues --  -10.25892 -10.25789 -10.25732 -10.25461 -10.25290
 Alpha  occ. eigenvalues --  -10.24947 -10.24877 -10.24721 -10.24628 -10.24612
 Alpha  occ. eigenvalues --  -10.24547  -3.16649  -3.16265  -1.91531  -1.91148
 Alpha  occ. eigenvalues --   -1.91117  -1.90959  -1.90736  -1.90573  -1.16858
 Alpha  occ. eigenvalues --   -1.16563  -1.08777  -1.08535  -1.07268  -1.06876
 Alpha  occ. eigenvalues --   -1.06858  -1.06758  -1.04693  -1.04349  -1.03855
 Alpha  occ. eigenvalues --   -1.03517  -1.03336  -1.02892  -1.02512  -1.01964
 Alpha  occ. eigenvalues --   -0.92096  -0.91848  -0.89577  -0.89361  -0.89317
 Alpha  occ. eigenvalues --   -0.89023  -0.88337  -0.88093  -0.87978  -0.87779
 Alpha  occ. eigenvalues --   -0.87654  -0.87539  -0.87353  -0.86887  -0.85105
 Alpha  occ. eigenvalues --   -0.84865  -0.83981  -0.83756  -0.83017  -0.82759
 Alpha  occ. eigenvalues --   -0.82721  -0.82479  -0.81736  -0.81481  -0.80714
 Alpha  occ. eigenvalues --   -0.80302  -0.78887  -0.78438  -0.77310  -0.77054
 Alpha  occ. eigenvalues --   -0.76993  -0.76782  -0.76050  -0.75699  -0.74964
 Alpha  occ. eigenvalues --   -0.74673  -0.72870  -0.72551  -0.71772  -0.71445
 Alpha  occ. eigenvalues --   -0.69922  -0.69637  -0.68987  -0.68684  -0.67746
 Alpha  occ. eigenvalues --   -0.67455  -0.67344  -0.67044  -0.65416  -0.65143
 Alpha  occ. eigenvalues --   -0.64972  -0.64728  -0.64635  -0.64525  -0.64330
 Alpha  occ. eigenvalues --   -0.64075  -0.62453  -0.62169  -0.60517  -0.60143
 Alpha  occ. eigenvalues --   -0.59926  -0.59658  -0.59090  -0.58855  -0.58610
 Alpha  occ. eigenvalues --   -0.58285  -0.57742  -0.57437  -0.57394  -0.57083
 Alpha  occ. eigenvalues --   -0.56419  -0.56148  -0.56044  -0.55768  -0.55615
 Alpha  occ. eigenvalues --   -0.55429  -0.55277  -0.55128  -0.54631  -0.54377
 Alpha  occ. eigenvalues --   -0.54028  -0.53783  -0.53388  -0.53334  -0.53078
 Alpha  occ. eigenvalues --   -0.53048  -0.52981  -0.52841  -0.52770  -0.52445
 Alpha  occ. eigenvalues --   -0.52434  -0.52282  -0.52026  -0.51757  -0.51740
 Alpha  occ. eigenvalues --   -0.51497  -0.51303  -0.51070  -0.50628  -0.50219
 Alpha  occ. eigenvalues --   -0.50079  -0.49992  -0.49798  -0.49714  -0.49621
 Alpha  occ. eigenvalues --   -0.49330  -0.49310  -0.49217  -0.49036  -0.48974
 Alpha  occ. eigenvalues --   -0.48728  -0.48548  -0.48518  -0.48426  -0.48253
 Alpha  occ. eigenvalues --   -0.48135  -0.47790  -0.47430  -0.47388  -0.46934
 Alpha  occ. eigenvalues --   -0.46887  -0.46684  -0.46572  -0.46458  -0.46413
 Alpha  occ. eigenvalues --   -0.46263  -0.46111  -0.45959  -0.45955  -0.45708
 Alpha  occ. eigenvalues --   -0.45257  -0.45078  -0.44705  -0.44588  -0.44385
 Alpha  occ. eigenvalues --   -0.44333  -0.44237  -0.44182  -0.44123  -0.43989
 Alpha  occ. eigenvalues --   -0.43929  -0.43739  -0.43635  -0.43485  -0.43445
 Alpha  occ. eigenvalues --   -0.43251  -0.43130  -0.42883  -0.42821  -0.42767
 Alpha  occ. eigenvalues --   -0.42696  -0.42407  -0.42080  -0.41843  -0.41812
 Alpha  occ. eigenvalues --   -0.41648  -0.41534  -0.41330  -0.41243  -0.40971
 Alpha  occ. eigenvalues --   -0.40896  -0.40852  -0.40624  -0.40585  -0.40519
 Alpha  occ. eigenvalues --   -0.40378  -0.40371  -0.40089  -0.39442  -0.39308
 Alpha  occ. eigenvalues --   -0.38530  -0.38228  -0.37891  -0.37538  -0.37394
 Alpha  occ. eigenvalues --   -0.37388  -0.37135  -0.37059  -0.36891  -0.36678
 Alpha  occ. eigenvalues --   -0.36308  -0.36097  -0.34394  -0.34112  -0.33988
 Alpha  occ. eigenvalues --   -0.33764  -0.33296  -0.33031  -0.31402  -0.31138
 Alpha  occ. eigenvalues --   -0.31071  -0.30825  -0.30174  -0.29830  -0.29547
 Alpha  occ. eigenvalues --   -0.29434  -0.29154  -0.29057  -0.24187  -0.23893
 Alpha  occ. eigenvalues --   -0.21227  -0.20965
 Alpha virt. eigenvalues --   -0.08874  -0.08632  -0.01842  -0.01535  -0.00149
 Alpha virt. eigenvalues --    0.00154   0.02085   0.02347   0.02938   0.03352
 Alpha virt. eigenvalues --    0.04599   0.04859   0.04886   0.05260   0.06020

 Mulliken charges:
               1
     1  Mg   0.837363
     2  C   -0.003894
     3  C   -0.094255
     4  C   -0.045381
     5  C   -0.063620
     6  N   -0.256874
     7  C   -0.052851
     8  C   -0.013897
     9  C   -0.086995
    10  C    0.046199
    11  C    0.104733
    12  C    0.053497
    13  C   -0.071612
    14  H    0.034962
    15  N   -0.433310
    16  C    0.168486
    17  C   -0.176986
    18  C   -0.003626
    19  C    0.148751
    20  C    0.110091
    21  C    0.012680
    22  O   -0.248883
    23  C    0.062321
    24  N   -0.341182
    25  C    0.041422
    26  C   -0.028317
    27  C   -0.024017
    28  C    0.074851
    29  C    0.076077
    30  C    0.034919
    31  C   -0.004848
    32  N   -0.310216
    33  C    0.079706
    34  C   -0.170141
    35  C    0.008008
    36  C    0.082021
    37  C    0.127462
    38  C    0.045242
    39  O   -0.189053
    40  C   -0.004987
    41  C    0.213198
    42  O   -0.259289
    43  O   -0.304228
    44  C    0.158001
    45  H   -0.017339
    46  H   -0.016154
    47  H   -0.041034
    48  H    0.000948
    49  H   -0.003961
    50  H    0.025527
    51  H    0.016753
    52  H    0.016913
    53  H    0.011153
    54  H    0.042684
    55  H    0.018346
    56  H    0.018416
    57  H    0.005880
    58  H    0.027235
    59  H    0.040033
    60  H    0.037355
    61  H    0.036330
    62  H    0.031771
    63  H    0.017389
    64  H    0.009491
    65  H    0.023684
    66  H    0.012358
    67  H    0.004914
    68  H    0.006973
    69  H    0.004741
    70  H    0.009750
    71  H    0.021026
    72  H    0.026990
    73  H    0.046841
    74  H    0.009638
    75  H    0.046202
    76  H    0.035463
    77  H    0.043259
    78  H    0.046654
    79  H    0.052240
    80  Mg   0.837317
    81  C   -0.016888
    82  C   -0.087461
    83  C   -0.045533
    84  C   -0.064981
    85  N   -0.254515
    86  C   -0.050289
    87  C   -0.015067
    88  C   -0.090455
    89  C    0.045572
    90  C    0.114336
    91  C    0.062520
    92  C   -0.077600
    93  H    0.033903
    94  N   -0.423628
    95  C    0.162757
    96  C   -0.174188
    97  C   -0.007596
    98  C    0.152147
    99  C    0.099062
   100  C    0.015228
   101  O   -0.254192
   102  C    0.061639
   103  N   -0.350025
   104  C    0.037673
   105  C   -0.019855
   106  C   -0.034631
   107  C    0.088594
   108  C    0.073763
   109  C    0.034841
   110  C   -0.007600
   111  N   -0.323936
   112  C    0.077952
   113  C   -0.163587
   114  C    0.002012
   115  C    0.095825
   116  C    0.131590
   117  C    0.042028
   118  O   -0.188680
   119  C    0.000992
   120  C    0.211184
   121  O   -0.251316
   122  O   -0.305580
   123  C    0.152203
   124  H   -0.018749
   125  H   -0.015725
   126  H   -0.040931
   127  H   -0.000956
   128  H   -0.004082
   129  H    0.022204
   130  H    0.014675
   131  H    0.016411
   132  H    0.014016
   133  H    0.037344
   134  H    0.020755
   135  H    0.019684
   136  H    0.009171
   137  H    0.028045
   138  H    0.043414
   139  H    0.040886
   140  H    0.035692
   141  H    0.034745
   142  H    0.014252
   143  H    0.012111
   144  H    0.024837
   145  H    0.011808
   146  H    0.005457
   147  H    0.005934
   148  H    0.003388
   149  H    0.010925
   150  H    0.017591
   151  H    0.030221
   152  H    0.045519
   153  H    0.008192
   154  H    0.046580
   155  H    0.034792
   156  H    0.043637
   157  H    0.049383
   158  H    0.053245
 Sum of Mulliken charges =  -0.00000

 Dipole moment (field-independent basis, Debye):
    X=              4.4596    Y=              2.9544    Z=              1.2341  Tot=              5.4900
 Quadrupole moment (field-independent basis, Debye-Ang):
   XX=           -540.7890   YY=           -466.3527   ZZ=           -519.2018
   XY=             12.1895   XZ=             58.6488   YZ=             27.2522

 Normal termination of Gaussian 16 at Sat Sep 11 04:02:27 2021.
