 Gaussian 16, Revision A.03,
 Gaussian 16:  ES64L-G16RevA.03 25-Dec-2016

 -----------------------------------
 #p cam-b3lyp/Def2SVP td=(nstates=5)
 -----------------------------------

 --------------------------------
 TDDFT excited states in gaussian
 --------------------------------
 Symbolic Z-matrix:
 Charge =  0 Multiplicity = 1

                         Standard orientation:
 ---------------------------------------------------------------------
 Center     Atomic      Atomic             Coordinates (Angstroms)
 Number     Number       Type             X           Y           Z
 ---------------------------------------------------------------------
      1         12           0        4.993082   -1.288304    0.267507
      2          6           0        5.598117    2.193581   -0.300493
      3          6           0        5.737152   -0.729616    3.550385
      4          6           0        4.909094   -4.427622    0.708250
      5          6           0        5.410550   -1.768648   -3.158957
      6          7           0        5.577055    0.543635    1.364603
      7          6           0        5.715094    1.825781    1.041776
      8          6           0        5.921238    2.754765    2.275416
      9          6           0        6.505320    1.683915    3.302124
     10          6           0        5.874895    0.427569    2.727595
     11          6           0        8.022949    1.544641    3.239625
     12          6           0        4.575164    3.367037    2.790138
     13          6           0        4.721013    4.530387    3.775379
     14          1           0        3.755211    5.617517    3.723213
     15          7           0        4.802502   -2.344550    1.926083
     16          6           0        5.140801   -1.953886    3.178369
     17          6           0        4.807244   -3.090228    4.063889
     18          6           0        4.424692   -4.242369    3.201149
     19          6           0        4.725899   -3.718873    1.893248
     20          6           0        4.822436   -3.000316    5.559026
     21          6           0        3.884777   -5.603508    3.507621
     22          8           0        3.840142   -6.531205    2.629010
     23          6           0        3.486222   -5.852871    4.904766
     24          7           0        5.354262   -2.909886   -0.996478
     25          6           0        5.190784   -4.167024   -0.570025
     26          6           0        5.228558   -5.139933   -1.711059
     27          6           0        5.209603   -4.259802   -3.043261
     28          6           0        5.248780   -2.852911   -2.397201
     29          6           0        6.435473   -6.087753   -1.742726
     30          6           0        4.094135   -4.567511   -4.073536
     31          6           0        2.746833   -4.190891   -3.499052
     32          7           0        5.251244   -0.016870   -1.472566
     33          6           0        5.428686   -0.431070   -2.800582
     34          6           0        5.669288    0.782282   -3.603049
     35          6           0        5.631317    1.823286   -2.677461
     36          6           0        5.408864    1.291324   -1.375223
     37          6           0        5.943194    0.817565   -4.998816
     38          6           0        5.751448    3.258997   -2.482119
     39          8           0        5.849091    4.231070   -3.232474
     40          6           0        5.856192    3.544981   -0.919087
     41          6           0        4.899755    4.660403   -0.596024
     42          8           0        3.666789    4.494406   -0.694028
     43          8           0        5.567661    5.660132   -0.000217
     44          6           0        4.671481    6.786843    0.373331
     45          1           0        6.176537   -0.721988    4.549797
     46          1           0        4.777645   -5.507905    0.798515
     47          1           0        5.465153   -1.832735   -4.247242
     48          1           0        6.642945    3.557690    2.124178
     49          1           0        6.148529    1.856728    4.317288
     50          1           0        8.441177    2.111891    2.408221
     51          1           0        8.212242    0.479242    3.107014
     52          1           0        8.476194    1.812949    4.194275
     53          1           0        4.072817    2.642758    3.431332
     54          1           0        3.948610    3.679203    1.953892
     55          1           0        5.738210    4.923060    3.780678
     56          1           0        4.574505    4.144085    4.784094
     57          1           0        5.302363   -2.083930    5.900277
     58          1           0        5.472153   -3.797645    5.919364
     59          1           0        3.826624   -3.115776    5.987230
     60          1           0        4.346168   -5.699678    5.557126
     61          1           0        3.041296   -6.847217    4.917643
     62          1           0        2.743077   -5.110692    5.197779
     63          1           0        4.354566   -5.789887   -1.699876
     64          1           0        6.133394   -4.360854   -3.613413
     65          1           0        6.163119   -7.143447   -1.748887
     66          1           0        7.070968   -5.852807   -0.889357
     67          1           0        7.121137   -5.927094   -2.574272
     68          1           0        4.063018   -5.634532   -4.291351
     69          1           0        4.223585   -4.039757   -5.018507
     70          1           0        2.481324   -5.066098   -2.907148
     71          1           0        2.024425   -4.027012   -4.299353
     72          1           0        2.828045   -3.346677   -2.814076
     73          1           0        5.350293    1.636788   -5.405399
     74          1           0        5.690598   -0.129077   -5.475963
     75          1           0        7.016438    1.007069   -4.989255
     76          1           0        6.890846    3.822288   -0.719800
     77          1           0        5.076304    7.686357   -0.090594
     78          1           0        4.590210    6.770873    1.460320
     79          1           0        3.668808    6.767704   -0.055180
     80         12           0       -5.521171   -0.174030   -0.358084
     81          6           0       -3.787045    2.963949   -0.515973
     82          6           0       -6.016438    0.436842    2.960973
     83          6           0       -6.655023   -3.124913   -0.085831
     84          6           0       -3.928627   -1.045553   -3.332965
     85          7           0       -4.931058    1.517378    0.939270
     86          6           0       -4.328658    2.682598    0.755622
     87          6           0       -4.375816    3.631569    1.983138
     88          6           0       -4.572165    2.527827    3.132957
     89          6           0       -5.247809    1.433800    2.308770
     90          6           0       -3.260999    1.979507    3.671040
     91          6           0       -5.590301    4.623394    1.925587
     92          6           0       -5.525295    5.778485    2.927237
     93          1           0       -6.050372    7.080013    2.523756
     94          7           0       -6.649131   -0.991086    1.055675
     95          6           0       -6.746971   -0.602619    2.344398
     96          6           0       -7.690527   -1.537984    2.976028
     97          6           0       -8.015003   -2.610072    1.996191
     98          6           0       -7.082510   -2.288025    0.934662
     99          6           0       -8.252820   -1.322041    4.351027
    100          6           0       -8.992682   -3.745810    2.017223
    101          8           0       -8.939304   -4.696203    1.158887
    102          6           0       -9.955817   -3.761260    3.127901
    103          7           0       -5.163321   -1.925527   -1.419482
    104          6           0       -5.827722   -3.057850   -1.129089
    105          6           0       -5.610649   -4.106104   -2.194201
    106          6           0       -4.853963   -3.356320   -3.387024
    107          6           0       -4.677501   -1.965113   -2.739883
    108          6           0       -4.800507   -5.330066   -1.767642
    109          6           0       -5.504117   -3.439377   -4.795234
    110          6           0       -6.810147   -2.678094   -4.806436
    111          7           0       -4.258550    0.826907   -1.797502
    112          6           0       -3.680461    0.268898   -2.958763
    113          6           0       -2.811401    1.305011   -3.553434
    114          6           0       -2.927168    2.394779   -2.677361
    115          6           0       -3.790477    2.054423   -1.601095
    116          6           0       -2.015076    1.151771   -4.723265
    117          6           0       -2.506998    3.752017   -2.412656
    118          8           0       -1.846664    4.591658   -3.023148
    119          6           0       -2.945409    4.137517   -0.934293
    120          6           0       -3.602908    5.489518   -0.982432
    121          8           0       -4.678703    5.648028   -1.585892
    122          8           0       -2.970461    6.317632   -0.131194
    123          6           0       -3.593242    7.668159   -0.135205
    124          1           0       -6.028947    0.421865    4.051159
    125          1           0       -7.104664   -4.120469   -0.098720
    126          1           0       -3.474643   -1.205764   -4.313226
    127          1           0       -3.466067    4.193210    2.158325
    128          1           0       -5.239577    2.884592    3.913099
    129          1           0       -2.412726    2.337725    3.106887
    130          1           0       -3.338887    0.902887    3.594519
    131          1           0       -3.169964    2.199977    4.738483
    132          1           0       -6.489592    4.109772    2.289195
    133          1           0       -5.718355    5.011795    0.933929
    134          1           0       -4.526544    5.886672    3.367389
    135          1           0       -6.168114    5.537245    3.777295
    136          1           0       -7.704952   -0.540254    4.891435
    137          1           0       -8.057789   -2.235450    4.923324
    138          1           0       -9.328539   -1.133924    4.341423
    139          1           0       -9.417494   -3.785456    4.072403
    140          1           0      -10.626822   -4.597271    2.921239
    141          1           0      -10.522541   -2.823597    3.112614
    142          1           0       -6.556180   -4.485785   -2.561519
    143          1           0       -3.843015   -3.759681   -3.545530
    144          1           0       -5.339748   -6.284396   -1.917790
    145          1           0       -4.521935   -5.210024   -0.729122
    146          1           0       -3.833101   -5.436489   -2.255511
    147          1           0       -5.747238   -4.476376   -5.039553
    148          1           0       -4.866699   -3.062645   -5.588172
    149          1           0       -7.520852   -3.401255   -4.395312
    150          1           0       -7.079127   -2.393789   -5.821744
    151          1           0       -6.774003   -1.824456   -4.119661
    152          1           0       -2.138910    2.055648   -5.304786
    153          1           0       -2.306953    0.270231   -5.290235
    154          1           0       -1.025350    1.040660   -4.272299
    155          1           0       -2.046593    4.141168   -0.316484
    156          1           0       -2.799174    8.385478   -0.364545
    157          1           0       -4.094995    7.768680    0.845562
    158          1           0       -4.309202    7.887604   -0.918589
 ---------------------------------------------------------------------

 SCF Done:  E(RCAM-B3LYP) =  -4069.81063285     A.U. after   19 cycles

 Excitation energies and oscillator strengths:

 Excited State   1:      Singlet-A      1.6561 eV  748.66 nm  f=0.0578  <S**2>=0.000
     309 -> 315       -0.11499
     310 -> 316       -0.12379
     311 -> 313       -0.46637
     312 -> 314        0.50467
 This state for optimization and/or second-order correction.
 Total Energy, E(TD-HF/TD-DFT) =  -4069.74977301
 Copying the excited state density for this state as the 1-particle RhoCI density.

 Excited State   2:      Singlet-A      1.6986 eV  729.91 nm  f=0.6714  <S**2>=0.000
     309 -> 315        0.13238
     310 -> 316       -0.12152
     311 -> 313        0.50268
     312 -> 314        0.46468

 Excited State   3:      Singlet-A      2.1834 eV  567.86 nm  f=0.0123  <S**2>=0.000
     309 -> 313        0.32645
     310 -> 314        0.55484
     311 -> 315       -0.13682
     312 -> 316        0.23394

 Excited State   4:      Singlet-A      2.1951 eV  564.83 nm  f=0.1670  <S**2>=0.000
     309 -> 313        0.55121
     310 -> 314       -0.32312
     311 -> 315       -0.24253
     312 -> 316       -0.14261

 Excited State   5:      Singlet-A      2.4919 eV  497.55 nm  f=0.0000  <S**2>=0.000
     312 -> 313        0.70700

 The electronic state is 1-A.
 Alpha  occ. eigenvalues --  -46.87765 -46.87446 -19.26094 -19.26076 -19.18885
 Alpha  occ. eigenvalues --  -19.18804 -19.18797 -19.18528 -19.18048 -19.17671
 Alpha  occ. eigenvalues --  -14.42421 -14.42294 -14.41423 -14.41145 -14.39372
 Alpha  occ. eigenvalues --  -14.39137 -14.38543 -14.38365 -10.38880 -10.38809
 Alpha  occ. eigenvalues --  -10.35433 -10.35210 -10.34268 -10.33849 -10.31533
 Alpha  occ. eigenvalues --  -10.31482 -10.31363 -10.31082 -10.30878 -10.30823
 Alpha  occ. eigenvalues --  -10.30524 -10.30467 -10.30199 -10.30163 -10.30117
 Alpha  occ. eigenvalues --  -10.29960 -10.29887 -10.29666 -10.29589 -10.29236
 Alpha  occ. eigenvalues --  -10.29229 -10.29166 -10.28725 -10.28551 -10.28540
 Alpha  occ. eigenvalues --  -10.28532 -10.28318 -10.28168 -10.28095 -10.27974
 Alpha  occ. eigenvalues --  -10.27749 -10.27741 -10.27700 -10.27549 -10.27512
 Alpha  occ. eigenvalues --  -10.27484 -10.27469 -10.27450 -10.27357 -10.27352
 Alpha  occ. eigenvalues --  -10.27308 -10.27256 -10.27242 -10.27194 -10.27043
 Alpha  occ. eigenvalues --  -10.26703 -10.26699 -10.26536 -10.26415 -10.26272
 Alpha  occ. eigenvalues --  -10.26231 -10.26211 -10.25997 -10.25997 -10.25891
 Alpha  occ. eigenvalues --  -10.25761 -10.25729 -10.25530 -10.25432 -10.25219
 Alpha  occ. eigenvalues --  -10.24771 -10.24771 -10.24756 -10.24608 -10.24591
 Alpha  occ. eigenvalues --  -10.24469  -3.16508  -3.16196  -1.91390  -1.91078
 Alpha  occ. eigenvalues --   -1.90977  -1.90818  -1.90667  -1.90503  -1.16440
 Alpha  occ. eigenvalues --   -1.16368  -1.08493  -1.08264  -1.07200  -1.06784
 Alpha  occ. eigenvalues --   -1.06664  -1.06433  -1.04547  -1.04283  -1.03733
 Alpha  occ. eigenvalues --   -1.03447  -1.03197  -1.02819  -1.02376  -1.01886
 Alpha  occ. eigenvalues --   -0.91908  -0.91729  -0.89510  -0.89293  -0.89165
 Alpha  occ. eigenvalues --   -0.88976  -0.88278  -0.88030  -0.87812  -0.87647
 Alpha  occ. eigenvalues --   -0.87530  -0.87477  -0.87253  -0.86925  -0.84958
 Alpha  occ. eigenvalues --   -0.84815  -0.83930  -0.83685  -0.82959  -0.82755
 Alpha  occ. eigenvalues --   -0.82613  -0.82464  -0.81491  -0.81355  -0.80537
 Alpha  occ. eigenvalues --   -0.80220  -0.78766  -0.78418  -0.77198  -0.76953
 Alpha  occ. eigenvalues --   -0.76893  -0.76701  -0.75863  -0.75626  -0.74873
 Alpha  occ. eigenvalues --   -0.74602  -0.72737  -0.72472  -0.71634  -0.71372
 Alpha  occ. eigenvalues --   -0.69924  -0.69587  -0.68844  -0.68636  -0.67596
 Alpha  occ. eigenvalues --   -0.67376  -0.67203  -0.67022  -0.65251  -0.65070
 Alpha  occ. eigenvalues --   -0.64803  -0.64572  -0.64556  -0.64441  -0.64253
 Alpha  occ. eigenvalues --   -0.64005  -0.62183  -0.62036  -0.60421  -0.60138
 Alpha  occ. eigenvalues --   -0.59773  -0.59599  -0.58945  -0.58770  -0.58453
 Alpha  occ. eigenvalues --   -0.58192  -0.57480  -0.57258  -0.57254  -0.57011
 Alpha  occ. eigenvalues --   -0.56264  -0.55978  -0.55864  -0.55656  -0.55483
 Alpha  occ. eigenvalues --   -0.55291  -0.55240  -0.55029  -0.54444  -0.54269
 Alpha  occ. eigenvalues --   -0.53867  -0.53734  -0.53266  -0.53185  -0.53018
 Alpha  occ. eigenvalues --   -0.52935  -0.52839  -0.52738  -0.52688  -0.52497
 Alpha  occ. eigenvalues --   -0.52445  -0.52227  -0.51840  -0.51590  -0.51583
 Alpha  occ. eigenvalues --   -0.51472  -0.51139  -0.50952  -0.50571  -0.50308
 Alpha  occ. eigenvalues --   -0.50036  -0.49899  -0.49801  -0.49679  -0.49481
 Alpha  occ. eigenvalues --   -0.49298  -0.49151  -0.49055  -0.48982  -0.48870
 Alpha  occ. eigenvalues --   -0.48522  -0.48436  -0.48380  -0.48329  -0.48173
 Alpha  occ. eigenvalues --   -0.48103  -0.47661  -0.47395  -0.47259  -0.46923
 Alpha  occ. eigenvalues --   -0.46771  -0.46525  -0.46509  -0.46374  -0.46322
 Alpha  occ. eigenvalues --   -0.46100  -0.46061  -0.45851  -0.45733  -0.45566
 Alpha  occ. eigenvalues --   -0.45186  -0.45009  -0.44505  -0.44491  -0.44319
 Alpha  occ. eigenvalues --   -0.44246  -0.44129  -0.44064  -0.43946  -0.43919
 Alpha  occ. eigenvalues --   -0.43878  -0.43698  -0.43407  -0.43361  -0.43331
 Alpha  occ. eigenvalues --   -0.43172  -0.42979  -0.42699  -0.42685  -0.42638
 Alpha  occ. eigenvalues --   -0.42515  -0.42368  -0.41992  -0.41776  -0.41646
 Alpha  occ. eigenvalues --   -0.41512  -0.41397  -0.41277  -0.41105  -0.40859
 Alpha  occ. eigenvalues --   -0.40813  -0.40782  -0.40557  -0.40548  -0.40527
 Alpha  occ. eigenvalues --   -0.40301  -0.40228  -0.40066  -0.39471  -0.39260
 Alpha  occ. eigenvalues --   -0.38466  -0.38170  -0.37731  -0.37483  -0.37307
 Alpha  occ. eigenvalues --   -0.37231  -0.37072  -0.36999  -0.36593  -0.36523
 Alpha  occ. eigenvalues --   -0.36099  -0.36006  -0.34247  -0.34030  -0.33595
 Alpha  occ. eigenvalues --   -0.33589  -0.33131  -0.32953  -0.31327  -0.31088
 Alpha  occ. eigenvalues --   -0.30995  -0.30754  -0.29905  -0.29574  -0.29413
 Alpha  occ. eigenvalues --   -0.29262  -0.29106  -0.28938  -0.24043  -0.23813
 Alpha  occ. eigenvalues --   -0.21095  -0.20899
 Alpha virt. eigenvalues --   -0.08735  -0.08561  -0.01723  -0.01475  -0.00024
 Alpha virt. eigenvalues --    0.00186   0.02274   0.02503   0.03125   0.03427
 Alpha virt. eigenvalues --    0.04740   0.04919   0.05277   0.05450   0.06193

 Mulliken charges:
               1
     1  Mg   0.838391
     2  C   -0.002515
     3  C   -0.094513
     4  C   -0.045988
     5  C   -0.064405
     6  N   -0.256603
     7  C   -0.052658
     8  C   -0.013796
     9  C   -0.086898
    10  C    0.045977
    11  C    0.104857
    12  C    0.053611
    13  C   -0.071380
    14  H    0.035621
    15  N   -0.433060
    16  C    0.168054
    17  C   -0.177556
    18  C   -0.004240
    19  C    0.148550
    20  C    0.110292
    21  C    0.012126
    22  O   -0.249830
    23  C    0.062612
    24  N   -0.341078
    25  C    0.040993
    26  C   -0.028108
    27  C   -0.023962
    28  C    0.074838
    29  C    0.076181
    30  C    0.035249
    31  C   -0.004364
    32  N   -0.310722
    33  C    0.080517
    34  C   -0.169359
    35  C    0.009269
    36  C    0.083293
    37  C    0.126917
    38  C    0.047788
    39  O   -0.186406
    40  C   -0.005911
    41  C    0.213059
    42  O   -0.254352
    43  O   -0.305566
    44  C    0.156780
    45  H   -0.017922
    46  H   -0.017104
    47  H   -0.041574
    48  H    0.001274
    49  H   -0.004619
    50  H    0.025649
    51  H    0.016430
    52  H    0.016387
    53  H    0.010054
    54  H    0.044836
    55  H    0.018211
    56  H    0.017039
    57  H    0.005522
    58  H    0.026697
    59  H    0.038679
    60  H    0.037250
    61  H    0.035565
    62  H    0.030990
    63  H    0.016156
    64  H    0.009616
    65  H    0.023054
    66  H    0.012681
    67  H    0.004727
    68  H    0.006215
    69  H    0.004777
    70  H    0.008630
    71  H    0.016331
    72  H    0.029493
    73  H    0.049240
    74  H    0.008612
    75  H    0.046016
    76  H    0.034869
    77  H    0.042992
    78  H    0.044921
    79  H    0.056601
    80  Mg   0.837206
    81  C   -0.016435
    82  C   -0.088103
    83  C   -0.045757
    84  C   -0.065253
    85  N   -0.254299
    86  C   -0.049773
    87  C   -0.014928
    88  C   -0.090534
    89  C    0.045392
    90  C    0.114268
    91  C    0.062671
    92  C   -0.077360
    93  H    0.034473
    94  N   -0.423343
    95  C    0.162397
    96  C   -0.175341
    97  C   -0.008295
    98  C    0.151749
    99  C    0.099680
   100  C    0.015166
   101  O   -0.253740
   102  C    0.061382
   103  N   -0.350067
   104  C    0.037269
   105  C   -0.019674
   106  C   -0.034742
   107  C    0.089380
   108  C    0.073755
   109  C    0.034818
   110  C   -0.007559
   111  N   -0.324480
   112  C    0.078849
   113  C   -0.163044
   114  C    0.004153
   115  C    0.095596
   116  C    0.131360
   117  C    0.045657
   118  O   -0.183096
   119  C   -0.000190
   120  C    0.211161
   121  O   -0.251893
   122  O   -0.304884
   123  C    0.152344
   124  H   -0.020854
   125  H   -0.016088
   126  H   -0.040805
   127  H   -0.000228
   128  H   -0.005131
   129  H    0.023611
   130  H    0.013935
   131  H    0.014430
   132  H    0.013668
   133  H    0.037933
   134  H    0.020223
   135  H    0.018981
   136  H    0.008000
   137  H    0.025213
   138  H    0.039143
   139  H    0.037811
   140  H    0.035837
   141  H    0.033637
   142  H    0.013957
   143  H    0.012041
   144  H    0.024645
   145  H    0.011960
   146  H    0.005518
   147  H    0.005782
   148  H    0.003266
   149  H    0.010774
   150  H    0.017593
   151  H    0.030432
   152  H    0.046507
   153  H    0.006787
   154  H    0.050465
   155  H    0.039700
   156  H    0.043721
   157  H    0.048318
   158  H    0.053286
 Sum of Mulliken charges =  -0.00000

 Dipole moment (field-independent basis, Debye):
    X=              1.6283    Y=             -1.5449    Z=              8.0062  Tot=              8.3149
 Quadrupole moment (field-independent basis, Debye-Ang):
   XX=           -502.2712   YY=           -535.0050   ZZ=           -461.9291
   XY=            -16.0011   XZ=             -2.5036   YZ=             55.8867

 Normal termination of Gaussian 16 at Fri Sep 10 21:51:10 2021.
