 Gaussian 16, Revision A.03,
 Gaussian 16:  ES64L-G16RevA.03 25-Dec-2016

 -----------------------------------
 #p cam-b3lyp/Def2SVP td=(nstates=5)
 -----------------------------------

 --------------------------------
 TDDFT excited states in gaussian
 --------------------------------
 Symbolic Z-matrix:
 Charge =  0 Multiplicity = 1

                         Standard orientation:
 ---------------------------------------------------------------------
 Center     Atomic      Atomic             Coordinates (Angstroms)
 Number     Number       Type             X           Y           Z
 ---------------------------------------------------------------------
      1         12           0       -4.106404    0.486598   -0.161901
      2          6           0       -3.227233    3.928403   -0.601505
      3          6           0       -4.752814    0.378232   -3.510554
      4          6           0       -5.316697   -2.411708    0.275861
      5          6           0       -4.481663    1.169239    3.234986
      6          7           0       -3.967786    2.023310   -1.749334
      7          6           0       -3.559981    3.287663   -1.797071
      8          6           0       -3.446833    3.845997   -3.247187
      9          6           0       -4.470598    2.864406   -3.975461
     10          6           0       -4.365874    1.669631   -3.044080
     11          6           0       -5.909846    3.369369   -3.966686
     12          6           0       -2.000606    3.700055   -3.829303
     13          6           0       -1.723741    4.506816   -5.101244
     14          1           0       -0.401264    5.083411   -5.290823
     15          7           0       -4.453103   -0.965816   -1.455401
     16          6           0       -4.678117   -0.830066   -2.784396
     17          6           0       -4.881380   -2.199023   -3.305281
     18          6           0       -4.944549   -3.124495   -2.140117
     19          6           0       -4.933408   -2.189032   -1.044598
     20          6           0       -4.946085   -2.522238   -4.766477
     21          6           0       -5.015880   -4.614880   -2.031509
     22          8           0       -5.296755   -5.204071   -0.932174
     23          6           0       -4.833097   -5.374158   -3.281761
     24          7           0       -5.014543   -0.441005    1.472869
     25          6           0       -5.395078   -1.721988    1.415768
     26          6           0       -5.754170   -2.246000    2.774592
     27          6           0       -5.305727   -1.120760    3.815019
     28          6           0       -4.813795   -0.051415    2.808652
     29          6           0       -7.236143   -2.581081    2.992512
     30          6           0       -4.350058   -1.556768    4.953883
     31          6           0       -3.000872   -1.925510    4.378710
     32          7           0       -3.730262    2.176508    1.147208
     33          6           0       -3.981623    2.248028    2.525023
     34          6           0       -3.667296    3.624305    2.950618
     35          6           0       -3.268133    4.266544    1.780130
     36          6           0       -3.354319    3.356862    0.687727
     37          6           0       -3.822265    4.145988    4.265253
     38          6           0       -2.812392    5.516574    1.193970
     39          8           0       -2.467398    6.610282    1.643721
     40          6           0       -2.884099    5.382210   -0.391158
     41          6           0       -1.580633    5.884926   -0.949336
     42          8           0       -0.514858    5.271247   -0.737470
     43          8           0       -1.823960    6.864623   -1.833376
     44          6           0       -0.573961    7.387639   -2.446655
     45          1           0       -5.209411    0.288740   -4.498203
     46          1           0       -5.635890   -3.433499    0.491493
     47          1           0       -4.494027    1.432066    4.294336
     48          1           0       -3.774962    4.879082   -3.363333
     49          1           0       -4.134134    2.595178   -4.976476
     50          1           0       -6.015777    4.260088   -3.347558
     51          1           0       -6.503215    2.550245   -3.559940
     52          1           0       -6.271762    3.525538   -4.983251
     53          1           0       -1.869837    2.690168   -4.218005
     54          1           0       -1.253952    3.949397   -3.074543
     55          1           0       -2.495857    5.257264   -5.273214
     56          1           0       -1.803733    3.835057   -5.955961
     57          1           0       -5.036306   -1.621462   -5.372289
     58          1           0       -5.881175   -3.056552   -4.933281
     59          1           0       -4.107333   -3.140035   -5.087653
     60          1           0       -5.595362   -5.072766   -4.000555
     61          1           0       -4.826781   -6.425641   -2.996817
     62          1           0       -3.872780   -5.103841   -3.721840
     63          1           0       -5.217263   -3.168325    2.992473
     64          1           0       -6.157403   -0.682438    4.335784
     65          1           0       -7.411078   -3.611673    3.302321
     66          1           0       -7.772127   -2.353229    2.071591
     67          1           0       -7.749841   -1.938321    3.706928
     68          1           0       -4.737697   -2.442607    5.455851
     69          1           0       -4.201347   -0.785599    5.709816
     70          1           0       -3.144321   -2.958745    4.064575
     71          1           0       -2.228293   -1.854110    5.145023
     72          1           0       -2.775708   -1.341775    3.485939
     73          1           0       -2.927610    4.734882    4.467155
     74          1           0       -3.944049    3.347163    4.996451
     75          1           0       -4.727485    4.740183    4.141299
     76          1           0       -3.729806    5.985895   -0.718980
     77          1           0       -0.555503    8.463172   -2.270238
     78          1           0       -0.569319    7.044468   -3.481362
     79          1           0        0.359584    7.085025   -1.970990
     80         12           0        3.465262   -1.828621    0.524792
     81          6           0        5.626730    1.034795    0.435699
     82          6           0        4.190850   -2.292526   -2.775655
     83          6           0        1.229084   -4.078418    0.451646
     84          6           0        2.051334   -0.497846    3.418842
     85          7           0        4.756482   -0.707506   -0.878102
     86          6           0        5.577284    0.327736   -0.783748
     87          6           0        6.450608    0.573020   -2.043390
     88          6           0        5.510737   -0.143223   -3.130825
     89          6           0        4.795093   -1.137294   -2.218489
     90          6           0        4.470602    0.786693   -3.733081
     91          6           0        7.851519   -0.126811   -1.944981
     92          6           0        8.869751    0.321867   -2.995534
     93          1           0       10.276348    0.402613   -2.611589
     94          7           0        3.163825   -3.297971   -0.774717
     95          6           0        3.545264   -3.330755   -2.068824
     96          6           0        3.068696   -4.618751   -2.596216
     97          6           0        2.231704   -5.271853   -1.553329
     98          6           0        2.157029   -4.208738   -0.571335
     99          6           0        3.480789   -5.151262   -3.937869
    100          6           0        1.592297   -6.624223   -1.461456
    101          8           0        0.711349   -6.893379   -0.570201
    102          6           0        1.958957   -7.594880   -2.503032
    103          7           0        1.730787   -2.129110    1.630973
    104          6           0        0.964173   -3.215878    1.433048
    105          6           0       -0.070670   -3.359358    2.523412
    106          6           0        0.318223   -2.272759    3.630501
    107          6           0        1.510340   -1.599086    2.916083
    108          6           0       -1.522754   -3.150820    2.094020
    109          6           0        0.521492   -2.788182    5.081608
    110          6           0        1.748649   -3.668449    5.149490
    111          7           0        3.880071   -0.160078    1.833205
    112          6           0        3.146947    0.231461    2.974835
    113          6           0        3.745476    1.489512    3.466257
    114          6           0        4.778923    1.756920    2.555775
    115          6           0        4.808566    0.748253    1.555182
    116          6           0        3.293266    2.244507    4.584996
    117          6           0        5.844711    2.668810    2.207559
    118          8           0        6.348950    3.658381    2.736932
    119          6           0        6.360164    2.309742    0.747502
    120          6           0        7.863136    2.262435    0.784083
    121          8           0        8.452105    1.394105    1.451710
    122          8           0        8.353232    3.107295   -0.141337
    123          6           0        9.840288    3.087570   -0.151027
    124          1           0        4.171102   -2.395479   -3.860961
    125          1           0        0.503047   -4.890363    0.535914
    126          1           0        1.730209   -0.072363    4.372004
    127          1           0        6.591361    1.615514   -2.302593
    128          1           0        6.100332   -0.667782   -3.878200
    129          1           0        4.458159    1.748737   -3.242709
    130          1           0        3.519813    0.285510   -3.607116
    131          1           0        4.623961    0.875222   -4.812415
    132          1           0        7.744864   -1.182571   -2.225583
    133          1           0        8.268538   -0.008302   -0.963825
    134          1           0        8.557404    1.240907   -3.506170
    135          1           0        8.902454   -0.428060   -3.789601
    136          1           0        3.966199   -4.377833   -4.545820
    137          1           0        2.561310   -5.388607   -4.483852
    138          1           0        4.090690   -6.054116   -3.863466
    139          1           0        1.708007   -7.188410   -3.479900
    140          1           0        1.470740   -8.528605   -2.217235
    141          1           0        3.046231   -7.729948   -2.488224
    142          1           0       -0.028698   -4.345634    2.969046
    143          1           0       -0.460164   -1.502935    3.736938
    144          1           0       -2.173245   -4.016912    2.319457
    145          1           0       -1.537165   -2.929887    1.035002
    146          1           0       -2.008829   -2.274514    2.519471
    147          1           0       -0.324110   -3.410642    5.384343
    148          1           0        0.614143   -1.992735    5.813500
    149          1           0        1.373344   -4.641063    4.817448
    150          1           0        2.128217   -3.718624    6.168047
    151          1           0        2.506527   -3.343504    4.427211
    152          1           0        4.175154    2.543569    5.135772
    153          1           0        2.612787    1.665919    5.206265
    154          1           0        2.784200    3.065621    4.073247
    155          1           0        5.991209    3.081472    0.070826
    156          1           0       10.174455    4.119498   -0.005582
    157          1           0       10.126341    2.594349   -1.099003
    158          1           0       10.340230    2.585777    0.669162
 ---------------------------------------------------------------------

 SCF Done:  E(RCAM-B3LYP) =  -4069.79568840     A.U. after   19 cycles

 Excitation energies and oscillator strengths:

 Excited State   1:      Singlet-A      1.6348 eV  758.39 nm  f=0.0025  <S**2>=0.000
     309 -> 315       -0.10967
     310 -> 316        0.12145
     311 -> 313       -0.45973
     312 -> 314        0.51181
 This state for optimization and/or second-order correction.
 Total Energy, E(TD-HF/TD-DFT) =  -4069.73560964
 Copying the excited state density for this state as the 1-particle RhoCI density.

 Excited State   2:      Singlet-A      1.7108 eV  724.70 nm  f=0.6730  <S**2>=0.000
     309 -> 315        0.13686
     310 -> 316        0.12213
     311 -> 313        0.50834
     312 -> 314        0.45683

 Excited State   3:      Singlet-A      2.1783 eV  569.18 nm  f=0.0354  <S**2>=0.000
     309 -> 313       -0.31477
     310 -> 314        0.56461
     311 -> 315        0.12818
     312 -> 316       -0.23158

 Excited State   4:      Singlet-A      2.1984 eV  563.96 nm  f=0.1422  <S**2>=0.000
     309 -> 313        0.55790
     310 -> 314        0.30843
     311 -> 315       -0.24783
     312 -> 316       -0.14030

 Excited State   5:      Singlet-A      2.2131 eV  560.22 nm  f=0.0000  <S**2>=0.000
     312 -> 313        0.70616

 The electronic state is 1-A.
 Alpha  occ. eigenvalues --  -46.87909 -46.87338 -19.26323 -19.26093 -19.19060
 Alpha  occ. eigenvalues --  -19.18891 -19.18774 -19.18447 -19.18228 -19.17695
 Alpha  occ. eigenvalues --  -14.42568 -14.42186 -14.41618 -14.41031 -14.39501
 Alpha  occ. eigenvalues --  -14.39038 -14.38704 -14.38258 -10.39125 -10.38812
 Alpha  occ. eigenvalues --  -10.35404 -10.35132 -10.34451 -10.33871 -10.31707
 Alpha  occ. eigenvalues --  -10.31539 -10.31533 -10.31001 -10.30989 -10.30732
 Alpha  occ. eigenvalues --  -10.30694 -10.30625 -10.30377 -10.30091 -10.30063
 Alpha  occ. eigenvalues --  -10.30031 -10.29845 -10.29726 -10.29527 -10.29355
 Alpha  occ. eigenvalues --  -10.29124 -10.29087 -10.28855 -10.28672 -10.28479
 Alpha  occ. eigenvalues --  -10.28462 -10.28453 -10.28229 -10.28079 -10.27883
 Alpha  occ. eigenvalues --  -10.27880 -10.27849 -10.27752 -10.27679 -10.27664
 Alpha  occ. eigenvalues --  -10.27662 -10.27557 -10.27509 -10.27374 -10.27296
 Alpha  occ. eigenvalues --  -10.27226 -10.27165 -10.27164 -10.27142 -10.26960
 Alpha  occ. eigenvalues --  -10.26823 -10.26706 -10.26475 -10.26451 -10.26335
 Alpha  occ. eigenvalues --  -10.26306 -10.26252 -10.26193 -10.25993 -10.25952
 Alpha  occ. eigenvalues --  -10.25772 -10.25611 -10.25595 -10.25404 -10.25104
 Alpha  occ. eigenvalues --  -10.24926 -10.24918 -10.24577 -10.24519 -10.24329
 Alpha  occ. eigenvalues --  -10.24312  -3.16655  -3.16088  -1.91536  -1.91124
 Alpha  occ. eigenvalues --   -1.90970  -1.90964  -1.90559  -1.90395  -1.16673
 Alpha  occ. eigenvalues --   -1.16383  -1.08684  -1.08301  -1.07160  -1.06702
 Alpha  occ. eigenvalues --   -1.06683  -1.06673  -1.04694  -1.04183  -1.03903
 Alpha  occ. eigenvalues --   -1.03350  -1.03343  -1.02706  -1.02536  -1.01776
 Alpha  occ. eigenvalues --   -0.92073  -0.91656  -0.89787  -0.89304  -0.89207
 Alpha  occ. eigenvalues --   -0.88890  -0.88526  -0.87973  -0.87907  -0.87800
 Alpha  occ. eigenvalues --   -0.87425  -0.87373  -0.87325  -0.86867  -0.85098
 Alpha  occ. eigenvalues --   -0.84734  -0.84282  -0.83561  -0.83049  -0.82735
 Alpha  occ. eigenvalues --   -0.82680  -0.82388  -0.81679  -0.81305  -0.80693
 Alpha  occ. eigenvalues --   -0.80152  -0.78882  -0.78346  -0.77465  -0.77094
 Alpha  occ. eigenvalues --   -0.76863  -0.76615  -0.76044  -0.75561  -0.75174
 Alpha  occ. eigenvalues --   -0.74472  -0.72940  -0.72389  -0.71804  -0.71430
 Alpha  occ. eigenvalues --   -0.70515  -0.69244  -0.68948  -0.68558  -0.67737
 Alpha  occ. eigenvalues --   -0.67312  -0.67276  -0.66956  -0.65437  -0.65067
 Alpha  occ. eigenvalues --   -0.64975  -0.64815  -0.64547  -0.64444  -0.64333
 Alpha  occ. eigenvalues --   -0.63857  -0.62402  -0.61984  -0.60540  -0.60053
 Alpha  occ. eigenvalues --   -0.59911  -0.59511  -0.59122  -0.58671  -0.58630
 Alpha  occ. eigenvalues --   -0.58114  -0.57675  -0.57463  -0.57230  -0.56934
 Alpha  occ. eigenvalues --   -0.56411  -0.56058  -0.55910  -0.55682  -0.55615
 Alpha  occ. eigenvalues --   -0.55523  -0.55180  -0.55042  -0.54724  -0.54246
 Alpha  occ. eigenvalues --   -0.54008  -0.53663  -0.53404  -0.53277  -0.53086
 Alpha  occ. eigenvalues --   -0.52948  -0.52868  -0.52837  -0.52737  -0.52626
 Alpha  occ. eigenvalues --   -0.52450  -0.52211  -0.52022  -0.51693  -0.51496
 Alpha  occ. eigenvalues --   -0.51443  -0.51402  -0.50893  -0.50782  -0.50454
 Alpha  occ. eigenvalues --   -0.50258  -0.50013  -0.49804  -0.49677  -0.49566
 Alpha  occ. eigenvalues --   -0.49274  -0.49242  -0.49186  -0.48922  -0.48843
 Alpha  occ. eigenvalues --   -0.48712  -0.48574  -0.48458  -0.48440  -0.48231
 Alpha  occ. eigenvalues --   -0.48064  -0.47735  -0.47407  -0.47350  -0.47240
 Alpha  occ. eigenvalues --   -0.46813  -0.46676  -0.46573  -0.46445  -0.46353
 Alpha  occ. eigenvalues --   -0.46294  -0.45961  -0.45946  -0.45782  -0.45567
 Alpha  occ. eigenvalues --   -0.45369  -0.45128  -0.44636  -0.44459  -0.44336
 Alpha  occ. eigenvalues --   -0.44252  -0.44181  -0.44075  -0.43941  -0.43800
 Alpha  occ. eigenvalues --   -0.43782  -0.43654  -0.43559  -0.43507  -0.43271
 Alpha  occ. eigenvalues --   -0.43143  -0.42998  -0.42909  -0.42742  -0.42629
 Alpha  occ. eigenvalues --   -0.42470  -0.42361  -0.42067  -0.41738  -0.41706
 Alpha  occ. eigenvalues --   -0.41595  -0.41380  -0.41261  -0.41194  -0.40882
 Alpha  occ. eigenvalues --   -0.40813  -0.40722  -0.40532  -0.40468  -0.40379
 Alpha  occ. eigenvalues --   -0.40327  -0.40128  -0.39998  -0.39566  -0.39133
 Alpha  occ. eigenvalues --   -0.38566  -0.37885  -0.37865  -0.37491  -0.37393
 Alpha  occ. eigenvalues --   -0.37368  -0.36922  -0.36855  -0.36690  -0.36424
 Alpha  occ. eigenvalues --   -0.36272  -0.35839  -0.34405  -0.33912  -0.33823
 Alpha  occ. eigenvalues --   -0.33581  -0.33298  -0.32852  -0.31324  -0.31134
 Alpha  occ. eigenvalues --   -0.31000  -0.30634  -0.30090  -0.29600  -0.29517
 Alpha  occ. eigenvalues --   -0.29408  -0.29031  -0.28849  -0.24207  -0.23709
 Alpha  occ. eigenvalues --   -0.21253  -0.20783
 Alpha virt. eigenvalues --   -0.08875  -0.08473  -0.01877  -0.01351  -0.00094
 Alpha virt. eigenvalues --    0.00254   0.02099   0.02535   0.02738   0.03670
 Alpha virt. eigenvalues --    0.04577   0.05028   0.05059   0.05449   0.06016

 Mulliken charges:
               1
     1  Mg   0.835224
     2  C   -0.002010
     3  C   -0.094129
     4  C   -0.047339
     5  C   -0.063741
     6  N   -0.256154
     7  C   -0.052937
     8  C   -0.013821
     9  C   -0.087091
    10  C    0.046573
    11  C    0.104759
    12  C    0.053643
    13  C   -0.071517
    14  H    0.035417
    15  N   -0.433518
    16  C    0.169906
    17  C   -0.177372
    18  C   -0.002281
    19  C    0.151323
    20  C    0.110438
    21  C    0.016291
    22  O   -0.247823
    23  C    0.061830
    24  N   -0.340350
    25  C    0.041135
    26  C   -0.029289
    27  C   -0.024250
    28  C    0.070648
    29  C    0.076682
    30  C    0.076873
    31  C   -0.076847
    32  N   -0.309884
    33  C    0.075121
    34  C   -0.169309
    35  C    0.007621
    36  C    0.083980
    37  C    0.127264
    38  C    0.046415
    39  O   -0.187550
    40  C   -0.005659
    41  C    0.213059
    42  O   -0.256614
    43  O   -0.304918
    44  C    0.157358
    45  H   -0.017395
    46  H   -0.016545
    47  H   -0.042336
    48  H    0.001235
    49  H   -0.004275
    50  H    0.025781
    51  H    0.016603
    52  H    0.016791
    53  H    0.010665
    54  H    0.044382
    55  H    0.018333
    56  H    0.017400
    57  H    0.005373
    58  H    0.027271
    59  H    0.039602
    60  H    0.035834
    61  H    0.038130
    62  H    0.032295
    63  H    0.015416
    64  H    0.010489
    65  H    0.023799
    66  H    0.013577
    67  H    0.005063
    68  H    0.004399
    69  H   -0.001734
    70  H    0.016070
    71  H    0.030726
    72  H    0.080729
    73  H    0.047670
    74  H    0.008063
    75  H    0.046490
    76  H    0.035375
    77  H    0.043584
    78  H    0.045769
    79  H    0.054409
    80  Mg   0.837790
    81  C   -0.016059
    82  C   -0.088744
    83  C   -0.048174
    84  C   -0.062199
    85  N   -0.254397
    86  C   -0.048837
    87  C   -0.015178
    88  C   -0.090706
    89  C    0.045964
    90  C    0.114638
    91  C    0.062721
    92  C   -0.077333
    93  H    0.034142
    94  N   -0.423302
    95  C    0.162706
    96  C   -0.176629
    97  C   -0.008408
    98  C    0.151080
    99  C    0.100379
   100  C    0.013845
   101  O   -0.251954
   102  C    0.061637
   103  N   -0.350368
   104  C    0.041908
   105  C   -0.027229
   106  C   -0.032298
   107  C    0.087985
   108  C    0.129328
   109  C    0.019685
   110  C    0.004625
   111  N   -0.324984
   112  C    0.079931
   113  C   -0.160125
   114  C    0.003833
   115  C    0.096931
   116  C    0.130376
   117  C    0.044093
   118  O   -0.187449
   119  C    0.000249
   120  C    0.210919
   121  O   -0.251642
   122  O   -0.305437
   123  C    0.152283
   124  H   -0.021738
   125  H   -0.013766
   126  H   -0.041333
   127  H   -0.000693
   128  H   -0.005564
   129  H    0.024604
   130  H    0.014118
   131  H    0.013857
   132  H    0.013598
   133  H    0.037630
   134  H    0.020428
   135  H    0.018918
   136  H    0.007801
   137  H    0.023185
   138  H    0.039008
   139  H    0.036034
   140  H    0.035997
   141  H    0.033659
   142  H    0.009135
   143  H    0.004832
   144  H    0.030012
   145  H    0.001725
   146  H   -0.059651
   147  H    0.009410
   148  H    0.003145
   149  H    0.010049
   150  H    0.015969
   151  H    0.030060
   152  H    0.044792
   153  H    0.006398
   154  H    0.053854
   155  H    0.037081
   156  H    0.043579
   157  H    0.048883
   158  H    0.053194
 Sum of Mulliken charges =  -0.00000

 Dipole moment (field-independent basis, Debye):
    X=             -3.3599    Y=             -2.1822    Z=             -7.8573  Tot=              8.8198
 Quadrupole moment (field-independent basis, Debye-Ang):
   XX=           -504.3937   YY=           -554.5244   ZZ=           -448.5901
   XY=            -19.3332   XZ=            -32.0465   YZ=            -16.7583

 Normal termination of Gaussian 16 at Thu Sep  9 05:43:47 2021.
