 Gaussian 16, Revision A.03,
 Gaussian 16:  ES64L-G16RevA.03 25-Dec-2016

 -----------------------------------
 #p cam-b3lyp/Def2SVP td=(nstates=5)
 -----------------------------------

 --------------------------------
 TDDFT excited states in gaussian
 --------------------------------
 Symbolic Z-matrix:
 Charge =  0 Multiplicity = 1

                         Standard orientation:
 ---------------------------------------------------------------------
 Center     Atomic      Atomic             Coordinates (Angstroms)
 Number     Number       Type             X           Y           Z
 ---------------------------------------------------------------------
      1         12           0        6.730925    0.324341    0.013016
      2          6           0        6.702351   -3.248458   -0.202640
      3          6           0        7.540855    0.369353   -3.301354
      4          6           0        7.207030    3.447947    0.283263
      5          6           0        7.042935   -0.033863    3.465552
      6          7           0        7.050878   -1.299263   -1.457421
      7          6           0        6.950969   -2.624508   -1.427190
      8          6           0        7.060389   -3.284586   -2.834208
      9          6           0        7.871891   -2.137668   -3.587894
     10          6           0        7.435605   -0.944599   -2.755931
     11          6           0        9.385596   -2.287777   -3.475354
     12          6           0        5.658645   -3.520654   -3.490804
     13          6           0        5.655663   -4.448921   -4.708862
     14          1           0        4.517187   -5.331651   -4.913820
     15          7           0        6.811042    1.732517   -1.370267
     16          6           0        7.143303    1.569597   -2.673472
     17          6           0        7.055637    2.912044   -3.287339
     18          6           0        6.830268    3.898323   -2.194381
     19          6           0        6.968369    3.057971   -1.032437
     20          6           0        7.134091    3.148074   -4.764459
     21          6           0        6.547371    5.367369   -2.196471
     22          8           0        6.615367    6.074638   -1.133588
     23          6           0        6.271431    5.981364   -3.507924
     24          7           0        7.296256    1.541516    1.611929
     25          6           0        7.372334    2.869817    1.474769
     26          6           0        7.515288    3.548757    2.804635
     27          6           0        7.276255    2.417853    3.906303
     28          6           0        7.108886    1.201115    2.963009
     29          6           0        8.862819    4.236639    3.063456
     30          6           0        6.176871    2.687784    4.964089
     31          6           0        4.817268    2.691084    4.301845
     32          7           0        6.676301   -1.320102    1.428597
     33          6           0        6.851515   -1.242874    2.817845
     34          6           0        6.838963   -2.624625    3.332311
     35          6           0        6.672837   -3.415717    2.197224
     36          6           0        6.613371   -2.582492    1.043755
     37          6           0        7.028846   -3.010673    4.688535
     38          6           0        6.556438   -4.772509    1.687887
     39          8           0        6.447128   -5.885921    2.203501
     40          6           0        6.693139   -4.725833    0.102024
     41          6           0        5.578839   -5.555812   -0.474845
     42          8           0        4.388831   -5.198302   -0.358938
     43          8           0        6.096899   -6.504651   -1.269742
     44          6           0        5.042623   -7.345216   -1.897522
     45          1           0        8.024580    0.501069   -4.271201
     46          1           0        7.266726    4.527732    0.434716
     47          1           0        7.050204   -0.218659    4.541308
     48          1           0        7.625562   -4.216526   -2.856320
     49          1           0        7.544887   -2.019315   -4.620746
     50          1           0        9.656501   -3.087368   -2.786018
     51          1           0        9.746589   -1.327828   -3.105657
     52          1           0        9.836132   -2.418437   -4.459591
     53          1           0        5.321729   -2.596734   -3.960826
     54          1           0        4.944813   -3.890488   -2.753925
     55          1           0        6.589813   -5.005714   -4.787946
     56          1           0        5.630596   -3.832816   -5.607743
     57          1           0        7.467985    2.257349   -5.295185
     58          1           0        7.928377    3.875944   -4.928848
     59          1           0        6.196555    3.529254   -5.169501
     60          1           0        7.125829    5.823062   -4.166327
     61          1           0        6.003948    7.017660   -3.304472
     62          1           0        5.429079    5.465087   -3.969280
     63          1           0        6.766798    4.330554    2.927037
     64          1           0        8.172375    2.226427    4.497066
     65          1           0        8.774596    5.296950    3.301497
     66          1           0        9.493027    4.083533    2.187849
     67          1           0        9.466211    3.779615    3.847334
     68          1           0        6.316779    3.670006    5.414212
     69          1           0        6.164386    1.952820    5.769026
     70          1           0        4.736529    3.706972    3.916768
     71          1           0        4.036311    2.488442    5.035503
     72          1           0        4.789290    2.015329    3.446826
     73          1           0        6.284290   -3.779724    4.893877
     74          1           0        6.916625   -2.160926    5.361543
     75          1           0        8.053024   -3.381535    4.651420
     76          1           0        7.674374   -5.132845   -0.140135
     77          1           0        5.263039   -8.381414   -1.640724
     78          1           0        5.022703   -7.079123   -2.954500
     79          1           0        4.036730   -7.241495   -1.489159
     80         12           0       -6.478598    1.164509    0.288115
     81          6           0       -7.765517   -2.185449    0.262663
     82          6           0       -6.930801    1.204503   -3.092492
     83          6           0       -4.936962    3.936769    0.214515
     84          6           0       -5.089334    0.458897    3.405449
     85          7           0       -7.256065   -0.354840   -1.118777
     86          6           0       -7.773053   -1.569072   -1.005976
     87          6           0       -8.402467   -2.124008   -2.311895
     88          6           0       -7.575328   -1.243991   -3.370334
     89          6           0       -7.259743   -0.036210   -2.490373
     90          6           0       -6.262995   -1.884707   -3.790582
     91          6           0       -9.941997   -1.834980   -2.403188
     92          6           0      -10.678507   -2.612175   -3.496472
     93          1           0      -12.045063   -3.055566   -3.234909
     94          7           0       -6.441402    2.576683   -1.105775
     95          6           0       -6.671288    2.422537   -2.426632
     96          6           0       -6.503541    3.757017   -3.022627
     97          6           0       -5.994595    4.679538   -1.971611
     98          6           0       -5.746063    3.741482   -0.895336
     99          6           0       -6.892026    4.070607   -4.438310
    100          6           0       -5.757217    6.159103   -1.944517
    101          8           0       -5.085986    6.716282   -1.005448
    102          6           0       -6.253556    6.923937   -3.097845
    103          7           0       -5.023174    2.001467    1.514332
    104          6           0       -4.560390    3.243692    1.289295
    105          6           0       -3.730227    3.735298    2.450993
    106          6           0       -3.932760    2.654017    3.611771
    107          6           0       -4.812414    1.633672    2.856473
    108          6           0       -2.237240    3.911088    2.174437
    109          6           0       -4.427255    3.181537    4.986490
    110          6           0       -5.845744    3.689834    4.864345
    111          7           0       -6.571610   -0.469523    1.698560
    112          6           0       -5.891746   -0.571353    2.932042
    113          6           0       -6.180223   -1.913138    3.478693
    114          6           0       -6.995687   -2.512077    2.506693
    115          6           0       -7.184394   -1.614885    1.420903
    116          6           0       -5.668696   -2.442719    4.696893
    117          6           0       -7.731037   -3.703231    2.147392
    118          8           0       -8.005828   -4.759100    2.716037
    119          6           0       -8.158543   -3.591885    0.620547
    120          6           0       -9.613150   -3.960656    0.517397
    121          8           0      -10.484571   -3.249960    1.048592
    122          8           0       -9.751688   -4.963683   -0.368666
    123          6           0      -11.178499   -5.357334   -0.513807
    124          1           0       -6.819012    1.241669   -4.176465
    125          1           0       -4.470381    4.921655    0.290432
    126          1           0       -4.773511    0.198743    4.417999
    127          1           0       -8.227628   -3.178619   -2.487969
    128          1           0       -8.197523   -0.950501   -4.211826
    129          1           0       -6.046577   -2.773457   -3.216622
    130          1           0       -5.502366   -1.132953   -3.625167
    131          1           0       -6.265916   -2.078733   -4.866998
    132          1           0      -10.093022   -0.810418   -2.766794
    133          1           0      -10.418069   -2.003554   -1.456843
    134          1           0      -10.075516   -3.438420   -3.892285
    135          1           0      -10.823449   -1.951177   -4.354434
    136          1           0       -7.080589    3.156973   -5.015479
    137          1           0       -6.015636    4.519195   -4.918493
    138          1           0       -7.726826    4.771963   -4.500515
    139          1           0       -5.795478    6.543390   -4.007682
    140          1           0       -6.069659    7.972159   -2.854365
    141          1           0       -7.331691    6.753154   -3.193092
    142          1           0       -4.085451    4.696909    2.800603
    143          1           0       -2.992694    2.138068    3.856538
    144          1           0       -1.873191    4.935695    2.378715
    145          1           0       -2.046272    3.637845    1.145162
    146          1           0       -1.583596    3.231764    2.718906
    147          1           0       -3.819552    4.031361    5.306890
    148          1           0       -4.383083    2.438335    5.775605
    149          1           0       -5.711666    4.705912    4.481356
    150          1           0       -6.335573    3.695694    5.835985
    151          1           0       -6.403009    3.123691    4.108967
    152          1           0       -6.493041   -2.939775    5.190753
    153          1           0       -5.242552   -1.661045    5.322324
    154          1           0       -4.903758   -3.120634    4.308871
    155          1           0       -7.522610   -4.271456    0.051905
    156          1           0      -11.236512   -6.430410   -0.306858
    157          1           0      -11.479585   -5.022191   -1.524141
    158          1           0      -11.883021   -4.964039    0.209671
 ---------------------------------------------------------------------

 SCF Done:  E(RCAM-B3LYP) =  -4069.81164912     A.U. after   19 cycles

 Excitation energies and oscillator strengths:

 Excited State   1:      Singlet-A      1.6654 eV  744.47 nm  f=0.0078  <S**2>=0.000
     309 -> 315       -0.10900
     310 -> 316        0.13225
     311 -> 313       -0.43530
     312 -> 314        0.53100
 This state for optimization and/or second-order correction.
 Total Energy, E(TD-HF/TD-DFT) =  -4069.75044663
 Copying the excited state density for this state as the 1-particle RhoCI density.

 Excited State   2:      Singlet-A      1.6894 eV  733.88 nm  f=0.7356  <S**2>=0.000
     309 -> 315        0.13773
     310 -> 316        0.11228
     311 -> 313        0.52981
     312 -> 314        0.43439

 Excited State   3:      Singlet-A      2.1847 eV  567.50 nm  f=0.0536  <S**2>=0.000
     309 -> 313       -0.18158
     310 -> 314        0.61688
     312 -> 316       -0.26111

 Excited State   4:      Singlet-A      2.1935 eV  565.22 nm  f=0.1378  <S**2>=0.000
     309 -> 313        0.61450
     310 -> 314        0.17985
     311 -> 315       -0.26774

 Excited State   5:      Singlet-A      2.6567 eV  466.69 nm  f=0.0000  <S**2>=0.000
     312 -> 313        0.70705

 The electronic state is 1-A.
 Alpha  occ. eigenvalues --  -46.87826 -46.87551 -19.26299 -19.26257 -19.19066
 Alpha  occ. eigenvalues --  -19.19037 -19.18827 -19.18627 -19.18187 -19.17934
 Alpha  occ. eigenvalues --  -14.42480 -14.42390 -14.41480 -14.41247 -14.39430
 Alpha  occ. eigenvalues --  -14.39245 -14.38615 -14.38486 -10.39097 -10.38993
 Alpha  occ. eigenvalues --  -10.35460 -10.35307 -10.34408 -10.34111 -10.31691
 Alpha  occ. eigenvalues --  -10.31674 -10.31435 -10.31200 -10.30936 -10.30925
 Alpha  occ. eigenvalues --  -10.30599 -10.30534 -10.30285 -10.30248 -10.30238
 Alpha  occ. eigenvalues --  -10.30034 -10.29951 -10.29775 -10.29656 -10.29330
 Alpha  occ. eigenvalues --  -10.29293 -10.29281 -10.28781 -10.28628 -10.28589
 Alpha  occ. eigenvalues --  -10.28583 -10.28391 -10.28298 -10.28148 -10.28048
 Alpha  occ. eigenvalues --  -10.27890 -10.27817 -10.27757 -10.27609 -10.27566
 Alpha  occ. eigenvalues --  -10.27541 -10.27509 -10.27483 -10.27431 -10.27402
 Alpha  occ. eigenvalues --  -10.27399 -10.27376 -10.27363 -10.27256 -10.27178
 Alpha  occ. eigenvalues --  -10.26938 -10.26744 -10.26615 -10.26414 -10.26354
 Alpha  occ. eigenvalues --  -10.26262 -10.26242 -10.26051 -10.26039 -10.25929
 Alpha  occ. eigenvalues --  -10.25866 -10.25820 -10.25698 -10.25461 -10.25259
 Alpha  occ. eigenvalues --  -10.24857 -10.24815 -10.24768 -10.24758 -10.24640
 Alpha  occ. eigenvalues --  -10.24579  -3.16569  -3.16300  -1.91451  -1.91183
 Alpha  occ. eigenvalues --   -1.91037  -1.90879  -1.90771  -1.90608  -1.16648
 Alpha  occ. eigenvalues --   -1.16550  -1.08644  -1.08541  -1.07227  -1.06880
 Alpha  occ. eigenvalues --   -1.06849  -1.06659  -1.04610  -1.04389  -1.03790
 Alpha  occ. eigenvalues --   -1.03554  -1.03262  -1.02927  -1.02440  -1.02000
 Alpha  occ. eigenvalues --   -0.91998  -0.91877  -0.89557  -0.89385  -0.89220
 Alpha  occ. eigenvalues --   -0.89057  -0.88323  -0.88109  -0.87896  -0.87704
 Alpha  occ. eigenvalues --   -0.87670  -0.87579  -0.87296  -0.87031  -0.85013
 Alpha  occ. eigenvalues --   -0.84905  -0.83976  -0.83766  -0.82989  -0.82846
 Alpha  occ. eigenvalues --   -0.82676  -0.82560  -0.81609  -0.81495  -0.80621
 Alpha  occ. eigenvalues --   -0.80342  -0.78822  -0.78535  -0.77252  -0.77045
 Alpha  occ. eigenvalues --   -0.76966  -0.76799  -0.75950  -0.75740  -0.74930
 Alpha  occ. eigenvalues --   -0.74689  -0.72803  -0.72587  -0.71700  -0.71472
 Alpha  occ. eigenvalues --   -0.69955  -0.69652  -0.68902  -0.68732  -0.67666
 Alpha  occ. eigenvalues --   -0.67497  -0.67249  -0.67114  -0.65317  -0.65175
 Alpha  occ. eigenvalues --   -0.64882  -0.64664  -0.64651  -0.64553  -0.64305
 Alpha  occ. eigenvalues --   -0.64095  -0.62320  -0.62178  -0.60467  -0.60241
 Alpha  occ. eigenvalues --   -0.59834  -0.59697  -0.59016  -0.58884  -0.58531
 Alpha  occ. eigenvalues --   -0.58319  -0.57606  -0.57445  -0.57336  -0.57130
 Alpha  occ. eigenvalues --   -0.56335  -0.56099  -0.56000  -0.55792  -0.55542
 Alpha  occ. eigenvalues --   -0.55371  -0.55357  -0.55138  -0.54553  -0.54383
 Alpha  occ. eigenvalues --   -0.53926  -0.53820  -0.53325  -0.53247  -0.53125
 Alpha  occ. eigenvalues --   -0.53046  -0.52941  -0.52805  -0.52779  -0.52588
 Alpha  occ. eigenvalues --   -0.52488  -0.52300  -0.51939  -0.51748  -0.51644
 Alpha  occ. eigenvalues --   -0.51569  -0.51225  -0.51094  -0.50593  -0.50396
 Alpha  occ. eigenvalues --   -0.50070  -0.49941  -0.49886  -0.49760  -0.49539
 Alpha  occ. eigenvalues --   -0.49396  -0.49238  -0.49124  -0.49103  -0.49000
 Alpha  occ. eigenvalues --   -0.48618  -0.48489  -0.48463  -0.48455  -0.48261
 Alpha  occ. eigenvalues --   -0.48247  -0.47723  -0.47499  -0.47322  -0.47019
 Alpha  occ. eigenvalues --   -0.46830  -0.46604  -0.46585  -0.46462  -0.46388
 Alpha  occ. eigenvalues --   -0.46190  -0.46164  -0.45969  -0.45846  -0.45709
 Alpha  occ. eigenvalues --   -0.45234  -0.45095  -0.44601  -0.44536  -0.44413
 Alpha  occ. eigenvalues --   -0.44376  -0.44178  -0.44117  -0.44041  -0.44028
 Alpha  occ. eigenvalues --   -0.43978  -0.43845  -0.43519  -0.43453  -0.43417
 Alpha  occ. eigenvalues --   -0.43282  -0.43055  -0.42832  -0.42792  -0.42728
 Alpha  occ. eigenvalues --   -0.42688  -0.42450  -0.42049  -0.41864  -0.41731
 Alpha  occ. eigenvalues --   -0.41566  -0.41561  -0.41364  -0.41169  -0.40905
 Alpha  occ. eigenvalues --   -0.40884  -0.40842  -0.40636  -0.40607  -0.40607
 Alpha  occ. eigenvalues --   -0.40385  -0.40268  -0.40146  -0.39493  -0.39321
 Alpha  occ. eigenvalues --   -0.38506  -0.38241  -0.37783  -0.37566  -0.37355
 Alpha  occ. eigenvalues --   -0.37294  -0.37158  -0.37101  -0.36736  -0.36673
 Alpha  occ. eigenvalues --   -0.36221  -0.36111  -0.34315  -0.34144  -0.33789
 Alpha  occ. eigenvalues --   -0.33764  -0.33214  -0.33066  -0.31357  -0.31185
 Alpha  occ. eigenvalues --   -0.31062  -0.30866  -0.30047  -0.29838  -0.29473
 Alpha  occ. eigenvalues --   -0.29347  -0.29225  -0.29095  -0.24109  -0.23925
 Alpha  occ. eigenvalues --   -0.21156  -0.21008
 Alpha virt. eigenvalues --   -0.08800  -0.08684  -0.01778  -0.01576  -0.00079
 Alpha virt. eigenvalues --    0.00068   0.02177   0.02323   0.03081   0.03325
 Alpha virt. eigenvalues --    0.04685   0.04832   0.05080   0.05263   0.06141

 Mulliken charges:
               1
     1  Mg   0.838559
     2  C   -0.002944
     3  C   -0.094198
     4  C   -0.045827
     5  C   -0.064079
     6  N   -0.256767
     7  C   -0.052509
     8  C   -0.013991
     9  C   -0.086985
    10  C    0.046306
    11  C    0.104797
    12  C    0.053507
    13  C   -0.071705
    14  H    0.035922
    15  N   -0.433176
    16  C    0.168436
    17  C   -0.177160
    18  C   -0.003879
    19  C    0.148715
    20  C    0.110208
    21  C    0.012494
    22  O   -0.249384
    23  C    0.062406
    24  N   -0.341105
    25  C    0.041172
    26  C   -0.028243
    27  C   -0.023921
    28  C    0.074690
    29  C    0.076124
    30  C    0.035167
    31  C   -0.004509
    32  N   -0.310473
    33  C    0.080288
    34  C   -0.169803
    35  C    0.008433
    36  C    0.082907
    37  C    0.127319
    38  C    0.046152
    39  O   -0.188171
    40  C   -0.005360
    41  C    0.212960
    42  O   -0.257124
    43  O   -0.304803
    44  C    0.157599
    45  H   -0.017614
    46  H   -0.016700
    47  H   -0.041565
    48  H    0.001026
    49  H   -0.004164
    50  H    0.025557
    51  H    0.016500
    52  H    0.016651
    53  H    0.011007
    54  H    0.044149
    55  H    0.018010
    56  H    0.017749
    57  H    0.005745
    58  H    0.026908
    59  H    0.039472
    60  H    0.037206
    61  H    0.036052
    62  H    0.031539
    63  H    0.016573
    64  H    0.009586
    65  H    0.023346
    66  H    0.012640
    67  H    0.004800
    68  H    0.006476
    69  H    0.004704
    70  H    0.008965
    71  H    0.017136
    72  H    0.028989
    73  H    0.047663
    74  H    0.008960
    75  H    0.046134
    76  H    0.035218
    77  H    0.043164
    78  H    0.046216
    79  H    0.053860
    80  Mg   0.838080
    81  C   -0.016828
    82  C   -0.087975
    83  C   -0.045581
    84  C   -0.064175
    85  N   -0.254544
    86  C   -0.049609
    87  C   -0.015106
    88  C   -0.090574
    89  C    0.045822
    90  C    0.114433
    91  C    0.062599
    92  C   -0.077735
    93  H    0.034653
    94  N   -0.423425
    95  C    0.162860
    96  C   -0.175018
    97  C   -0.007989
    98  C    0.152031
    99  C    0.099563
   100  C    0.015329
   101  O   -0.253214
   102  C    0.061298
   103  N   -0.349978
   104  C    0.037608
   105  C   -0.019928
   106  C   -0.034843
   107  C    0.089015
   108  C    0.073561
   109  C    0.034677
   110  C   -0.007605
   111  N   -0.324243
   112  C    0.078591
   113  C   -0.162575
   114  C    0.002495
   115  C    0.096324
   116  C    0.131398
   117  C    0.042733
   118  O   -0.187600
   119  C    0.000785
   120  C    0.211205
   121  O   -0.251203
   122  O   -0.305535
   123  C    0.152091
   124  H   -0.020201
   125  H   -0.015609
   126  H   -0.040144
   127  H   -0.000605
   128  H   -0.004724
   129  H    0.022967
   130  H    0.014575
   131  H    0.015653
   132  H    0.013802
   133  H    0.037664
   134  H    0.020734
   135  H    0.019352
   136  H    0.008445
   137  H    0.025509
   138  H    0.039475
   139  H    0.037845
   140  H    0.036176
   141  H    0.033779
   142  H    0.014146
   143  H    0.013006
   144  H    0.025158
   145  H    0.011826
   146  H    0.006148
   147  H    0.006023
   148  H    0.003663
   149  H    0.010818
   150  H    0.017701
   151  H    0.030111
   152  H    0.045790
   153  H    0.008413
   154  H    0.048504
   155  H    0.035483
   156  H    0.043890
   157  H    0.049294
   158  H    0.053465
 Sum of Mulliken charges =  -0.00000

 Dipole moment (field-independent basis, Debye):
    X=              3.0437    Y=              2.5735    Z=             -7.9277  Tot=              8.8733
 Quadrupole moment (field-independent basis, Debye-Ang):
   XX=           -498.1335   YY=           -558.9621   ZZ=           -445.8767
   XY=             -5.3843   XZ=             24.6506   YZ=             31.1521

 Normal termination of Gaussian 16 at Sat Sep 11 12:31:08 2021.
