 Gaussian 16, Revision A.03,
 Gaussian 16:  ES64L-G16RevA.03 25-Dec-2016

 -----------------------------------
 #p cam-b3lyp/Def2SVP td=(nstates=5)
 -----------------------------------

 --------------------------------
 TDDFT excited states in gaussian
 --------------------------------
 Symbolic Z-matrix:
 Charge =  0 Multiplicity = 1

                         Standard orientation:
 ---------------------------------------------------------------------
 Center     Atomic      Atomic             Coordinates (Angstroms)
 Number     Number       Type             X           Y           Z
 ---------------------------------------------------------------------
      1         12           0       16.016660   -0.648375    0.503763
      2          6           0       16.281253    2.253886   -1.574478
      3          6           0       16.811172    1.355919    3.148499
      4          6           0       16.235148   -3.265268    2.281613
      5          6           0       16.366402   -2.567103   -2.384458
      6          7           0       16.464994    1.515038    0.642648
      7          6           0       16.474430    2.527622   -0.218604
      8          6           0       16.633922    3.918578    0.464901
      9          6           0       17.346367    3.455863    1.814091
     10          6           0       16.815751    2.035312    1.894132
     11          6           0       18.867588    3.407063    1.714051
     12          6           0       15.254551    4.602218    0.750743
     13          6           0       15.324577    6.088549    1.113054
     14          1           0       14.261955    6.971490    0.656328
     15          7           0       15.977019   -0.870920    2.466352
     16          6           0       16.318016    0.056067    3.393553
     17          6           0       16.118647   -0.590249    4.708547
     18          6           0       15.815936   -2.028423    4.467473
     19          6           0       16.025786   -2.119262    3.045120
     20          6           0       16.173436    0.153440    6.007653
     21          6           0       15.413248   -3.146244    5.376566
     22          8           0       15.425760   -4.367787    4.999404
     23          6           0       15.084226   -2.777444    6.765368
     24          7           0       16.484363   -2.633273    0.057593
     25          6           0       16.450636   -3.579333    1.002483
     26          6           0       16.540904   -4.951919    0.404322
     27          6           0       16.398615   -4.756518   -1.174071
     28          6           0       16.329264   -3.209981   -1.215101
     29          6           0       17.828033   -5.731031    0.708120
     30          6           0       15.283632   -5.563951   -1.884906
     31          6           0       13.926570   -5.064585   -1.442058
     32          7           0       16.101213   -0.264957   -1.630923
     33          6           0       16.273248   -1.211393   -2.651382
     34          6           0       16.375700   -0.465779   -3.919305
     35          6           0       16.272085    0.872235   -3.544036
     36          6           0       16.141213    0.958362   -2.128498
     37          6           0       16.600343   -1.033838   -5.204326
     38          6           0       16.266218    2.250405   -4.007147
     39          8           0       16.250188    2.793671   -5.112632
     40          6           0       16.394326    3.205547   -2.739425
     41          6           0       15.350455    4.280626   -2.873016
     42          8           0       14.135408    4.004826   -2.802588
     43          8           0       15.942595    5.483752   -2.824018
     44          6           0       14.959278    6.595390   -2.921502
     45          1           0       17.279806    1.835363    4.010157
     46          1           0       16.206303   -4.199962    2.845488
     47          1           0       16.391749   -3.102734   -3.335200
     48          1           0       17.273719    4.618530   -0.072826
     49          1           0       17.007947    4.035714    2.672559
     50          1           0       19.205162    3.574376    0.691323
     51          1           0       19.149459    2.408802    2.049484
     52          1           0       19.324672    4.100661    2.420290
     53          1           0       14.841565    4.204544    1.677759
     54          1           0       14.575529    4.468177   -0.092042
     55          1           0       16.301112    6.511224    0.875077
     56          1           0       15.246522    6.180046    2.196445
     57          1           0       16.577972    1.156499    5.878160
     58          1           0       16.904761   -0.355460    6.635262
     59          1           0       15.206648    0.172059    6.510949
     60          1           0       15.946958   -2.292948    7.223087
     61          1           0       14.733025   -3.690950    7.243924
     62          1           0       14.285912   -2.034808    6.753809
     63          1           0       15.731024   -5.587534    0.760009
     64          1           0       17.309032   -5.036472   -1.704581
     65          1           0       17.653604   -6.696055    1.184575
     66          1           0       18.466319   -5.099705    1.325623
     67          1           0       18.469068   -5.909035   -0.154901
     68          1           0       15.343555   -6.616419   -1.609831
     69          1           0       15.333778   -5.501923   -2.972053
     70          1           0       13.761565   -5.602880   -0.509404
     71          1           0       13.166901   -5.321794   -2.180947
     72          1           0       13.951914   -4.000952   -1.204300
     73          1           0       15.922074   -0.521979   -5.886910
     74          1           0       16.420481   -2.108652   -5.199069
     75          1           0       17.651433   -0.787080   -5.353243
     76          1           0       17.405034    3.612206   -2.754197
     77          1           0       15.264810    7.221595   -3.759805
     78          1           0       14.914692    7.057063   -1.934955
     79          1           0       13.949373    6.320164   -3.227575
     80         12           0      -15.711910   -0.654302   -0.455766
     81          6           0      -17.772814    1.704788    1.295349
     82          6           0      -14.483781    1.975249   -2.247915
     83          6           0      -14.221511   -2.747397   -2.317249
     84          6           0      -17.881745   -3.152065    0.639067
     85          7           0      -16.149491    1.512885   -0.391965
     86          6           0      -16.905692    2.301666    0.356600
     87          6           0      -16.663697    3.819540    0.139694
     88          6           0      -16.066466    3.757409   -1.349713
     89          6           0      -15.496828    2.340499   -1.325727
     90          6           0      -17.133758    3.824888   -2.429381
     91          6           0      -15.620593    4.409274    1.152690
     92          6           0      -15.565542    5.937753    1.202281
     93          1           0      -15.306258    6.583610    2.486078
     94          7           0      -14.185080   -0.407894   -1.699415
     95          6           0      -13.816151    0.732853   -2.318979
     96          6           0      -12.646765    0.384328   -3.140701
     97          6           0      -12.456029   -1.090491   -3.083510
     98          6           0      -13.652021   -1.483318   -2.365614
     99          6           0      -11.790105    1.415718   -3.815812
    100          6           0      -11.382144   -1.998434   -3.601788
    101          8           0      -11.538739   -3.269787   -3.646174
    102          6           0      -10.178997   -1.349008   -4.142301
    103          7           0      -16.121630   -2.626840   -0.969141
    104          6           0      -15.283075   -3.325223   -1.754657
    105          6           0      -15.637302   -4.793169   -1.761392
    106          6           0      -16.744652   -4.973154   -0.621673
    107          6           0      -16.911023   -3.498058   -0.195279
    108          6           0      -16.173976   -5.341929   -3.083230
    109          6           0      -16.457551   -6.032420    0.477520
    110          6           0      -15.288961   -5.589682    1.328264
    111          7           0      -17.395374   -0.770623    0.893484
    112          6           0      -18.175954   -1.910143    1.187204
    113          6           0      -19.275833   -1.468885    2.069227
    114          6           0      -19.070491   -0.088121    2.209964
    115          6           0      -17.935382    0.306984    1.451731
    116          6           0      -20.314086   -2.296679    2.581969
    117          6           0      -19.562102    1.126838    2.818983
    118          8           0      -20.442911    1.394624    3.635184
    119          6           0      -18.818195    2.363168    2.152284
    120          6           0      -18.349339    3.272708    3.254741
    121          8           0      -17.480902    2.893883    4.060297
    122          8           0      -18.840803    4.507733    3.046042
    123          6           0      -18.394292    5.448704    4.107660
    124          1           0      -14.200660    2.692637   -3.018683
    125          1           0      -13.679987   -3.529382   -2.854565
    126          1           0      -18.542897   -3.887440    1.102524
    127          1           0      -17.559149    4.429197    0.156092
    128          1           0      -15.271458    4.485702   -1.487188
    129          1           0      -18.129851    3.784383   -2.014310
    130          1           0      -16.956621    2.972277   -3.071825
    131          1           0      -16.982395    4.709721   -3.054290
    132          1           0      -14.607469    4.196513    0.787927
    133          1           0      -15.786069    4.021452    2.139013
    134          1           0      -16.430177    6.397602    0.708426
    135          1           0      -14.709673    6.273517    0.611706
    136          1           0      -12.271769    2.401316   -3.815687
    137          1           0      -11.733657    1.141109   -4.874713
    138          1           0      -10.778312    1.456129   -3.406780
    139          1           0      -10.460987   -0.688803   -4.959037
    140          1           0       -9.490245   -2.161843   -4.380660
    141          1           0       -9.742786   -0.715571   -3.361856
    142          1           0      -14.775360   -5.400126   -1.512892
    143          1           0      -17.711432   -5.290489   -1.039369
    144          1           0      -15.584760   -6.192998   -3.473850
    145          1           0      -16.198949   -4.534546   -3.802975
    146          1           0      -17.213621   -5.664185   -3.061366
    147          1           0      -16.167320   -6.982188    0.021606
    148          1           0      -17.309352   -6.230393    1.119582
    149          1           0      -14.422031   -5.909202    0.742241
    150          1           0      -15.312948   -6.082230    2.298240
    151          1           0      -15.250045   -4.496895    1.405458
    152          1           0      -20.440258   -2.029187    3.622649
    153          1           0      -20.074137   -3.351785    2.468150
    154          1           0      -21.142709   -1.992264    1.937001
    155          1           0      -19.530997    2.856170    1.490145
    156          1           0      -19.295885    5.892672    4.540919
    157          1           0      -17.680334    6.136263    3.616463
    158          1           0      -17.923488    5.025223    4.987123
 ---------------------------------------------------------------------

 SCF Done:  E(RCAM-B3LYP) =  -4069.81178827     A.U. after   19 cycles

 Excitation energies and oscillator strengths:

 Excited State   1:      Singlet-A      1.6755 eV  740.00 nm  f=0.2985  <S**2>=0.000
     310 -> 316        0.17042
     311 -> 314        0.13100
     312 -> 313        0.67343
     310 <- 316        0.10274
 This state for optimization and/or second-order correction.
 Total Energy, E(TD-HF/TD-DFT) =  -4069.75021583
 Copying the excited state density for this state as the 1-particle RhoCI density.

 Excited State   2:      Singlet-A      1.6800 eV  737.99 nm  f=0.4813  <S**2>=0.000
     309 -> 315        0.17238
     311 -> 314        0.67307
     312 -> 313       -0.13097
     309 <- 315        0.10322

 Excited State   3:      Singlet-A      2.1862 eV  567.11 nm  f=0.0955  <S**2>=0.000
     310 -> 313        0.64211
     312 -> 316       -0.27305

 Excited State   4:      Singlet-A      2.1926 eV  565.47 nm  f=0.1046  <S**2>=0.000
     309 -> 314        0.64035
     311 -> 315       -0.27819

 Excited State   5:      Singlet-A      3.0664 eV  404.33 nm  f=0.0000  <S**2>=0.000
     311 -> 313        0.70709

 The electronic state is 1-A.
 Alpha  occ. eigenvalues --  -46.87791 -46.87660 -19.26353 -19.26286 -19.19164
 Alpha  occ. eigenvalues --  -19.19021 -19.18806 -19.18706 -19.18167 -19.18053
 Alpha  occ. eigenvalues --  -14.42497 -14.42444 -14.41443 -14.41359 -14.39397
 Alpha  occ. eigenvalues --  -14.39351 -14.38599 -14.38581 -10.39093 -10.39080
 Alpha  occ. eigenvalues --  -10.35439 -10.35383 -10.34387 -10.34230 -10.31761
 Alpha  occ. eigenvalues --  -10.31683 -10.31400 -10.31309 -10.31021 -10.30903
 Alpha  occ. eigenvalues --  -10.30565 -10.30502 -10.30397 -10.30361 -10.30200
 Alpha  occ. eigenvalues --  -10.30139 -10.29915 -10.29895 -10.29625 -10.29435
 Alpha  occ. eigenvalues --  -10.29399 -10.29248 -10.28745 -10.28719 -10.28654
 Alpha  occ. eigenvalues --  -10.28537 -10.28404 -10.28359 -10.28140 -10.28112
 Alpha  occ. eigenvalues --  -10.28000 -10.27787 -10.27721 -10.27668 -10.27578
 Alpha  occ. eigenvalues --  -10.27518 -10.27493 -10.27483 -10.27473 -10.27464
 Alpha  occ. eigenvalues --  -10.27457 -10.27442 -10.27398 -10.27376 -10.27156
 Alpha  occ. eigenvalues --  -10.27052 -10.26702 -10.26692 -10.26400 -10.26398
 Alpha  occ. eigenvalues --  -10.26230 -10.26176 -10.26138 -10.26025 -10.26013
 Alpha  occ. eigenvalues --  -10.25934 -10.25854 -10.25840 -10.25427 -10.25397
 Alpha  occ. eigenvalues --  -10.24872 -10.24828 -10.24781 -10.24731 -10.24689
 Alpha  occ. eigenvalues --  -10.24678  -3.16533  -3.16410  -1.91415  -1.91292
 Alpha  occ. eigenvalues --   -1.91002  -1.90880  -1.90844  -1.90717  -1.16647
 Alpha  occ. eigenvalues --   -1.16634  -1.08661  -1.08625  -1.07207  -1.06958
 Alpha  occ. eigenvalues --   -1.06948  -1.06643  -1.04576  -1.04494  -1.03754
 Alpha  occ. eigenvalues --   -1.03662  -1.03228  -1.03038  -1.02405  -1.02111
 Alpha  occ. eigenvalues --   -0.91987  -0.91968  -0.89513  -0.89494  -0.89184
 Alpha  occ. eigenvalues --   -0.89151  -0.88280  -0.88220  -0.87866  -0.87794
 Alpha  occ. eigenvalues --   -0.87683  -0.87667  -0.87266  -0.87114  -0.84999
 Alpha  occ. eigenvalues --   -0.84977  -0.83930  -0.83876  -0.82958  -0.82925
 Alpha  occ. eigenvalues --   -0.82650  -0.82643  -0.81598  -0.81583  -0.80592
 Alpha  occ. eigenvalues --   -0.80442  -0.78791  -0.78632  -0.77213  -0.77144
 Alpha  occ. eigenvalues --   -0.76930  -0.76899  -0.75919  -0.75839  -0.74892
 Alpha  occ. eigenvalues --   -0.74803  -0.72769  -0.72699  -0.71667  -0.71581
 Alpha  occ. eigenvalues --   -0.69900  -0.69758  -0.68868  -0.68826  -0.67636
 Alpha  occ. eigenvalues --   -0.67600  -0.67215  -0.67197  -0.65282  -0.65272
 Alpha  occ. eigenvalues --   -0.64849  -0.64770  -0.64654  -0.64616  -0.64263
 Alpha  occ. eigenvalues --   -0.64204  -0.62296  -0.62280  -0.60435  -0.60336
 Alpha  occ. eigenvalues --   -0.59799  -0.59796  -0.58993  -0.58982  -0.58499
 Alpha  occ. eigenvalues --   -0.58425  -0.57582  -0.57556  -0.57303  -0.57235
 Alpha  occ. eigenvalues --   -0.56304  -0.56203  -0.55977  -0.55887  -0.55514
 Alpha  occ. eigenvalues --   -0.55449  -0.55335  -0.55248  -0.54520  -0.54489
 Alpha  occ. eigenvalues --   -0.53912  -0.53891  -0.53293  -0.53226  -0.53217
 Alpha  occ. eigenvalues --   -0.53140  -0.52911  -0.52902  -0.52749  -0.52662
 Alpha  occ. eigenvalues --   -0.52431  -0.52401  -0.51911  -0.51887  -0.51656
 Alpha  occ. eigenvalues --   -0.51612  -0.51202  -0.51191  -0.50563  -0.50467
 Alpha  occ. eigenvalues --   -0.50024  -0.49977  -0.49911  -0.49866  -0.49509
 Alpha  occ. eigenvalues --   -0.49484  -0.49210  -0.49201  -0.49105  -0.49092
 Alpha  occ. eigenvalues --   -0.48589  -0.48559  -0.48455  -0.48439  -0.48376
 Alpha  occ. eigenvalues --   -0.48333  -0.47689  -0.47593  -0.47291  -0.47116
 Alpha  occ. eigenvalues --   -0.46791  -0.46709  -0.46553  -0.46551  -0.46353
 Alpha  occ. eigenvalues --   -0.46270  -0.46158  -0.46086  -0.45824  -0.45819
 Alpha  occ. eigenvalues --   -0.45208  -0.45195  -0.44574  -0.44514  -0.44500
 Alpha  occ. eigenvalues --   -0.44475  -0.44138  -0.44127  -0.44083  -0.44077
 Alpha  occ. eigenvalues --   -0.44014  -0.43935  -0.43555  -0.43492  -0.43385
 Alpha  occ. eigenvalues --   -0.43380  -0.43022  -0.42932  -0.42902  -0.42697
 Alpha  occ. eigenvalues --   -0.42650  -0.42552  -0.42004  -0.41964  -0.41699
 Alpha  occ. eigenvalues --   -0.41669  -0.41529  -0.41458  -0.41136  -0.40989
 Alpha  occ. eigenvalues --   -0.40864  -0.40815  -0.40719  -0.40695  -0.40565
 Alpha  occ. eigenvalues --   -0.40493  -0.40230  -0.40225  -0.39433  -0.39426
 Alpha  occ. eigenvalues --   -0.38462  -0.38350  -0.37744  -0.37654  -0.37314
 Alpha  occ. eigenvalues --   -0.37266  -0.37259  -0.37199  -0.36774  -0.36711
 Alpha  occ. eigenvalues --   -0.36218  -0.36189  -0.34280  -0.34253  -0.33864
 Alpha  occ. eigenvalues --   -0.33770  -0.33181  -0.33175  -0.31336  -0.31266
 Alpha  occ. eigenvalues --   -0.31030  -0.30972  -0.30026  -0.29957  -0.29443
 Alpha  occ. eigenvalues --   -0.29325  -0.29317  -0.29211  -0.24075  -0.24036
 Alpha  occ. eigenvalues --   -0.21122  -0.21116
 Alpha virt. eigenvalues --   -0.08791  -0.08768  -0.01743  -0.01682  -0.00051
 Alpha virt. eigenvalues --   -0.00025   0.02205   0.02207   0.03126   0.03227
 Alpha virt. eigenvalues --    0.04723   0.04730   0.05098   0.05162   0.06180

 Mulliken charges:
               1
     1  Mg   0.838658
     2  C   -0.002999
     3  C   -0.094120
     4  C   -0.045837
     5  C   -0.063937
     6  N   -0.256791
     7  C   -0.052444
     8  C   -0.014036
     9  C   -0.086978
    10  C    0.046323
    11  C    0.104808
    12  C    0.053460
    13  C   -0.071789
    14  H    0.036063
    15  N   -0.433123
    16  C    0.168438
    17  C   -0.177142
    18  C   -0.003965
    19  C    0.148720
    20  C    0.110181
    21  C    0.012316
    22  O   -0.249582
    23  C    0.062458
    24  N   -0.341119
    25  C    0.041249
    26  C   -0.028196
    27  C   -0.023974
    28  C    0.074838
    29  C    0.076178
    30  C    0.035124
    31  C   -0.004510
    32  N   -0.310441
    33  C    0.080367
    34  C   -0.169734
    35  C    0.008339
    36  C    0.082968
    37  C    0.127320
    38  C    0.046089
    39  O   -0.188525
    40  C   -0.005312
    41  C    0.212872
    42  O   -0.257131
    43  O   -0.304793
    44  C    0.157721
    45  H   -0.017587
    46  H   -0.016802
    47  H   -0.041505
    48  H    0.000910
    49  H   -0.004023
    50  H    0.025460
    51  H    0.016462
    52  H    0.016663
    53  H    0.011231
    54  H    0.044094
    55  H    0.017864
    56  H    0.017979
    57  H    0.005875
    58  H    0.026852
    59  H    0.039607
    60  H    0.037350
    61  H    0.035717
    62  H    0.031535
    63  H    0.016593
    64  H    0.009451
    65  H    0.023243
    66  H    0.012543
    67  H    0.004746
    68  H    0.006390
    69  H    0.004709
    70  H    0.008822
    71  H    0.018148
    72  H    0.028969
    73  H    0.047516
    74  H    0.009112
    75  H    0.045989
    76  H    0.035135
    77  H    0.042899
    78  H    0.046410
    79  H    0.053634
    80  Mg   0.837845
    81  C   -0.016818
    82  C   -0.087778
    83  C   -0.045482
    84  C   -0.064899
    85  N   -0.254577
    86  C   -0.049880
    87  C   -0.015102
    88  C   -0.090493
    89  C    0.045757
    90  C    0.114366
    91  C    0.062530
    92  C   -0.077906
    93  H    0.034872
    94  N   -0.423501
    95  C    0.162942
    96  C   -0.174583
    97  C   -0.007747
    98  C    0.152121
    99  C    0.099342
   100  C    0.015612
   101  O   -0.253135
   102  C    0.061174
   103  N   -0.350071
   104  C    0.037535
   105  C   -0.019845
   106  C   -0.034782
   107  C    0.088894
   108  C    0.073652
   109  C    0.034728
   110  C   -0.007688
   111  N   -0.324103
   112  C    0.078419
   113  C   -0.163173
   114  C    0.002223
   115  C    0.096186
   116  C    0.131497
   117  C    0.042345
   118  O   -0.187938
   119  C    0.000934
   120  C    0.211242
   121  O   -0.251017
   122  O   -0.305637
   123  C    0.152037
   124  H   -0.019600
   125  H   -0.015527
   126  H   -0.040486
   127  H   -0.000671
   128  H   -0.004284
   129  H    0.022430
   130  H    0.014437
   131  H    0.016316
   132  H    0.013953
   133  H    0.037659
   134  H    0.020776
   135  H    0.019639
   136  H    0.008786
   137  H    0.026234
   138  H    0.039927
   139  H    0.038301
   140  H    0.036538
   141  H    0.033958
   142  H    0.014437
   143  H    0.012390
   144  H    0.025184
   145  H    0.011645
   146  H    0.005650
   147  H    0.006273
   148  H    0.003619
   149  H    0.010976
   150  H    0.017919
   151  H    0.030106
   152  H    0.045968
   153  H    0.008496
   154  H    0.046899
   155  H    0.034996
   156  H    0.043881
   157  H    0.049510
   158  H    0.053565
 Sum of Mulliken charges =  -0.00000

 Dipole moment (field-independent basis, Debye):
    X=              3.5272    Y=              3.1189    Z=              0.5040  Tot=              4.7353
 Quadrupole moment (field-independent basis, Debye-Ang):
   XX=           -513.2693   YY=           -464.0025   ZZ=           -528.2707
   XY=              3.8558   XZ=            130.9996   YZ=             19.4564

 Normal termination of Gaussian 16 at Sun Sep 12 10:40:10 2021.
