 Gaussian 16, Revision A.03,
 Gaussian 16:  ES64L-G16RevA.03 25-Dec-2016

 -----------------------------------
 #p cam-b3lyp/Def2SVP td=(nstates=5)
 -----------------------------------

 --------------------------------
 TDDFT excited states in gaussian
 --------------------------------
 Symbolic Z-matrix:
 Charge =  0 Multiplicity = 1

                         Standard orientation:
 ---------------------------------------------------------------------
 Center     Atomic      Atomic             Coordinates (Angstroms)
 Number     Number       Type             X           Y           Z
 ---------------------------------------------------------------------
      1         12           0       -3.316091   -2.013609    0.348349
      2          6           0       -5.314464    0.793011   -0.622015
      3          6           0       -3.706820   -3.200478   -2.826826
      4          6           0       -1.944066   -4.708492    1.303218
      5          6           0       -4.032038   -1.191400    3.658493
      6          7           0       -4.394649   -1.213462   -1.411516
      7          6           0       -5.071026   -0.098446   -1.669243
      8          6           0       -5.432518    0.070745   -3.175255
      9          6           0       -5.386230   -1.459996   -3.618751
     10          6           0       -4.410648   -1.984456   -2.579951
     11          6           0       -6.718466   -2.183508   -3.450880
     12          6           0       -4.371724    0.923734   -3.949113
     13          6           0       -4.808265    1.409251   -5.334414
     14          1           0       -4.365201    2.718480   -5.789347
     15          7           0       -2.475736   -3.463894   -0.697274
     16          6           0       -2.743675   -3.795141   -1.983264
     17          6           0       -1.860699   -4.937613   -2.302315
     18          6           0       -1.194981   -5.364486   -1.040295
     19          6           0       -1.873545   -4.535544   -0.077080
     20          6           0       -1.680555   -5.476319   -3.688350
     21          6           0       -0.125529   -6.368769   -0.747347
     22          8           0        0.143306   -6.748319    0.443554
     23          6           0        0.547792   -6.970265   -1.912629
     24          7           0       -3.203075   -2.971054    2.199878
     25          6           0       -2.497520   -4.097052    2.352539
     26          6           0       -2.325990   -4.441602    3.802298
     27          6           0       -2.857287   -3.178860    4.622639
     28          6           0       -3.344291   -2.313376    3.434348
     29          6           0       -3.055200   -5.704639    4.280838
     30          6           0       -1.882555   -2.544589    5.646367
     31          6           0       -0.719289   -1.906820    4.920310
     32          7           0       -4.314454   -0.383727    1.376844
     33          6           0       -4.516913   -0.256949    2.758731
     34          6           0       -5.332942    0.953417    2.966528
     35          6           0       -5.563949    1.440637    1.681577
     36          6           0       -4.954405    0.574122    0.729790
     37          6           0       -5.809180    1.432561    4.218747
     38          6           0       -6.204756    2.478148    0.889874
     39          8           0       -6.788670    3.531179    1.149995
     40          6           0       -6.172184    2.033806   -0.638957
     41          6           0       -5.691189    3.210167   -1.444022
     42          8           0       -4.522423    3.631328   -1.325806
     43          8           0       -6.597120    3.501738   -2.389969
     44          6           0       -6.167484    4.641594   -3.243372
     45          1           0       -3.955371   -3.782994   -3.716117
     46          1           0       -1.388287   -5.568027    1.683674
     47          1           0       -4.223277   -0.825682    4.669003
     48          1           0       -6.424745    0.482323   -3.361036
     49          1           0       -4.974520   -1.581172   -4.620516
     50          1           0       -7.447321   -1.560961   -2.932107
     51          1           0       -6.493715   -3.075031   -2.865076
     52          1           0       -7.088446   -2.541826   -4.411869
     53          1           0       -3.534245    0.285809   -4.231500
     54          1           0       -4.053447    1.778493   -3.351274
     55          1           0       -5.884127    1.300237   -5.474215
     56          1           0       -4.369604    0.748175   -6.081913
     57          1           0       -2.422305   -5.070681   -4.375234
     58          1           0       -1.902954   -6.542404   -3.647004
     59          1           0       -0.666129   -5.326484   -4.058244
     60          1           0       -0.192525   -7.470078   -2.537663
     61          1           0        1.342550   -7.597324   -1.510126
     62          1           0        0.976667   -6.174436   -2.522277
     63          1           0       -1.276888   -4.608354    4.043142
     64          1           0       -3.743398   -3.417030    5.211499
     65          1           0       -2.395955   -6.446128    4.732828
     66          1           0       -3.593027   -6.125391    3.431721
     67          1           0       -3.867678   -5.524514    4.984295
     68          1           0       -1.470219   -3.310616    6.302208
     69          1           0       -2.351313   -1.787211    6.274773
     70          1           0       -0.045226   -2.746651    4.755523
     71          1           0       -0.250504   -1.146995    5.546504
     72          1           0       -1.018323   -1.532034    3.941229
     73          1           0       -5.653990    2.511372    4.211562
     74          1           0       -5.282703    0.962148    5.048890
     75          1           0       -6.855758    1.133215    4.164697
     76          1           0       -7.189024    1.745163   -0.903234
     77          1           0       -6.957864    5.391012   -3.199719
     78          1           0       -5.920922    4.222500   -4.219063
     79          1           0       -5.315799    5.219497   -2.882817
     80         12           0        3.446127    2.152425    0.153519
     81          6           0        4.981859   -0.794760   -1.200998
     82          6           0        3.469253    0.589827    3.185408
     83          6           0        1.692038    4.541221    1.286757
     84          6           0        2.516316    2.993857   -3.098123
     85          7           0        4.160574    0.156324    0.783936
     86          6           0        4.782381   -0.853494    0.194063
     87          6           0        5.286371   -1.954282    1.165579
     88          6           0        4.266605   -1.690450    2.377751
     89          6           0        3.968118   -0.213394    2.128970
     90          6           0        2.967227   -2.468225    2.251195
     91          6           0        6.774682   -1.726144    1.607028
     92          6           0        7.428719   -2.920603    2.305065
     93          1           0        8.848069   -3.171892    2.071041
     94          7           0        3.123607    2.734427    2.023233
     95          6           0        3.198755    1.975010    3.136301
     96          6           0        2.852636    2.865465    4.254994
     97          6           0        2.406852    4.170342    3.695264
     98          6           0        2.369584    3.852019    2.281984
     99          6           0        3.035668    2.474629    5.692754
    100          6           0        2.057941    5.483178    4.328440
    101          8           0        1.466746    6.411540    3.671577
    102          6           0        2.344461    5.615194    5.764393
    103          7           0        2.092871    3.454596   -0.738316
    104          6           0        1.508472    4.436455   -0.029544
    105          6           0        0.793016    5.410898   -0.934526
    106          6           0        1.223755    5.011515   -2.421991
    107          6           0        2.080759    3.764793   -2.111146
    108          6           0       -0.731990    5.418100   -0.831170
    109          6           0        1.842104    6.133157   -3.300745
    110          6           0        3.189457    6.538370   -2.747717
    111          7           0        3.843538    1.383554   -1.826121
    112          6           0        3.332810    1.871224   -3.048992
    113          6           0        3.792771    0.952275   -4.110307
    114          6           0        4.525831   -0.026883   -3.423018
    115          6           0        4.506012    0.250282   -2.029362
    116          6           0        3.480610    1.057958   -5.495046
    117          6           0        5.302999   -1.237821   -3.558444
    118          8           0        5.729454   -1.894772   -4.507278
    119          6           0        5.526849   -1.858981   -2.112605
    120          6           0        6.981962   -2.216511   -1.980874
    121          8           0        7.853507   -1.329387   -1.983251
    122          8           0        7.088314   -3.518147   -1.657122
    123          6           0        8.512678   -3.917810   -1.504521
    124          1           0        3.220768    0.107395    4.131139
    125          1           0        1.161790    5.439173    1.612338
    126          1           0        2.350700    3.241391   -4.148822
    127          1           0        5.175297   -2.968160    0.800217
    128          1           0        4.753882   -1.824167    3.340054
    129          1           0        2.895239   -2.980940    1.303517
    130          1           0        2.175828   -1.736345    2.346459
    131          1           0        2.851499   -3.149367    3.099128
    132          1           0        6.797393   -0.994847    2.425221
    133          1           0        7.376766   -1.420640    0.773487
    134          1           0        6.848686   -3.842326    2.174938
    135          1           0        7.412744   -2.743834    3.383259
    136          1           0        3.222873    1.398715    5.796433
    137          1           0        2.073466    2.632257    6.191949
    138          1           0        3.797852    3.071818    6.197835
    139          1           0        1.808351    4.843753    6.312033
    140          1           0        2.109646    6.651457    6.015172
    141          1           0        3.412482    5.431560    5.926350
    142          1           0        1.111502    6.427160   -0.737344
    143          1           0        0.365464    4.662957   -3.015014
    144          1           0       -1.148005    6.412995   -0.583799
    145          1           0       -1.027322    4.687437   -0.089929
    146          1           0       -1.256718    5.070953   -1.719627
    147          1           0        1.213463    7.026551   -3.272187
    148          1           0        1.955708    5.852480   -4.342530
    149          1           0        2.928454    7.249866   -1.958578
    150          1           0        3.794429    7.009591   -3.519722
    151          1           0        3.691509    5.687946   -2.271932
    152          1           0        4.396889    0.863574   -6.036485
    153          1           0        3.074925    2.037968   -5.737482
    154          1           0        2.729585    0.268736   -5.586461
    155          1           0        4.881068   -2.733867   -2.028353
    156          1           0        8.681054   -4.763785   -2.178052
    157          1           0        8.658032   -4.098437   -0.422853
    158          1           0        9.268311   -3.220779   -1.847459
 ---------------------------------------------------------------------

 SCF Done:  E(RCAM-B3LYP) =  -4069.81301835     A.U. after   19 cycles

 Excitation energies and oscillator strengths:

 Excited State   1:      Singlet-A      1.6437 eV  754.32 nm  f=0.0648  <S**2>=0.000
     309 -> 315        0.10859
     310 -> 316        0.12566
     311 -> 313       -0.45111
     312 -> 314        0.51931
 This state for optimization and/or second-order correction.
 Total Energy, E(TD-HF/TD-DFT) =  -4069.75261494
 Copying the excited state density for this state as the 1-particle RhoCI density.

 Excited State   2:      Singlet-A      1.7010 eV  728.90 nm  f=0.6050  <S**2>=0.000
     309 -> 315       -0.13652
     310 -> 316        0.11823
     311 -> 313        0.51635
     312 -> 314        0.44854

 Excited State   3:      Singlet-A      2.1785 eV  569.13 nm  f=0.0351  <S**2>=0.000
     309 -> 313        0.30862
     310 -> 314        0.56771
     311 -> 315        0.12627
     312 -> 316       -0.23312

 Excited State   4:      Singlet-A      2.1978 eV  564.14 nm  f=0.1418  <S**2>=0.000
     309 -> 313        0.56098
     310 -> 314       -0.30356
     311 -> 315        0.24828
     312 -> 316        0.13583

 Excited State   5:      Singlet-A      2.2243 eV  557.41 nm  f=0.0001  <S**2>=0.000
     312 -> 313        0.70683

 The electronic state is 1-A.
 Alpha  occ. eigenvalues --  -46.87947 -46.87370 -19.26520 -19.26209 -19.19326
 Alpha  occ. eigenvalues --  -19.19007 -19.18952 -19.18439 -19.18301 -19.17880
 Alpha  occ. eigenvalues --  -14.42598 -14.42207 -14.41623 -14.41023 -14.39547
 Alpha  occ. eigenvalues --  -14.39069 -14.38731 -14.38333 -10.39345 -10.38933
 Alpha  occ. eigenvalues --  -10.35575 -10.35118 -10.34528 -10.34058 -10.31906
 Alpha  occ. eigenvalues --  -10.31637 -10.31549 -10.31054 -10.31053 -10.30735
 Alpha  occ. eigenvalues --  -10.30712 -10.30668 -10.30387 -10.30128 -10.30120
 Alpha  occ. eigenvalues --  -10.30112 -10.29778 -10.29770 -10.29525 -10.29392
 Alpha  occ. eigenvalues --  -10.29167 -10.29141 -10.28898 -10.28713 -10.28503
 Alpha  occ. eigenvalues --  -10.28442 -10.28438 -10.28248 -10.28139 -10.27922
 Alpha  occ. eigenvalues --  -10.27865 -10.27842 -10.27776 -10.27753 -10.27715
 Alpha  occ. eigenvalues --  -10.27713 -10.27561 -10.27511 -10.27391 -10.27332
 Alpha  occ. eigenvalues --  -10.27295 -10.27224 -10.27206 -10.27020 -10.26879
 Alpha  occ. eigenvalues --  -10.26872 -10.26724 -10.26580 -10.26459 -10.26444
 Alpha  occ. eigenvalues --  -10.26348 -10.26192 -10.26186 -10.25957 -10.25773
 Alpha  occ. eigenvalues --  -10.25742 -10.25666 -10.25641 -10.25633 -10.25218
 Alpha  occ. eigenvalues --  -10.24964 -10.24964 -10.24637 -10.24413 -10.24338
 Alpha  occ. eigenvalues --  -10.24242  -3.16689  -3.16121  -1.91570  -1.91158
 Alpha  occ. eigenvalues --   -1.91004  -1.90999  -1.90591  -1.90429  -1.16874
 Alpha  occ. eigenvalues --   -1.16500  -1.08765  -1.08501  -1.07356  -1.06907
 Alpha  occ. eigenvalues --   -1.06794  -1.06685  -1.04728  -1.04214  -1.03928
 Alpha  occ. eigenvalues --   -1.03385  -1.03366  -1.02724  -1.02566  -1.01808
 Alpha  occ. eigenvalues --   -0.92130  -0.91737  -0.89766  -0.89334  -0.89154
 Alpha  occ. eigenvalues --   -0.88859  -0.88524  -0.87999  -0.87826  -0.87780
 Alpha  occ. eigenvalues --   -0.87582  -0.87376  -0.87364  -0.86886  -0.85139
 Alpha  occ. eigenvalues --   -0.84713  -0.84216  -0.83420  -0.83107  -0.82797
 Alpha  occ. eigenvalues --   -0.82627  -0.82358  -0.81771  -0.81382  -0.80759
 Alpha  occ. eigenvalues --   -0.80195  -0.78912  -0.78400  -0.77408  -0.77118
 Alpha  occ. eigenvalues --   -0.76865  -0.76577  -0.76084  -0.75580  -0.75114
 Alpha  occ. eigenvalues --   -0.74252  -0.72932  -0.72422  -0.71840  -0.71180
 Alpha  occ. eigenvalues --   -0.70221  -0.69316  -0.69024  -0.68550  -0.67795
 Alpha  occ. eigenvalues --   -0.67363  -0.67308  -0.66953  -0.65452  -0.65036
 Alpha  occ. eigenvalues --   -0.65007  -0.64821  -0.64498  -0.64488  -0.64375
 Alpha  occ. eigenvalues --   -0.63809  -0.62505  -0.62046  -0.60582  -0.60039
 Alpha  occ. eigenvalues --   -0.59946  -0.59523  -0.59162  -0.58680  -0.58677
 Alpha  occ. eigenvalues --   -0.58139  -0.57767  -0.57502  -0.57364  -0.56903
 Alpha  occ. eigenvalues --   -0.56450  -0.56174  -0.55973  -0.55672  -0.55661
 Alpha  occ. eigenvalues --   -0.55582  -0.55228  -0.54897  -0.54774  -0.54121
 Alpha  occ. eigenvalues --   -0.54046  -0.53629  -0.53469  -0.53361  -0.53126
 Alpha  occ. eigenvalues --   -0.52953  -0.52888  -0.52873  -0.52751  -0.52648
 Alpha  occ. eigenvalues --   -0.52422  -0.52051  -0.52035  -0.51751  -0.51720
 Alpha  occ. eigenvalues --   -0.51414  -0.51383  -0.50952  -0.50665  -0.50266
 Alpha  occ. eigenvalues --   -0.50228  -0.50042  -0.49697  -0.49656  -0.49380
 Alpha  occ. eigenvalues --   -0.49362  -0.49240  -0.49219  -0.48969  -0.48824
 Alpha  occ. eigenvalues --   -0.48771  -0.48662  -0.48576  -0.48320  -0.48095
 Alpha  occ. eigenvalues --   -0.47894  -0.47861  -0.47444  -0.47298  -0.46989
 Alpha  occ. eigenvalues --   -0.46778  -0.46709  -0.46528  -0.46400  -0.46351
 Alpha  occ. eigenvalues --   -0.46246  -0.45993  -0.45990  -0.45728  -0.45547
 Alpha  occ. eigenvalues --   -0.45427  -0.44757  -0.44666  -0.44633  -0.44353
 Alpha  occ. eigenvalues --   -0.44248  -0.44242  -0.44179  -0.44151  -0.43862
 Alpha  occ. eigenvalues --   -0.43744  -0.43708  -0.43679  -0.43557  -0.43324
 Alpha  occ. eigenvalues --   -0.43210  -0.43048  -0.42957  -0.42906  -0.42738
 Alpha  occ. eigenvalues --   -0.42575  -0.42247  -0.42157  -0.41870  -0.41698
 Alpha  occ. eigenvalues --   -0.41649  -0.41375  -0.41305  -0.41152  -0.41072
 Alpha  occ. eigenvalues --   -0.40958  -0.40794  -0.40636  -0.40445  -0.40405
 Alpha  occ. eigenvalues --   -0.40390  -0.40034  -0.39971  -0.39784  -0.39018
 Alpha  occ. eigenvalues --   -0.38703  -0.37916  -0.37879  -0.37534  -0.37415
 Alpha  occ. eigenvalues --   -0.37381  -0.36958  -0.36952  -0.36876  -0.36544
 Alpha  occ. eigenvalues --   -0.36415  -0.35823  -0.34443  -0.34030  -0.33960
 Alpha  occ. eigenvalues --   -0.33681  -0.33351  -0.32887  -0.31484  -0.31200
 Alpha  occ. eigenvalues --   -0.30988  -0.30671  -0.30165  -0.29789  -0.29578
 Alpha  occ. eigenvalues --   -0.29453  -0.29082  -0.28979  -0.24239  -0.23747
 Alpha  occ. eigenvalues --   -0.21279  -0.20824
 Alpha virt. eigenvalues --   -0.08916  -0.08525  -0.01913  -0.01365  -0.00188
 Alpha virt. eigenvalues --    0.00225   0.02046   0.02334   0.02555   0.03624
 Alpha virt. eigenvalues --    0.04555   0.04847   0.05038   0.05333   0.05958

 Mulliken charges:
               1
     1  Mg   0.839001
     2  C   -0.003227
     3  C   -0.093142
     4  C   -0.046995
     5  C   -0.063965
     6  N   -0.256637
     7  C   -0.052460
     8  C   -0.014131
     9  C   -0.087163
    10  C    0.046310
    11  C    0.104673
    12  C    0.053518
    13  C   -0.071663
    14  H    0.034488
    15  N   -0.433390
    16  C    0.168814
    17  C   -0.175961
    18  C   -0.003879
    19  C    0.148813
    20  C    0.109647
    21  C    0.011088
    22  O   -0.251226
    23  C    0.062128
    24  N   -0.340903
    25  C    0.041607
    26  C   -0.028220
    27  C   -0.023559
    28  C    0.073968
    29  C    0.076130
    30  C    0.036199
    31  C   -0.008072
    32  N   -0.310640
    33  C    0.080407
    34  C   -0.169078
    35  C    0.008764
    36  C    0.083090
    37  C    0.127201
    38  C    0.046331
    39  O   -0.187819
    40  C   -0.005838
    41  C    0.214661
    42  O   -0.258404
    43  O   -0.304041
    44  C    0.157411
    45  H   -0.016840
    46  H   -0.017611
    47  H   -0.042053
    48  H    0.001080
    49  H   -0.003446
    50  H    0.025533
    51  H    0.016609
    52  H    0.017219
    53  H    0.011978
    54  H    0.042424
    55  H    0.018497
    56  H    0.018837
    57  H    0.006255
    58  H    0.027129
    59  H    0.042486
    60  H    0.037992
    61  H    0.035746
    62  H    0.034108
    63  H    0.014474
    64  H    0.010084
    65  H    0.022809
    66  H    0.013462
    67  H    0.005090
    68  H    0.005526
    69  H    0.005083
    70  H    0.007069
    71  H    0.014468
    72  H    0.033079
    73  H    0.048641
    74  H    0.008430
    75  H    0.046103
    76  H    0.035738
    77  H    0.043952
    78  H    0.046661
    79  H    0.052654
    80  Mg   0.836614
    81  C   -0.017572
    82  C   -0.089115
    83  C   -0.044050
    84  C   -0.064691
    85  N   -0.255091
    86  C   -0.050153
    87  C   -0.014995
    88  C   -0.091563
    89  C    0.045887
    90  C    0.113463
    91  C    0.062576
    92  C   -0.077701
    93  H    0.033566
    94  N   -0.423937
    95  C    0.164186
    96  C   -0.174981
    97  C   -0.006694
    98  C    0.152318
    99  C    0.099424
   100  C    0.015674
   101  O   -0.251265
   102  C    0.061332
   103  N   -0.350500
   104  C    0.040213
   105  C   -0.022135
   106  C   -0.032650
   107  C    0.089083
   108  C    0.072476
   109  C    0.034528
   110  C   -0.007227
   111  N   -0.323746
   112  C    0.078055
   113  C   -0.164386
   114  C    0.001064
   115  C    0.096111
   116  C    0.131867
   117  C    0.040526
   118  O   -0.190629
   119  C    0.001643
   120  C    0.211101
   121  O   -0.251107
   122  O   -0.305760
   123  C    0.152300
   124  H   -0.019896
   125  H   -0.013139
   126  H   -0.041885
   127  H   -0.000064
   128  H   -0.005305
   129  H    0.025628
   130  H    0.014487
   131  H    0.018183
   132  H    0.013496
   133  H    0.037100
   134  H    0.021821
   135  H    0.019204
   136  H    0.007918
   137  H    0.025120
   138  H    0.039483
   139  H    0.037566
   140  H    0.036452
   141  H    0.033202
   142  H    0.012330
   143  H    0.012635
   144  H    0.023069
   145  H    0.020797
   146  H    0.013892
   147  H    0.006164
   148  H    0.001374
   149  H    0.011144
   150  H    0.016281
   151  H    0.029494
   152  H    0.045111
   153  H    0.008239
   154  H    0.043819
   155  H    0.032973
   156  H    0.042941
   157  H    0.049982
   158  H    0.053220
 Sum of Mulliken charges =  -0.00000

 Dipole moment (field-independent basis, Debye):
    X=             -2.6482    Y=             -4.1451    Z=              0.8283  Tot=              4.9881
 Quadrupole moment (field-independent basis, Debye-Ang):
   XX=           -532.1713   YY=           -527.9249   ZZ=           -460.4391
   XY=             16.0210   XZ=             51.8616   YZ=            -18.6471

 Normal termination of Gaussian 16 at Fri Sep  3 14:14:44 2021.
