 Gaussian 16, Revision A.03,
 Gaussian 16:  ES64L-G16RevA.03 25-Dec-2016

 -----------------------------------
 #p cam-b3lyp/Def2SVP td=(nstates=5)
 -----------------------------------

 --------------------------------
 TDDFT excited states in gaussian
 --------------------------------
 Symbolic Z-matrix:
 Charge =  0 Multiplicity = 1

                         Standard orientation:
 ---------------------------------------------------------------------
 Center     Atomic      Atomic             Coordinates (Angstroms)
 Number     Number       Type             X           Y           Z
 ---------------------------------------------------------------------
      1         12           0        7.994884   -0.617989    0.643157
      2          6           0        8.371340    2.174572   -1.564125
      3          6           0        8.651611    1.520262    3.219910
      4          6           0        8.116920   -3.140147    2.561607
      5          6           0        8.493708   -2.681398   -2.120750
      6          7           0        8.437636    1.550416    0.694489
      7          6           0        8.493363    2.517627   -0.215767
      8          6           0        8.618249    3.941985    0.403089
      9          6           0        9.258382    3.550050    1.809721
     10          6           0        8.722768    2.134600    1.934392
     11          6           0       10.782704    3.498650    1.792288
     12          6           0        7.226511    4.637126    0.580782
     13          6           0        7.279018    6.140158    0.869733
     14          1           0        6.242790    6.996861    0.313281
     15          7           0        7.852024   -0.739902    2.609773
     16          6           0        8.144872    0.233855    3.504940
     17          6           0        7.876046   -0.344661    4.839007
     18          6           0        7.584862   -1.793771    4.656290
     19          6           0        7.868996   -1.956919    3.253426
     20          6           0        7.863358    0.464603    6.099436
     21          6           0        7.133801   -2.864269    5.599004
     22          8           0        7.164781   -4.103486    5.286025
     23          6           0        6.732719   -2.425433    6.947929
     24          7           0        8.483230   -2.622357    0.324308
     25          6           0        8.398925   -3.518891    1.313300
     26          6           0        8.518995   -4.920134    0.791725
     27          6           0        8.459976   -4.805969   -0.799889
     28          6           0        8.394539   -3.263670   -0.923590
     29          6           0        9.787561   -5.680606    1.202132
     30          6           0        7.382981   -5.650507   -1.526012
     31          6           0        6.005079   -5.131330   -1.181136
     32          7           0        8.191802   -0.344147   -1.500969
     33          6           0        8.416154   -1.341271   -2.461221
     34          6           0        8.585832   -0.661335   -3.758512
     35          6           0        8.464098    0.693957   -3.458161
     36          6           0        8.259185    0.852178   -2.057708
     37          6           0        8.877015   -1.294028   -4.999216
     38          6           0        8.484034    2.046618   -3.990860
     39          8           0        8.526648    2.532590   -5.122013
     40          6           0        8.546440    3.065570   -2.768703
     41          6           0        7.512179    4.130722   -3.011738
     42          8           0        6.294814    3.856926   -2.991157
     43          8           0        8.102224    5.335733   -2.993361
     44          6           0        7.126578    6.439340   -3.199079
     45          1           0        9.074879    2.043916    4.079312
     46          1           0        8.057506   -4.044814    3.170282
     47          1           0        8.568356   -3.264925   -3.040193
     48          1           0        9.286147    4.614542   -0.135431
     49          1           0        8.875984    4.172513    2.618444
     50          1           0       11.173684    3.613966    0.781468
     51          1           0       11.045503    2.519313    2.192698
     52          1           0       11.202827    4.228206    2.485124
     53          1           0        6.764999    4.286733    1.503979
     54          1           0        6.592526    4.459049   -0.288516
     55          1           0        8.267154    6.551680    0.662019
     56          1           0        7.144293    6.286835    1.941430
     57          1           0        8.275214    1.460375    5.940193
     58          1           0        8.560178   -0.010342    6.789782
     59          1           0        6.871502    0.507386    6.549683
     60          1           0        7.570752   -1.916764    7.424903
     61          1           0        6.355895   -3.313825    7.453511
     62          1           0        5.936912   -1.685649    6.856498
     63          1           0        7.690874   -5.538026    1.136476
     64          1           0        9.396687   -5.111227   -1.266862
     65          1           0        9.587320   -6.620272    1.717533
     66          1           0       10.393227   -5.017487    1.819166
     67          1           0       10.472827   -5.901495    0.384186
     68          1           0        7.427247   -6.687427   -1.194674
     69          1           0        7.490198   -5.644098   -2.610776
     70          1           0        5.790759   -5.621471   -0.232104
     71          1           0        5.284972   -5.427229   -1.944746
     72          1           0        6.019050   -4.056887   -0.997117
     73          1           0        8.236068   -0.818855   -5.741756
     74          1           0        8.695969   -2.367454   -4.948411
     75          1           0        9.934738   -1.053516   -5.105193
     76          1           0        9.556967    3.472571   -2.751198
     77          1           0        7.476372    7.022330   -4.051136
     78          1           0        7.030758    6.950807   -2.241151
     79          1           0        6.133839    6.147187   -3.543249
     80         12           0       -7.817871   -0.667504   -0.669105
     81          6           0       -9.202725    1.713648    1.631197
     82          6           0       -7.516935    1.891256   -2.904452
     83          6           0       -7.017823   -2.812608   -2.865882
     84          6           0       -9.260125   -3.175209    1.274344
     85          7           0       -8.327987    1.480643   -0.536653
     86          6           0       -8.791495    2.284331    0.408639
     87          6           0       -8.740686    3.794035    0.051201
     88          6           0       -8.747232    3.662576   -1.549281
     89          6           0       -8.126890    2.273339   -1.682955
     90          6           0      -10.145059    3.620734   -2.143967
     91          6           0       -7.429737    4.486214    0.565332
     92          6           0       -7.451711    6.015796    0.524746
     93          1           0       -6.766254    6.750117    1.584643
     94          7           0       -6.891111   -0.439509   -2.409130
     95          6           0       -6.852369    0.673961   -3.170686
     96          6           0       -6.061022    0.320951   -4.359517
     97          6           0       -5.774829   -1.138817   -4.315998
     98          6           0       -6.585544   -1.532664   -3.181224
     99          6           0       -5.585996    1.340997   -5.353126
    100          6           0       -4.923694   -2.034551   -5.164201
    101          8           0       -5.008986   -3.311355   -5.091198
    102          6           0       -4.054778   -1.373457   -6.148800
    103          7           0       -8.272085   -2.682753   -0.903162
    104          6           0       -7.751837   -3.395375   -1.917769
    105          6           0       -7.993776   -4.873630   -1.726446
    106          6           0       -8.576102   -5.025433   -0.244747
    107          6           0       -8.657283   -3.534271    0.149254
    108          6           0       -8.955748   -5.524372   -2.720197
    109          6           0       -7.832455   -6.002015    0.707069
    110          6           0       -6.457987   -5.461637    1.029890
    111          7           0       -8.857306   -0.765309    1.222472
    112          6           0       -9.399510   -1.913996    1.839408
    113          6           0      -10.109430   -1.462030    3.053563
    114          6           0       -9.949272   -0.068186    3.046365
    115          6           0       -9.210173    0.323021    1.897367
    116          6           0      -10.825754   -2.296272    3.957463
    117          6           0      -10.246479    1.162185    3.743890
    118          8           0      -10.768399    1.445639    4.821383
    119          6           0       -9.884745    2.382724    2.792149
    120          6           0       -9.089851    3.376924    3.593526
    121          8           0       -7.960587    3.083386    4.023892
    122          8           0       -9.696773    4.576319    3.534635
    123          6           0       -8.939830    5.598441    4.305428
    124          1           0       -7.589203    2.569718   -3.754955
    125          1           0       -6.673350   -3.604763   -3.534692
    126          1           0       -9.652110   -3.905594    1.985384
    127          1           0       -9.598494    4.367981    0.380647
    128          1           0       -8.108087    4.411481   -2.009719
    129          1           0      -10.906452    3.567194   -1.380059
    130          1           0      -10.172778    2.737309   -2.768343
    131          1           0      -10.294059    4.470115   -2.816793
    132          1           0       -6.618443    4.290972   -0.147704
    133          1           0       -7.187140    4.154478    1.556155
    134          1           0       -8.464671    6.409713    0.377452
    135          1           0       -6.903837    6.347340   -0.360655
    136          1           0       -6.090104    2.305053   -5.212139
    137          1           0       -5.917062    1.003312   -6.341168
    138          1           0       -4.499034    1.446449   -5.361581
    139          1           0       -4.663200   -0.777029   -6.824495
    140          1           0       -3.459587   -2.171960   -6.596031
    141          1           0       -3.395062   -0.675977   -5.620695
    142          1           0       -7.067099   -5.429672   -1.798513
    143          1           0       -9.608147   -5.405827   -0.249544
    144          1           0       -8.507714   -6.374405   -3.268631
    145          1           0       -9.298863   -4.765041   -3.410292
    146          1           0       -9.888924   -5.885120   -2.290961
    147          1           0       -7.679435   -6.966264    0.216194
    148          1           0       -8.365395   -6.192779    1.632585
    149          1           0       -5.858917   -5.782872    0.172563
    150          1           0       -6.084527   -5.893295    1.956305
    151          1           0       -6.458349   -4.365478    1.039588
    152          1           0      -10.565568   -1.969555    4.955489
    153          1           0      -10.583765   -3.346216    3.806287
    154          1           0      -11.853150   -2.065370    3.663516
    155          1           0      -10.822902    2.805165    2.430223
    156          1           0       -9.636049    6.032896    5.029449
    157          1           0       -8.506661    6.281463    3.550721
    158          1           0       -8.147441    5.249404    4.957152
 ---------------------------------------------------------------------

 SCF Done:  E(RCAM-B3LYP) =  -4069.81192781     A.U. after   19 cycles

 Excitation energies and oscillator strengths:

 Excited State   1:      Singlet-A      1.6701 eV  742.36 nm  f=0.0501  <S**2>=0.000
     309 -> 315        0.10506
     310 -> 316        0.13712
     311 -> 313        0.41619
     312 -> 314        0.54576
 This state for optimization and/or second-order correction.
 Total Energy, E(TD-HF/TD-DFT) =  -4069.75055176
 Copying the excited state density for this state as the 1-particle RhoCI density.

 Excited State   2:      Singlet-A      1.6854 eV  735.62 nm  f=0.7102  <S**2>=0.000
     309 -> 315        0.14079
     310 -> 316       -0.10687
     311 -> 313        0.54496
     312 -> 314       -0.41570

 Excited State   3:      Singlet-A      2.1866 eV  567.02 nm  f=0.0583  <S**2>=0.000
     309 -> 313        0.13960
     310 -> 314        0.62722
     312 -> 316       -0.26682

 Excited State   4:      Singlet-A      2.1932 eV  565.30 nm  f=0.1352  <S**2>=0.000
     309 -> 313        0.62542
     310 -> 314       -0.13869
     311 -> 315       -0.27200

 Excited State   5:      Singlet-A      2.8024 eV  442.43 nm  f=0.0000  <S**2>=0.000
     312 -> 313        0.70709

 The electronic state is 1-A.
 Alpha  occ. eigenvalues --  -46.87758 -46.87587 -19.26318 -19.26302 -19.19123
 Alpha  occ. eigenvalues --  -19.19033 -19.18757 -19.18608 -19.18153 -19.17993
 Alpha  occ. eigenvalues --  -14.42425 -14.42414 -14.41409 -14.41288 -14.39362
 Alpha  occ. eigenvalues --  -14.39274 -14.38551 -14.38529 -10.39090 -10.39051
 Alpha  occ. eigenvalues --  -10.35389 -10.35282 -10.34374 -10.34172 -10.31737
 Alpha  occ. eigenvalues --  -10.31712 -10.31375 -10.31243 -10.30947 -10.30873
 Alpha  occ. eigenvalues --  -10.30536 -10.30469 -10.30325 -10.30291 -10.30160
 Alpha  occ. eigenvalues --  -10.30063 -10.29883 -10.29829 -10.29592 -10.29356
 Alpha  occ. eigenvalues --  -10.29322 -10.29211 -10.28726 -10.28656 -10.28605
 Alpha  occ. eigenvalues --  -10.28531 -10.28330 -10.28329 -10.28089 -10.28076
 Alpha  occ. eigenvalues --  -10.27927 -10.27757 -10.27690 -10.27595 -10.27542
 Alpha  occ. eigenvalues --  -10.27453 -10.27450 -10.27424 -10.27413 -10.27401
 Alpha  occ. eigenvalues --  -10.27382 -10.27371 -10.27344 -10.27312 -10.27146
 Alpha  occ. eigenvalues --  -10.26997 -10.26688 -10.26632 -10.26333 -10.26264
 Alpha  occ. eigenvalues --  -10.26209 -10.26123 -10.26076 -10.25978 -10.25967
 Alpha  occ. eigenvalues --  -10.25863 -10.25820 -10.25798 -10.25389 -10.25340
 Alpha  occ. eigenvalues --  -10.24802 -10.24801 -10.24748 -10.24664 -10.24618
 Alpha  occ. eigenvalues --  -10.24616  -3.16500  -3.16337  -1.91382  -1.91219
 Alpha  occ. eigenvalues --   -1.90968  -1.90811  -1.90808  -1.90644  -1.16649
 Alpha  occ. eigenvalues --   -1.16610  -1.08615  -1.08604  -1.07157  -1.06908
 Alpha  occ. eigenvalues --   -1.06859  -1.06655  -1.04546  -1.04423  -1.03721
 Alpha  occ. eigenvalues --   -1.03590  -1.03195  -1.02966  -1.02373  -1.02039
 Alpha  occ. eigenvalues --   -0.91944  -0.91921  -0.89475  -0.89426  -0.89161
 Alpha  occ. eigenvalues --   -0.89087  -0.88242  -0.88154  -0.87839  -0.87728
 Alpha  occ. eigenvalues --   -0.87638  -0.87613  -0.87224  -0.87019  -0.84953
 Alpha  occ. eigenvalues --   -0.84932  -0.83892  -0.83812  -0.82910  -0.82829
 Alpha  occ. eigenvalues --   -0.82616  -0.82575  -0.81573  -0.81543  -0.80568
 Alpha  occ. eigenvalues --   -0.80376  -0.78754  -0.78549  -0.77182  -0.77074
 Alpha  occ. eigenvalues --   -0.76911  -0.76840  -0.75901  -0.75777  -0.74859
 Alpha  occ. eigenvalues --   -0.74739  -0.72738  -0.72629  -0.71639  -0.71515
 Alpha  occ. eigenvalues --   -0.69855  -0.69692  -0.68841  -0.68757  -0.67606
 Alpha  occ. eigenvalues --   -0.67530  -0.67188  -0.67122  -0.65260  -0.65208
 Alpha  occ. eigenvalues --   -0.64826  -0.64704  -0.64591  -0.64591  -0.64227
 Alpha  occ. eigenvalues --   -0.64138  -0.62289  -0.62228  -0.60394  -0.60251
 Alpha  occ. eigenvalues --   -0.59774  -0.59729  -0.58954  -0.58926  -0.58471
 Alpha  occ. eigenvalues --   -0.58359  -0.57571  -0.57501  -0.57272  -0.57163
 Alpha  occ. eigenvalues --   -0.56276  -0.56132  -0.55974  -0.55833  -0.55480
 Alpha  occ. eigenvalues --   -0.55372  -0.55309  -0.55189  -0.54501  -0.54433
 Alpha  occ. eigenvalues --   -0.53869  -0.53848  -0.53259  -0.53188  -0.53153
 Alpha  occ. eigenvalues --   -0.53067  -0.52892  -0.52839  -0.52710  -0.52564
 Alpha  occ. eigenvalues --   -0.52386  -0.52336  -0.51889  -0.51827  -0.51586
 Alpha  occ. eigenvalues --   -0.51583  -0.51167  -0.51139  -0.50512  -0.50362
 Alpha  occ. eigenvalues --   -0.49983  -0.49899  -0.49873  -0.49793  -0.49479
 Alpha  occ. eigenvalues --   -0.49402  -0.49184  -0.49129  -0.49071  -0.49042
 Alpha  occ. eigenvalues --   -0.48572  -0.48498  -0.48424  -0.48402  -0.48314
 Alpha  occ. eigenvalues --   -0.48244  -0.47659  -0.47520  -0.47259  -0.47039
 Alpha  occ. eigenvalues --   -0.46760  -0.46643  -0.46529  -0.46485  -0.46323
 Alpha  occ. eigenvalues --   -0.46199  -0.46133  -0.46025  -0.45806  -0.45769
 Alpha  occ. eigenvalues --   -0.45158  -0.45143  -0.44556  -0.44463  -0.44453
 Alpha  occ. eigenvalues --   -0.44406  -0.44105  -0.44060  -0.44058  -0.44006
 Alpha  occ. eigenvalues --   -0.43986  -0.43850  -0.43503  -0.43480  -0.43351
 Alpha  occ. eigenvalues --   -0.43321  -0.42995  -0.42880  -0.42840  -0.42696
 Alpha  occ. eigenvalues --   -0.42614  -0.42481  -0.41971  -0.41900  -0.41673
 Alpha  occ. eigenvalues --   -0.41605  -0.41504  -0.41393  -0.41108  -0.40923
 Alpha  occ. eigenvalues --   -0.40835  -0.40771  -0.40648  -0.40610  -0.40529
 Alpha  occ. eigenvalues --   -0.40429  -0.40209  -0.40154  -0.39386  -0.39359
 Alpha  occ. eigenvalues --   -0.38426  -0.38286  -0.37725  -0.37592  -0.37278
 Alpha  occ. eigenvalues --   -0.37235  -0.37199  -0.37131  -0.36728  -0.36708
 Alpha  occ. eigenvalues --   -0.36169  -0.36157  -0.34250  -0.34184  -0.33818
 Alpha  occ. eigenvalues --   -0.33775  -0.33152  -0.33105  -0.31288  -0.31170
 Alpha  occ. eigenvalues --   -0.30999  -0.30900  -0.30014  -0.29899  -0.29408
 Alpha  occ. eigenvalues --   -0.29288  -0.29244  -0.29139  -0.24044  -0.23965
 Alpha  occ. eigenvalues --   -0.21089  -0.21043
 Alpha virt. eigenvalues --   -0.08736  -0.08716  -0.01709  -0.01609  -0.00014
 Alpha virt. eigenvalues --    0.00059   0.02230   0.02274   0.03168   0.03308
 Alpha virt. eigenvalues --    0.04749   0.04795   0.05092   0.05207   0.06193

 Mulliken charges:
               1
     1  Mg   0.838856
     2  C   -0.003075
     3  C   -0.094082
     4  C   -0.045753
     5  C   -0.063873
     6  N   -0.256798
     7  C   -0.052567
     8  C   -0.014026
     9  C   -0.087031
    10  C    0.046391
    11  C    0.104807
    12  C    0.053447
    13  C   -0.071685
    14  H    0.035625
    15  N   -0.433181
    16  C    0.168577
    17  C   -0.176995
    18  C   -0.003801
    19  C    0.148802
    20  C    0.110146
    21  C    0.012511
    22  O   -0.249482
    23  C    0.062349
    24  N   -0.341139
    25  C    0.041303
    26  C   -0.028204
    27  C   -0.023955
    28  C    0.074815
    29  C    0.076178
    30  C    0.035104
    31  C   -0.004559
    32  N   -0.310378
    33  C    0.080284
    34  C   -0.169855
    35  C    0.008155
    36  C    0.082914
    37  C    0.127365
    38  C    0.045868
    39  O   -0.188983
    40  C   -0.005270
    41  C    0.212803
    42  O   -0.257438
    43  O   -0.304676
    44  C    0.157899
    45  H   -0.017556
    46  H   -0.016687
    47  H   -0.041521
    48  H    0.000766
    49  H   -0.003963
    50  H    0.025387
    51  H    0.016513
    52  H    0.016653
    53  H    0.011479
    54  H    0.043871
    55  H    0.017815
    56  H    0.018169
    57  H    0.005857
    58  H    0.026876
    59  H    0.040055
    60  H    0.037264
    61  H    0.035912
    62  H    0.031951
    63  H    0.016764
    64  H    0.009358
    65  H    0.023293
    66  H    0.012484
    67  H    0.004700
    68  H    0.006420
    69  H    0.004658
    70  H    0.008959
    71  H    0.018501
    72  H    0.028881
    73  H    0.047204
    74  H    0.009190
    75  H    0.045901
    76  H    0.035081
    77  H    0.042727
    78  H    0.046495
    79  H    0.053149
    80  Mg   0.837928
    81  C   -0.016878
    82  C   -0.087564
    83  C   -0.045424
    84  C   -0.064913
    85  N   -0.254544
    86  C   -0.049988
    87  C   -0.015101
    88  C   -0.090551
    89  C    0.045812
    90  C    0.114376
    91  C    0.062443
    92  C   -0.077770
    93  H    0.034425
    94  N   -0.423543
    95  C    0.163121
    96  C   -0.174307
    97  C   -0.007515
    98  C    0.152180
    99  C    0.099248
   100  C    0.015831
   101  O   -0.253303
   102  C    0.060985
   103  N   -0.350061
   104  C    0.037556
   105  C   -0.019851
   106  C   -0.034728
   107  C    0.088808
   108  C    0.073708
   109  C    0.034765
   110  C   -0.007663
   111  N   -0.324015
   112  C    0.078241
   113  C   -0.163347
   114  C    0.002078
   115  C    0.096083
   116  C    0.131536
   117  C    0.042180
   118  O   -0.188369
   119  C    0.000965
   120  C    0.211206
   121  O   -0.251132
   122  O   -0.305607
   123  C    0.152158
   124  H   -0.019526
   125  H   -0.015528
   126  H   -0.040673
   127  H   -0.000864
   128  H   -0.004152
   129  H    0.022320
   130  H    0.014447
   131  H    0.016259
   132  H    0.014320
   133  H    0.037529
   134  H    0.020635
   135  H    0.019830
   136  H    0.008748
   137  H    0.026194
   138  H    0.041128
   139  H    0.038186
   140  H    0.036695
   141  H    0.035117
   142  H    0.014473
   143  H    0.012223
   144  H    0.025100
   145  H    0.011633
   146  H    0.005525
   147  H    0.006132
   148  H    0.003473
   149  H    0.011035
   150  H    0.017857
   151  H    0.030213
   152  H    0.045727
   153  H    0.008395
   154  H    0.046726
   155  H    0.034864
   156  H    0.043675
   157  H    0.049503
   158  H    0.053326
 Sum of Mulliken charges =  -0.00000

 Dipole moment (field-independent basis, Debye):
    X=              1.7698    Y=              3.1092    Z=              0.0872  Tot=              3.5787
 Quadrupole moment (field-independent basis, Debye-Ang):
   XX=           -492.9297   YY=           -461.2378   ZZ=           -532.8369
   XY=              4.8620   XZ=             71.1051   YZ=              9.6563

 Normal termination of Gaussian 16 at Sat Sep 11 21:18:13 2021.
