 Gaussian 16, Revision A.03,
 Gaussian 16:  ES64L-G16RevA.03 25-Dec-2016

 -----------------------------------
 #p cam-b3lyp/Def2SVP td=(nstates=5)
 -----------------------------------

 --------------------------------
 TDDFT excited states in gaussian
 --------------------------------
 Symbolic Z-matrix:
 Charge =  0 Multiplicity = 1

                         Standard orientation:
 ---------------------------------------------------------------------
 Center     Atomic      Atomic             Coordinates (Angstroms)
 Number     Number       Type             X           Y           Z
 ---------------------------------------------------------------------
      1         12           0        4.761889    0.256129    0.650152
      2          6           0        4.962140   -2.838448   -1.137502
      3          6           0        5.991861    1.778767   -2.144809
      4          6           0        5.022775    2.921165    2.349016
      5          6           0        4.642179   -1.617731    3.586133
      6          7           0        5.360833   -0.536281   -1.328231
      7          6           0        5.332376   -1.732922   -1.906515
      8          6           0        5.660591   -1.691318   -3.428986
      9          6           0        6.497500   -0.334862   -3.469099
     10          6           0        5.890531    0.360779   -2.263448
     11          6           0        7.989762   -0.532148   -3.222653
     12          6           0        4.371541   -1.595501   -4.312672
     13          6           0        4.578979   -1.877445   -5.803588
     14          1           0        3.528144   -2.564437   -6.539207
     15          7           0        4.941936    2.134960    0.066690
     16          6           0        5.449355    2.572190   -1.110867
     17          6           0        5.367007    4.047995   -1.067279
     18          6           0        4.946518    4.439876    0.306662
     19          6           0        4.979388    3.165934    0.978501
     20          6           0        5.623387    4.921881   -2.256540
     21          6           0        4.584296    5.755527    0.919841
     22          8           0        4.473785    5.909225    2.184254
     23          6           0        4.447108    6.895582   -0.004548
     24          7           0        5.045426    0.620353    2.685977
     25          6           0        5.064016    1.867966    3.167744
     26          6           0        4.994602    1.875773    4.666097
     27          6           0        4.678276    0.372498    5.101818
     28          6           0        4.703465   -0.289232    3.701908
     29          6           0        6.256323    2.362755    5.391990
     30          6           0        3.437346    0.147530    6.001764
     31          6           0        2.177312    0.459369    5.225769
     32          7           0        4.616139   -1.848492    1.160419
     33          6           0        4.604713   -2.405167    2.447531
     34          6           0        4.602975   -3.870586    2.284398
     35          6           0        4.630432   -4.065906    0.904927
     36          6           0        4.674704   -2.802793    0.248514
     37          6           0        4.636361   -4.826406    3.337834
     38          6           0        4.657542   -5.048156   -0.166664
     39          8           0        4.544813   -6.273567   -0.222810
     40          6           0        4.996342   -4.295054   -1.528236
     41          6           0        4.014810   -4.768020   -2.565641
     42          8           0        2.801659   -4.490798   -2.471953
     43          8           0        4.684206   -5.262816   -3.618080
     44          6           0        3.769306   -5.722864   -4.696721
     45          1           0        6.589361    2.328162   -2.874945
     46          1           0        5.001589    3.817230    2.972761
     47          1           0        4.519944   -2.266224    4.455596
     48          1           0        6.275249   -2.518633   -3.784189
     49          1           0        6.301374    0.237666   -4.375448
     50          1           0        8.213230   -1.558438   -2.931599
     51          1           0        8.245201    0.156290   -2.416863
     52          1           0        8.571002   -0.210400   -4.087185
     53          1           0        4.047247   -0.556134   -4.363774
     54          1           0        3.589889   -2.251022   -3.927135
     55          1           0        5.545248   -2.347106   -5.989739
     56          1           0        4.636404   -0.922970   -6.326924
     57          1           0        6.072879    4.361840   -3.075598
     58          1           0        6.390188    5.639352   -1.965061
     59          1           0        4.726536    5.452211   -2.577073
     60          1           0        5.387350    7.042867   -0.536339
     61          1           0        4.097719    7.732161    0.599533
     62          1           0        3.702169    6.648690   -0.761555
     63          1           0        4.193867    2.525426    5.017094
     64          1           0        5.499341   -0.071419    5.665258
     65          1           0        6.078546    3.203751    6.062680
     66          1           0        7.002568    2.614144    4.638854
     67          1           0        6.777418    1.597243    5.966330
     68          1           0        3.462225    0.821574    6.857329
     69          1           0        3.361628   -0.870603    6.383764
     70          1           0        2.090417    1.540592    5.326954
     71          1           0        1.320249   -0.044786    5.673519
     72          1           0        2.298657    0.240095    4.164788
     73          1           0        3.915778   -5.599481    3.071219
     74          1           0        4.390118   -4.368750    4.295706
     75          1           0        5.675863   -5.149575    3.284401
     76          1           0        6.022008   -4.558031   -1.785089
     77          1           0        4.012283   -6.765758   -4.900606
     78          1           0        3.872014   -5.010076   -5.515127
     79          1           0        2.714652   -5.805300   -4.431678
     80         12           0       -4.186812    0.760991   -0.190302
     81          6           0       -6.949153   -1.492347    0.223208
     82          6           0       -6.364573    2.919448   -1.684635
     83          6           0       -1.701091    2.571332   -0.972140
     84          6           0       -2.070404   -1.968610    0.274228
     85          7           0       -6.352494    0.618917   -0.616787
     86          6           0       -7.309955   -0.259056   -0.358383
     87          6           0       -8.744924    0.243383   -0.671391
     88          6           0       -8.375731    1.358584   -1.766321
     89          6           0       -6.954048    1.684626   -1.313366
     90          6           0       -8.312294    0.813030   -3.183244
     91          6           0       -9.442700    0.878262    0.582423
     92          6           0      -10.948237    1.108040    0.432999
     93          1           0      -11.799314    0.929988    1.606211
     94          7           0       -4.107013    2.668933   -0.730646
     95          6           0       -5.090722    3.394513   -1.302593
     96          6           0       -4.526164    4.735115   -1.522192
     97          6           0       -3.077369    4.695066   -1.184416
     98          6           0       -2.897186    3.274082   -0.964373
     99          6           0       -5.361982    5.912979   -1.931406
    100          6           0       -2.024996    5.757928   -1.089307
    101          8           0       -0.779091    5.466932   -1.012698
    102          6           0       -2.488795    7.149926   -1.182564
    103          7           0       -2.183322    0.330021   -0.540517
    104          6           0       -1.302713    1.309237   -0.811766
    105          6           0        0.116926    0.797757   -0.753301
    106          6           0        0.017055   -0.678495   -0.146447
    107          6           0       -1.518453   -0.804002   -0.037557
    108          6           0        0.862314    0.750161   -2.086908
    109          6           0        0.874566   -0.981274    1.112788
    110          6           0        0.358395   -0.188025    2.291647
    111          7           0       -4.423274   -1.313936    0.363603
    112          6           0       -3.407220   -2.288340    0.474382
    113          6           0       -4.069402   -3.576897    0.763457
    114          6           0       -5.437161   -3.264612    0.778129
    115          6           0       -5.616037   -1.883205    0.496679
    116          6           0       -3.415194   -4.830876    0.923643
    117          6           0       -6.770924   -3.791589    0.957200
    118          8           0       -7.237206   -4.877296    1.300065
    119          6           0       -7.816423   -2.693199    0.480924
    120          6           0       -8.880202   -2.575330    1.537803
    121          8           0       -8.600681   -2.145211    2.670714
    122          8           0      -10.084928   -2.781990    0.975386
    123          6           0      -11.173515   -2.664551    1.981872
    124          1           0       -6.910687    3.570400   -2.367943
    125          1           0       -0.802128    3.172323   -1.127562
    126          1           0       -1.474359   -2.847397    0.529441
    127          1           0       -9.402138   -0.500581   -1.105400
    128          1           0       -9.015757    2.231981   -1.671869
    129          1           0       -8.410282   -0.262163   -3.205744
    130          1           0       -7.347679    1.113225   -3.571140
    131          1           0       -9.057488    1.308908   -3.811832
    132          1           0       -9.104259    1.916506    0.693146
    133          1           0       -9.251854    0.293790    1.461391
    134          1           0      -11.363709    0.570879   -0.428264
    135          1           0      -11.116826    2.161871    0.198372
    136          1           0       -6.359311    5.601724   -2.265886
    137          1           0       -4.896393    6.340004   -2.826242
    138          1           0       -5.412806    6.682409   -1.158057
    139          1           0       -3.005765    7.295756   -2.128047
    140          1           0       -1.604751    7.765093   -1.003955
    141          1           0       -3.225103    7.327156   -0.390689
    142          1           0        0.721218    1.408623   -0.093923
    143          1           0        0.344021   -1.439517   -0.870174
    144          1           0        1.805371    1.328686   -2.080727
    145          1           0        0.199355    1.111931   -2.861594
    146          1           0        1.109615   -0.248695   -2.442343
    147          1           0        1.907665   -0.662978    0.952944
    148          1           0        0.898839   -2.033455    1.376062
    149          1           0        0.832709    0.788889    2.158420
    150          1           0        0.663827   -0.650695    3.227961
    151          1           0       -0.725602   -0.040353    2.222336
    152          1           0       -3.874859   -5.315363    1.774808
    153          1           0       -2.344094   -4.705023    1.067404
    154          1           0       -3.648412   -5.296715   -0.037542
    155          1           0       -8.224342   -3.022186   -0.475612
    156          1           0      -11.744343   -3.597570    1.945430
    157          1           0      -11.714279   -1.733027    1.729741
    158          1           0      -10.888470   -2.631697    3.026917
 ---------------------------------------------------------------------

 SCF Done:  E(RCAM-B3LYP) =  -4069.81237864     A.U. after   19 cycles

 Excitation energies and oscillator strengths:

 Excited State   1:      Singlet-A      1.6397 eV  756.14 nm  f=0.0016  <S**2>=0.000
     309 -> 315       -0.11442
     310 -> 316        0.11762
     311 -> 313       -0.47712
     312 -> 314        0.49560
 This state for optimization and/or second-order correction.
 Total Energy, E(TD-HF/TD-DFT) =  -4069.75212097
 Copying the excited state density for this state as the 1-particle RhoCI density.

 Excited State   2:      Singlet-A      1.7046 eV  727.36 nm  f=0.6839  <S**2>=0.000
     309 -> 315        0.13157
     310 -> 316        0.12452
     311 -> 313        0.49292
     312 -> 314        0.47437

 Excited State   3:      Singlet-A      2.1822 eV  568.17 nm  f=0.1146  <S**2>=0.000
     310 -> 314        0.64308
     312 -> 316       -0.26928

 Excited State   4:      Singlet-A      2.1973 eV  564.25 nm  f=0.0888  <S**2>=0.000
     309 -> 313        0.63937
     311 -> 315       -0.27932

 Excited State   5:      Singlet-A      2.3324 eV  531.58 nm  f=0.0002  <S**2>=0.000
     312 -> 313        0.70486

 The electronic state is 1-A.
 Alpha  occ. eigenvalues --  -46.87935 -46.87421 -19.26461 -19.26190 -19.19256
 Alpha  occ. eigenvalues --  -19.18991 -19.18640 -19.18593 -19.18258 -19.17836
 Alpha  occ. eigenvalues --  -14.42545 -14.42263 -14.41528 -14.41101 -14.39486
 Alpha  occ. eigenvalues --  -14.39123 -14.38691 -14.38350 -10.39291 -10.38916
 Alpha  occ. eigenvalues --  -10.35275 -10.35263 -10.34489 -10.34013 -10.31821
 Alpha  occ. eigenvalues --  -10.31618 -10.31528 -10.31066 -10.30972 -10.30829
 Alpha  occ. eigenvalues --  -10.30686 -10.30583 -10.30237 -10.30144 -10.30102
 Alpha  occ. eigenvalues --  -10.30008 -10.29865 -10.29669 -10.29624 -10.29297
 Alpha  occ. eigenvalues --  -10.29195 -10.29158 -10.28853 -10.28650 -10.28544
 Alpha  occ. eigenvalues --  -10.28523 -10.28432 -10.28209 -10.28191 -10.27955
 Alpha  occ. eigenvalues --  -10.27847 -10.27814 -10.27762 -10.27589 -10.27499
 Alpha  occ. eigenvalues --  -10.27498 -10.27454 -10.27435 -10.27361 -10.27311
 Alpha  occ. eigenvalues --  -10.27279 -10.27252 -10.27244 -10.27123 -10.27059
 Alpha  occ. eigenvalues --  -10.26858 -10.26847 -10.26538 -10.26347 -10.26306
 Alpha  occ. eigenvalues --  -10.26116 -10.26098 -10.26023 -10.25918 -10.25891
 Alpha  occ. eigenvalues --  -10.25858 -10.25598 -10.25431 -10.25427 -10.25106
 Alpha  occ. eigenvalues --  -10.24908 -10.24842 -10.24633 -10.24546 -10.24457
 Alpha  occ. eigenvalues --  -10.24357  -3.16649  -3.16171  -1.91536  -1.91115
 Alpha  occ. eigenvalues --   -1.91053  -1.90958  -1.90642  -1.90479  -1.16815
 Alpha  occ. eigenvalues --   -1.16481  -1.08730  -1.08445  -1.07028  -1.06859
 Alpha  occ. eigenvalues --   -1.06851  -1.06775  -1.04668  -1.04269  -1.03832
 Alpha  occ. eigenvalues --   -1.03422  -1.03308  -1.02783  -1.02486  -1.01865
 Alpha  occ. eigenvalues --   -0.92066  -0.91755  -0.89554  -0.89286  -0.89209
 Alpha  occ. eigenvalues --   -0.88958  -0.88313  -0.87963  -0.87934  -0.87750
 Alpha  occ. eigenvalues --   -0.87507  -0.87436  -0.87200  -0.86937  -0.85054
 Alpha  occ. eigenvalues --   -0.84801  -0.83964  -0.83619  -0.82878  -0.82768
 Alpha  occ. eigenvalues --   -0.82614  -0.82463  -0.81683  -0.81383  -0.80643
 Alpha  occ. eigenvalues --   -0.80231  -0.78785  -0.78412  -0.77263  -0.77023
 Alpha  occ. eigenvalues --   -0.76912  -0.76672  -0.76002  -0.75632  -0.74938
 Alpha  occ. eigenvalues --   -0.74543  -0.72835  -0.72437  -0.71738  -0.71345
 Alpha  occ. eigenvalues --   -0.69991  -0.69417  -0.68917  -0.68627  -0.67687
 Alpha  occ. eigenvalues --   -0.67377  -0.67243  -0.67032  -0.65380  -0.65075
 Alpha  occ. eigenvalues --   -0.64941  -0.64693  -0.64525  -0.64437  -0.64309
 Alpha  occ. eigenvalues --   -0.63930  -0.62412  -0.62061  -0.60415  -0.60134
 Alpha  occ. eigenvalues --   -0.59889  -0.59589  -0.59058  -0.58750  -0.58568
 Alpha  occ. eigenvalues --   -0.58193  -0.57706  -0.57339  -0.57334  -0.57003
 Alpha  occ. eigenvalues --   -0.56359  -0.56090  -0.55962  -0.55697  -0.55485
 Alpha  occ. eigenvalues --   -0.55406  -0.55265  -0.55011  -0.54609  -0.54287
 Alpha  occ. eigenvalues --   -0.53989  -0.53724  -0.53344  -0.53199  -0.53038
 Alpha  occ. eigenvalues --   -0.52994  -0.52935  -0.52706  -0.52650  -0.52523
 Alpha  occ. eigenvalues --   -0.52424  -0.52228  -0.51986  -0.51642  -0.51564
 Alpha  occ. eigenvalues --   -0.51478  -0.51285  -0.50977  -0.50407  -0.50320
 Alpha  occ. eigenvalues --   -0.50028  -0.49921  -0.49783  -0.49611  -0.49511
 Alpha  occ. eigenvalues --   -0.49316  -0.49242  -0.49154  -0.49002  -0.48886
 Alpha  occ. eigenvalues --   -0.48670  -0.48494  -0.48362  -0.48346  -0.48186
 Alpha  occ. eigenvalues --   -0.48102  -0.47704  -0.47379  -0.47303  -0.46907
 Alpha  occ. eigenvalues --   -0.46865  -0.46639  -0.46450  -0.46441  -0.46348
 Alpha  occ. eigenvalues --   -0.46269  -0.45998  -0.45933  -0.45807  -0.45569
 Alpha  occ. eigenvalues --   -0.45230  -0.45043  -0.44679  -0.44481  -0.44335
 Alpha  occ. eigenvalues --   -0.44243  -0.44169  -0.44111  -0.43967  -0.43939
 Alpha  occ. eigenvalues --   -0.43838  -0.43752  -0.43580  -0.43434  -0.43374
 Alpha  occ. eigenvalues --   -0.43176  -0.43060  -0.42842  -0.42779  -0.42689
 Alpha  occ. eigenvalues --   -0.42599  -0.42323  -0.42021  -0.41797  -0.41734
 Alpha  occ. eigenvalues --   -0.41542  -0.41436  -0.41281  -0.41177  -0.40895
 Alpha  occ. eigenvalues --   -0.40789  -0.40699  -0.40623  -0.40579  -0.40472
 Alpha  occ. eigenvalues --   -0.40280  -0.40175  -0.40073  -0.39437  -0.38904
 Alpha  occ. eigenvalues --   -0.38506  -0.38078  -0.37845  -0.37465  -0.37362
 Alpha  occ. eigenvalues --   -0.37354  -0.37005  -0.36977  -0.36860  -0.36576
 Alpha  occ. eigenvalues --   -0.36284  -0.35935  -0.34356  -0.34006  -0.33975
 Alpha  occ. eigenvalues --   -0.33679  -0.33269  -0.32926  -0.31223  -0.31152
 Alpha  occ. eigenvalues --   -0.31063  -0.30737  -0.30125  -0.29738  -0.29468
 Alpha  occ. eigenvalues --   -0.29370  -0.29116  -0.28965  -0.24170  -0.23785
 Alpha  occ. eigenvalues --   -0.21196  -0.20872
 Alpha virt. eigenvalues --   -0.08820  -0.08557  -0.01819  -0.01464  -0.00018
 Alpha virt. eigenvalues --    0.00150   0.02125   0.02418   0.02950   0.03547
 Alpha virt. eigenvalues --    0.04616   0.04867   0.04945   0.05347   0.05954

 Mulliken charges:
               1
     1  Mg   0.796558
     2  C   -0.000306
     3  C   -0.092487
     4  C   -0.045371
     5  C   -0.063451
     6  N   -0.250546
     7  C   -0.057542
     8  C   -0.012713
     9  C   -0.086877
    10  C    0.047971
    11  C    0.104612
    12  C    0.048528
    13  C   -0.071676
    14  H    0.036159
    15  N   -0.436464
    16  C    0.168509
    17  C   -0.175245
    18  C   -0.000839
    19  C    0.151526
    20  C    0.109844
    21  C    0.018155
    22  O   -0.249208
    23  C    0.059346
    24  N   -0.332178
    25  C    0.043129
    26  C   -0.028114
    27  C   -0.023833
    28  C    0.070617
    29  C    0.076516
    30  C    0.040518
    31  C   -0.013525
    32  N   -0.312881
    33  C    0.077825
    34  C   -0.172872
    35  C    0.008082
    36  C    0.077714
    37  C    0.127866
    38  C    0.044710
    39  O   -0.188529
    40  C   -0.007513
    41  C    0.213962
    42  O   -0.260854
    43  O   -0.304086
    44  C    0.157355
    45  H   -0.017552
    46  H   -0.016140
    47  H   -0.043140
    48  H    0.000773
    49  H   -0.003454
    50  H    0.025718
    51  H    0.017264
    52  H    0.017085
    53  H    0.013159
    54  H    0.044323
    55  H    0.018311
    56  H    0.018678
    57  H    0.005121
    58  H    0.026839
    59  H    0.044587
    60  H    0.034705
    61  H    0.035856
    62  H    0.041629
    63  H    0.017724
    64  H    0.009436
    65  H    0.023767
    66  H    0.012658
    67  H    0.004896
    68  H    0.005531
    69  H    0.003380
    70  H    0.008705
    71  H    0.022504
    72  H    0.029311
    73  H    0.046390
    74  H    0.009223
    75  H    0.046450
    76  H    0.035890
    77  H    0.043776
    78  H    0.046843
    79  H    0.053314
    80  Mg   0.837646
    81  C   -0.017520
    82  C   -0.088446
    83  C   -0.045061
    84  C   -0.064207
    85  N   -0.254663
    86  C   -0.049636
    87  C   -0.015110
    88  C   -0.090407
    89  C    0.045585
    90  C    0.114588
    91  C    0.062612
    92  C   -0.077585
    93  H    0.034374
    94  N   -0.423205
    95  C    0.162493
    96  C   -0.175524
    97  C   -0.008934
    98  C    0.152046
    99  C    0.099690
   100  C    0.015589
   101  O   -0.255966
   102  C    0.061489
   103  N   -0.349990
   104  C    0.036214
   105  C   -0.027013
   106  C   -0.039965
   107  C    0.089216
   108  C    0.061567
   109  C    0.022465
   110  C   -0.011940
   111  N   -0.324285
   112  C    0.077864
   113  C   -0.162041
   114  C    0.001954
   115  C    0.096615
   116  C    0.131522
   117  C    0.042620
   118  O   -0.187893
   119  C    0.000922
   120  C    0.211187
   121  O   -0.251274
   122  O   -0.305643
   123  C    0.152171
   124  H   -0.020711
   125  H   -0.016877
   126  H   -0.032552
   127  H   -0.000929
   128  H   -0.004893
   129  H    0.022341
   130  H    0.014286
   131  H    0.015512
   132  H    0.013874
   133  H    0.037595
   134  H    0.020607
   135  H    0.019310
   136  H    0.008365
   137  H    0.024704
   138  H    0.039086
   139  H    0.037521
   140  H    0.034362
   141  H    0.034672
   142  H    0.015683
   143  H    0.029707
   144  H    0.034812
   145  H    0.008064
   146  H    0.016483
   147  H    0.018687
   148  H    0.015289
   149  H    0.012780
   150  H    0.028784
   151  H    0.025914
   152  H    0.044981
   153  H    0.013130
   154  H    0.048307
   155  H    0.034763
   156  H    0.043668
   157  H    0.049241
   158  H    0.053370
 Sum of Mulliken charges =  -0.00000

 Dipole moment (field-independent basis, Debye):
    X=              1.2866    Y=              6.2840    Z=             -5.2176  Tot=              8.2684
 Quadrupole moment (field-independent basis, Debye-Ang):
   XX=           -458.1811   YY=           -543.8202   ZZ=           -477.9469
   XY=            -30.4966   XZ=              6.6152   YZ=            -11.0668

 Normal termination of Gaussian 16 at Fri Sep 10 08:36:34 2021.
