 Gaussian 16, Revision A.03,
 Gaussian 16:  ES64L-G16RevA.03 25-Dec-2016

 -----------------------------------
 #p cam-b3lyp/Def2SVP td=(nstates=5)
 -----------------------------------

 --------------------------------
 TDDFT excited states in gaussian
 --------------------------------
 Symbolic Z-matrix:
 Charge =  0 Multiplicity = 1

                         Standard orientation:
 ---------------------------------------------------------------------
 Center     Atomic      Atomic             Coordinates (Angstroms)
 Number     Number       Type             X           Y           Z
 ---------------------------------------------------------------------
      1         12           0        5.272882    0.575461    1.173495
      2          6           0        5.991232   -2.386492   -0.703477
      3          6           0        6.719255    2.350297   -1.356531
      4          6           0        5.060709    3.154077    3.007164
      5          6           0        4.935572   -1.462666    3.980258
      6          7           0        6.199566   -0.051796   -0.736598
      7          6           0        6.357814   -1.212420   -1.365153
      8          6           0        6.880420   -1.058312   -2.824779
      9          6           0        7.587664    0.364240   -2.690056
     10          6           0        6.764687    0.937656   -1.549956
     11          6           0        9.045619    0.280548   -2.249756
     12          6           0        5.717047   -1.022814   -3.872173
     13          6           0        6.145847   -1.202571   -5.331341
     14          1           0        5.269448   -1.933943   -6.233764
     15          7           0        5.356382    2.492402    0.703161
     16          6           0        5.973794    3.036026   -0.373204
     17          6           0        5.751787    4.494824   -0.276754
     18          6           0        5.118236    4.772443    1.042198
     19          6           0        5.177799    3.470368    1.655736
     20          6           0        6.083082    5.452256   -1.380076
     21          6           0        4.558910    6.016445    1.656808
     22          8           0        4.267618    6.089458    2.899544
     23          6           0        4.442230    7.190581    0.773161
     24          7           0        5.248620    0.848239    3.242948
     25          6           0        5.088812    2.064121    3.776873
     26          6           0        4.820303    1.982424    5.250361
     27          6           0        4.587622    0.435808    5.572220
     28          6           0        4.859185   -0.142283    4.161428
     29          6           0        5.924404    2.533211    6.163381
     30          6           0        3.263834    0.056745    6.282371
     31          6           0        2.095021    0.303601    5.354990
     32          7           0        5.253611   -1.559121    1.566224
     33          6           0        5.122039   -2.185698    2.813927
     34          6           0        5.276012   -3.634613    2.588083
     35          6           0        5.504448   -3.749646    1.218254
     36          6           0        5.519954   -2.452675    0.630107
     37          6           0        5.256242   -4.641450    3.593231
     38          6           0        5.763544   -4.664760    0.118576
     39          8           0        5.771806   -5.890268   -0.006142
     40          6           0        6.210140   -3.810900   -1.149219
     41          6           0        5.422705   -4.306646   -2.331375
     42          8           0        4.187651   -4.138777   -2.393239
     43          8           0        6.268548   -4.683514   -3.302488
     44          6           0        5.551175   -5.158468   -4.515727
     45          1           0        7.355800    2.988174   -1.972862
     46          1           0        4.874906    4.008934    3.660719
     47          1           0        4.758590   -2.166671    4.795432
     48          1           0        7.609909   -1.809515   -3.128033
     49          1           0        7.462311    0.967777   -3.588805
     50          1           0        9.321284   -0.737773   -1.975983
     51          1           0        9.127586    0.942110   -1.387138
     52          1           0        9.704809    0.698071   -3.011281
     53          1           0        5.308768   -0.013404   -3.921786
     54          1           0        4.954303   -1.762635   -3.626793
     55          1           0        7.167150   -1.577629   -5.403328
     56          1           0        6.184854   -0.218958   -5.799512
     57          1           0        6.686828    4.978845   -2.153326
     58          1           0        6.735458    6.214683   -0.954847
     59          1           0        5.192133    5.921814   -1.797279
     60          1           0        5.427409    7.446369    0.382592
     61          1           0        3.940583    7.959572    1.359550
     62          1           0        3.830320    6.924129   -0.089114
     63          1           0        3.923980    2.541364    5.516102
     64          1           0        5.363570    0.032253    6.223159
     65          1           0        5.582855    3.317409    6.839460
     66          1           0        6.738052    2.888492    5.531681
     67          1           0        6.432270    1.783715    6.769800
     68          1           0        3.112959    0.681693    7.161929
     69          1           0        3.231393   -0.983862    6.605381
     70          1           0        1.896945    1.366252    5.490528
     71          1           0        1.235738   -0.295489    5.658198
     72          1           0        2.375942    0.154918    4.312175
     73          1           0        4.651254   -5.456668    3.196522
     74          1           0        4.843978   -4.260434    4.527291
     75          1           0        6.318769   -4.871975    3.669054
     76          1           0        7.280567   -3.971367   -1.273953
     77          1           0        5.913442   -6.164045   -4.729764
     78          1           0        5.696217   -4.395001   -5.280245
     79          1           0        4.482634   -5.344545   -4.402000
     80         12           0       -5.028830    0.329946   -1.222974
     81          6           0       -6.795880   -1.661938    1.183066
     82          6           0       -7.088274    2.913341   -0.374802
     83          6           0       -3.798061    1.974442   -3.641289
     84          6           0       -3.914107   -2.643260   -2.659330
     85          7           0       -6.688646    0.483054    0.230932
     86          6           0       -7.230193   -0.320911    1.133548
     87          6           0       -8.240367    0.371063    2.087632
     88          6           0       -8.656813    1.602531    1.144798
     89          6           0       -7.388734    1.702893    0.299471
     90          6           0       -9.822206    1.286733    0.222049
     91          6           0       -7.565930    0.866347    3.414985
     92          6           0       -8.543273    1.271828    4.520481
     93          1           0       -8.177862    0.997808    5.907518
     94          7           0       -5.038224    2.281030   -1.585982
     95          6           0       -5.935831    3.186649   -1.143908
     96          6           0       -5.512526    4.479298   -1.704309
     97          6           0       -4.387061    4.235862   -2.647050
     98          6           0       -4.377610    2.787047   -2.677780
     99          6           0       -6.109060    5.787611   -1.273155
    100          6           0       -3.478934    5.155015   -3.406445
    101          8           0       -2.725793    4.727983   -4.351566
    102          6           0       -3.565927    6.584509   -3.074102
    103          7           0       -4.178231   -0.244834   -3.030857
    104          6           0       -3.673629    0.668533   -3.878838
    105          6           0       -2.871998    0.009939   -4.976123
    106          6           0       -2.741097   -1.525898   -4.549935
    107          6           0       -3.603355   -1.507359   -3.268701
    108          6           0       -3.468291    0.099011   -6.380718
    109          6           0       -1.305550   -2.113175   -4.466339
    110          6           0       -0.550099   -1.469276   -3.326139
    111          7           0       -5.134751   -1.770992   -0.730147
    112          6           0       -4.622949   -2.850561   -1.482919
    113          6           0       -5.041122   -4.093101   -0.801981
    114          6           0       -5.792606   -3.647120    0.295680
    115          6           0       -5.856446   -2.227492    0.287324
    116          6           0       -4.761529   -5.417527   -1.242254
    117          6           0       -6.555313   -4.054837    1.453585
    118          8           0       -6.775473   -5.127127    2.015248
    119          6           0       -7.345029   -2.792100    2.008773
    120          6           0       -7.141600   -2.734973    3.498026
    121          8           0       -6.012454   -2.522686    3.974020
    122          8           0       -8.341584   -2.723140    4.106528
    123          6           0       -8.192272   -2.655837    5.584701
    124          1           0       -7.823458    3.718140   -0.348563
    125          1           0       -3.264301    2.496099   -4.439065
    126          1           0       -3.524496   -3.608521   -2.989721
    127          1           0       -9.113533   -0.221828    2.332217
    128          1           0       -8.802432    2.511180    1.723167
    129          1           0      -10.102631    0.244968    0.269233
    130          1           0       -9.486543    1.543435   -0.774193
    131          1           0      -10.664003    1.951198    0.437002
    132          1           0       -7.079491    1.832821    3.230470
    133          1           0       -6.879773    0.132366    3.790606
    134          1           0       -9.563575    0.925134    4.316197
    135          1           0       -8.626757    2.361322    4.527426
    136          1           0       -7.027270    5.638844   -0.691635
    137          1           0       -6.442832    6.301520   -2.181104
    138          1           0       -5.393213    6.424675   -0.749354
    139          1           0       -4.582987    6.932295   -3.238686
    140          1           0       -2.779122    7.068263   -3.656167
    141          1           0       -3.360119    6.708296   -2.005021
    142          1           0       -1.880939    0.441658   -5.043421
    143          1           0       -3.250848   -2.191258   -5.262177
    144          1           0       -2.786837    0.568231   -7.115239
    145          1           0       -4.399537    0.646634   -6.322097
    146          1           0       -3.785156   -0.850407   -6.808965
    147          1           0       -0.748250   -1.882232   -5.377512
    148          1           0       -1.286277   -3.190677   -4.341419
    149          1           0       -0.182997   -0.538109   -3.768025
    150          1           0        0.272570   -2.104714   -3.004457
    151          1           0       -1.227451   -1.200879   -2.507109
    152          1           0       -4.468997   -5.981490   -0.366533
    153          1           0       -3.982214   -5.427948   -2.001412
    154          1           0       -5.736309   -5.697110   -1.650783
    155          1           0       -8.395239   -2.919968    1.743641
    156          1           0       -8.740759   -3.506789    6.000300
    157          1           0       -8.536261   -1.645021    5.873990
    158          1           0       -7.203406   -2.820062    5.996559
 ---------------------------------------------------------------------

 SCF Done:  E(RCAM-B3LYP) =  -4069.81222302     A.U. after   19 cycles

 Excitation energies and oscillator strengths:

 Excited State   1:      Singlet-A      1.6560 eV  748.70 nm  f=0.0055  <S**2>=0.000
     309 -> 315       -0.11238
     310 -> 316        0.12613
     311 -> 313       -0.45540
     312 -> 314        0.51458
 This state for optimization and/or second-order correction.
 Total Energy, E(TD-HF/TD-DFT) =  -4069.75136649
 Copying the excited state density for this state as the 1-particle RhoCI density.

 Excited State   2:      Singlet-A      1.6956 eV  731.20 nm  f=0.7172  <S**2>=0.000
     309 -> 315        0.13451
     310 -> 316        0.11824
     311 -> 313        0.51274
     312 -> 314        0.45384

 Excited State   3:      Singlet-A      2.1831 eV  567.94 nm  f=0.0425  <S**2>=0.000
     309 -> 313        0.22697
     310 -> 314        0.60226
     312 -> 316       -0.25344

 Excited State   4:      Singlet-A      2.1938 eV  565.16 nm  f=0.1448  <S**2>=0.000
     309 -> 313        0.59918
     310 -> 314       -0.22455
     311 -> 315       -0.26168

 Excited State   5:      Singlet-A      2.5726 eV  481.95 nm  f=0.0000  <S**2>=0.000
     312 -> 313        0.70701

 The electronic state is 1-A.
 Alpha  occ. eigenvalues --  -46.87663 -46.87485 -19.26289 -19.26236 -19.19037
 Alpha  occ. eigenvalues --  -19.19030 -19.18700 -19.18616 -19.18066 -19.17896
 Alpha  occ. eigenvalues --  -14.42331 -14.42325 -14.41313 -14.41172 -14.39270
 Alpha  occ. eigenvalues --  -14.39185 -14.38454 -14.38421 -10.39077 -10.38964
 Alpha  occ. eigenvalues --  -10.35335 -10.35298 -10.34290 -10.34073 -10.31712
 Alpha  occ. eigenvalues --  -10.31661 -10.31284 -10.31136 -10.30880 -10.30799
 Alpha  occ. eigenvalues --  -10.30437 -10.30374 -10.30220 -10.30178 -10.30062
 Alpha  occ. eigenvalues --  -10.29950 -10.29783 -10.29700 -10.29498 -10.29271
 Alpha  occ. eigenvalues --  -10.29230 -10.29117 -10.28671 -10.28590 -10.28556
 Alpha  occ. eigenvalues --  -10.28519 -10.28248 -10.28243 -10.28022 -10.28005
 Alpha  occ. eigenvalues --  -10.27834 -10.27661 -10.27598 -10.27503 -10.27453
 Alpha  occ. eigenvalues --  -10.27342 -10.27337 -10.27332 -10.27321 -10.27306
 Alpha  occ. eigenvalues --  -10.27300 -10.27288 -10.27252 -10.27166 -10.27084
 Alpha  occ. eigenvalues --  -10.26907 -10.26660 -10.26576 -10.26365 -10.26303
 Alpha  occ. eigenvalues --  -10.26143 -10.25965 -10.25903 -10.25871 -10.25730
 Alpha  occ. eigenvalues --  -10.25723 -10.25676 -10.25609 -10.25307 -10.25249
 Alpha  occ. eigenvalues --  -10.24705 -10.24705 -10.24658 -10.24520 -10.24420
 Alpha  occ. eigenvalues --  -10.24171  -3.16405  -3.16235  -1.91286  -1.91117
 Alpha  occ. eigenvalues --   -1.90873  -1.90715  -1.90706  -1.90543  -1.16636
 Alpha  occ. eigenvalues --   -1.16527  -1.08531  -1.08504  -1.07103  -1.06874
 Alpha  occ. eigenvalues --   -1.06821  -1.06644  -1.04459  -1.04333  -1.03628
 Alpha  occ. eigenvalues --   -1.03490  -1.03100  -1.02857  -1.02279  -1.01935
 Alpha  occ. eigenvalues --   -0.91862  -0.91824  -0.89364  -0.89262  -0.89097
 Alpha  occ. eigenvalues --   -0.89007  -0.88135  -0.87982  -0.87730  -0.87603
 Alpha  occ. eigenvalues --   -0.87552  -0.87514  -0.87143  -0.86985  -0.84888
 Alpha  occ. eigenvalues --   -0.84855  -0.83781  -0.83616  -0.82837  -0.82790
 Alpha  occ. eigenvalues --   -0.82553  -0.82500  -0.81512  -0.81441  -0.80495
 Alpha  occ. eigenvalues --   -0.80288  -0.78664  -0.78475  -0.77091  -0.76972
 Alpha  occ. eigenvalues --   -0.76841  -0.76713  -0.75830  -0.75686  -0.74766
 Alpha  occ. eigenvalues --   -0.74602  -0.72639  -0.72512  -0.71557  -0.71419
 Alpha  occ. eigenvalues --   -0.69726  -0.69445  -0.68772  -0.68675  -0.67525
 Alpha  occ. eigenvalues --   -0.67443  -0.67134  -0.67074  -0.65192  -0.65123
 Alpha  occ. eigenvalues --   -0.64746  -0.64591  -0.64512  -0.64488  -0.64121
 Alpha  occ. eigenvalues --   -0.63965  -0.62232  -0.62120  -0.60309  -0.60183
 Alpha  occ. eigenvalues --   -0.59700  -0.59647  -0.58866  -0.58817  -0.58387
 Alpha  occ. eigenvalues --   -0.58252  -0.57510  -0.57403  -0.57184  -0.57052
 Alpha  occ. eigenvalues --   -0.56192  -0.56036  -0.55931  -0.55749  -0.55408
 Alpha  occ. eigenvalues --   -0.55320  -0.55220  -0.55041  -0.54424  -0.54268
 Alpha  occ. eigenvalues --   -0.53808  -0.53775  -0.53174  -0.53124  -0.53066
 Alpha  occ. eigenvalues --   -0.52986  -0.52828  -0.52745  -0.52646  -0.52557
 Alpha  occ. eigenvalues --   -0.52249  -0.52045  -0.51772  -0.51673  -0.51529
 Alpha  occ. eigenvalues --   -0.51526  -0.51078  -0.51008  -0.50440  -0.50348
 Alpha  occ. eigenvalues --   -0.49879  -0.49835  -0.49797  -0.49624  -0.49416
 Alpha  occ. eigenvalues --   -0.49357  -0.49110  -0.49060  -0.49000  -0.48947
 Alpha  occ. eigenvalues --   -0.48504  -0.48412  -0.48343  -0.48329  -0.48223
 Alpha  occ. eigenvalues --   -0.48180  -0.47582  -0.47434  -0.47180  -0.46967
 Alpha  occ. eigenvalues --   -0.46666  -0.46519  -0.46469  -0.46407  -0.46232
 Alpha  occ. eigenvalues --   -0.46081  -0.46043  -0.45902  -0.45725  -0.45650
 Alpha  occ. eigenvalues --   -0.45062  -0.45000  -0.44477  -0.44388  -0.44376
 Alpha  occ. eigenvalues --   -0.44295  -0.44021  -0.43986  -0.43976  -0.43913
 Alpha  occ. eigenvalues --   -0.43834  -0.43808  -0.43410  -0.43371  -0.43271
 Alpha  occ. eigenvalues --   -0.43227  -0.42910  -0.42785  -0.42730  -0.42661
 Alpha  occ. eigenvalues --   -0.42496  -0.42315  -0.41867  -0.41704  -0.41589
 Alpha  occ. eigenvalues --   -0.41500  -0.41436  -0.41272  -0.41028  -0.40832
 Alpha  occ. eigenvalues --   -0.40759  -0.40714  -0.40614  -0.40526  -0.40424
 Alpha  occ. eigenvalues --   -0.40239  -0.40166  -0.40110  -0.39249  -0.39087
 Alpha  occ. eigenvalues --   -0.38328  -0.38134  -0.37675  -0.37515  -0.37178
 Alpha  occ. eigenvalues --   -0.37166  -0.37065  -0.37035  -0.36670  -0.36626
 Alpha  occ. eigenvalues --   -0.36094  -0.36024  -0.34159  -0.34079  -0.33755
 Alpha  occ. eigenvalues --   -0.33729  -0.33063  -0.33000  -0.31231  -0.31174
 Alpha  occ. eigenvalues --   -0.30915  -0.30807  -0.29928  -0.29799  -0.29318
 Alpha  occ. eigenvalues --   -0.29190  -0.29173  -0.29038  -0.23953  -0.23861
 Alpha  occ. eigenvalues --   -0.20994  -0.20942
 Alpha virt. eigenvalues --   -0.08644  -0.08625  -0.01618  -0.01512   0.00061
 Alpha virt. eigenvalues --    0.00104   0.02321   0.02378   0.03226   0.03484
 Alpha virt. eigenvalues --    0.04822   0.04885   0.05110   0.05294   0.06223

 Mulliken charges:
               1
     1  Mg   0.839384
     2  C   -0.003620
     3  C   -0.093920
     4  C   -0.045825
     5  C   -0.063361
     6  N   -0.256779
     7  C   -0.052590
     8  C   -0.014074
     9  C   -0.087061
    10  C    0.046287
    11  C    0.104844
    12  C    0.053447
    13  C   -0.071363
    14  H    0.034244
    15  N   -0.433108
    16  C    0.168678
    17  C   -0.176829
    18  C   -0.003951
    19  C    0.148763
    20  C    0.110087
    21  C    0.012263
    22  O   -0.250074
    23  C    0.062285
    24  N   -0.341250
    25  C    0.041381
    26  C   -0.028044
    27  C   -0.024091
    28  C    0.075022
    29  C    0.076299
    30  C    0.034978
    31  C   -0.004761
    32  N   -0.310520
    33  C    0.080600
    34  C   -0.168951
    35  C    0.008218
    36  C    0.083115
    37  C    0.127200
    38  C    0.045946
    39  O   -0.188717
    40  C   -0.005409
    41  C    0.213351
    42  O   -0.258787
    43  O   -0.304362
    44  C    0.158050
    45  H   -0.017793
    46  H   -0.017057
    47  H   -0.040875
    48  H    0.000675
    49  H   -0.003985
    50  H    0.025323
    51  H    0.016549
    52  H    0.016493
    53  H    0.011967
    54  H    0.042829
    55  H    0.018059
    56  H    0.018531
    57  H    0.005849
    58  H    0.026361
    59  H    0.040525
    60  H    0.037268
    61  H    0.034800
    62  H    0.032304
    63  H    0.016545
    64  H    0.009244
    65  H    0.022877
    66  H    0.012245
    67  H    0.004665
    68  H    0.005957
    69  H    0.005391
    70  H    0.007926
    71  H    0.021062
    72  H    0.028893
    73  H    0.048121
    74  H    0.009928
    75  H    0.045631
    76  H    0.035102
    77  H    0.043181
    78  H    0.046384
    79  H    0.052164
    80  Mg   0.838150
    81  C   -0.017157
    82  C   -0.088052
    83  C   -0.045722
    84  C   -0.063860
    85  N   -0.254576
    86  C   -0.049789
    87  C   -0.015135
    88  C   -0.090451
    89  C    0.045611
    90  C    0.114499
    91  C    0.062581
    92  C   -0.077650
    93  H    0.034369
    94  N   -0.423300
    95  C    0.162703
    96  C   -0.174941
    97  C   -0.008271
    98  C    0.152009
    99  C    0.099440
   100  C    0.015032
   101  O   -0.254442
   102  C    0.061409
   103  N   -0.350329
   104  C    0.037731
   105  C   -0.019261
   106  C   -0.035177
   107  C    0.089649
   108  C    0.074087
   109  C    0.034834
   110  C   -0.011103
   111  N   -0.324353
   112  C    0.079120
   113  C   -0.161797
   114  C    0.002038
   115  C    0.096669
   116  C    0.131190
   117  C    0.042630
   118  O   -0.187848
   119  C    0.000786
   120  C    0.211260
   121  O   -0.251042
   122  O   -0.305657
   123  C    0.152184
   124  H   -0.020239
   125  H   -0.016438
   126  H   -0.038780
   127  H   -0.000895
   128  H   -0.004621
   129  H    0.022273
   130  H    0.014352
   131  H    0.015845
   132  H    0.014064
   133  H    0.037603
   134  H    0.020636
   135  H    0.019500
   136  H    0.008571
   137  H    0.025436
   138  H    0.039450
   139  H    0.038265
   140  H    0.034697
   141  H    0.034038
   142  H    0.013840
   143  H    0.011701
   144  H    0.023837
   145  H    0.011046
   146  H    0.005393
   147  H    0.004427
   148  H    0.006127
   149  H    0.007126
   150  H    0.031785
   151  H    0.028022
   152  H    0.046944
   153  H    0.010505
   154  H    0.046257
   155  H    0.034701
   156  H    0.043715
   157  H    0.049306
   158  H    0.053309
 Sum of Mulliken charges =  -0.00000

 Dipole moment (field-independent basis, Debye):
    X=              0.1155    Y=              6.7835    Z=             -2.3463  Tot=              7.1787
 Quadrupole moment (field-independent basis, Debye-Ang):
   XX=           -451.8177   YY=           -538.1156   ZZ=           -477.9859
   XY=            -16.8832   XZ=            -23.2503   YZ=             10.0882

 Normal termination of Gaussian 16 at Fri Sep 10 12:19:31 2021.
