 Gaussian 16, Revision A.03,
 Gaussian 16:  ES64L-G16RevA.03 25-Dec-2016

 -----------------------------------
 #p cam-b3lyp/Def2SVP td=(nstates=5)
 -----------------------------------

 --------------------------------
 TDDFT excited states in gaussian
 --------------------------------
 Symbolic Z-matrix:
 Charge =  0 Multiplicity = 1

                         Standard orientation:
 ---------------------------------------------------------------------
 Center     Atomic      Atomic             Coordinates (Angstroms)
 Number     Number       Type             X           Y           Z
 ---------------------------------------------------------------------
      1         12           0       16.004027   -0.633698    0.075768
      2          6           0       16.182353    2.684346   -1.255021
      3          6           0       16.876259    0.691100    3.096891
      4          6           0       16.296792   -3.596410    1.168126
      5          6           0       16.266695   -1.801884   -3.197153
      6          7           0       16.444862    1.439685    0.714043
      7          6           0       16.419655    2.628756    0.120204
      8          6           0       16.594448    3.818122    1.111279
      9          6           0       17.354547    3.056045    2.287496
     10          6           0       16.834771    1.650526    2.041991
     11          6           0       18.871772    3.052981    2.130906
     12          6           0       15.221761    4.395088    1.595603
     13          6           0       15.295777    5.752602    2.300607
     14          1           0       14.213502    6.704754    2.102030
     15          7           0       16.031851   -1.319239    1.928363
     16          6           0       16.398823   -0.636152    3.039223
     17          6           0       16.247498   -1.580560    4.166997
     18          6           0       15.944758   -2.923407    3.598485
     19          6           0       16.106996   -2.668941    2.189832
     20          6           0       16.341987   -1.168147    5.603916
     21          6           0       15.579137   -4.231366    4.225938
     22          8           0       15.585649   -5.327129    3.567277
     23          6           0       15.295131   -4.209531    5.672280
     24          7           0       16.467343   -2.448038   -0.846806
     25          6           0       16.470729   -3.592828   -0.155120
     26          6           0       16.548327   -4.781399   -1.066832
     27          6           0       16.351791   -4.216452   -2.547359
     28          6           0       16.272574   -2.705980   -2.214990
     29          6           0       17.849248   -5.593187   -0.998881
     30          6           0       15.217928   -4.845543   -3.395307
     31          6           0       13.873848   -4.484711   -2.803406
     32          7           0       16.014396    0.249764   -1.906764
     33          6           0       16.157118   -0.423040   -3.128909
     34          6           0       16.212623    0.605235   -4.184200
     35          6           0       16.114355    1.813315   -3.496645
     36          6           0       16.030843    1.556962   -2.098217
     37          6           0       16.396909    0.363732   -5.574217
     38          6           0       16.085271    3.262013   -3.616163
     39          8           0       16.028959    4.053417   -4.558501
     40          6           0       16.250812    3.888218   -2.161415
     41          6           0       15.197119    4.949969   -2.001027
     42          8           0       13.986678    4.649049   -1.960462
     43          8           0       15.783935    6.114375   -1.684249
     44          6           0       14.791778    7.203808   -1.481979
     45          1           0       17.371049    0.957023    4.033058
     46          1           0       16.292140   -4.639060    1.492621
     47          1           0       16.262901   -2.094446   -4.248745
     48          1           0       17.211872    4.634803    0.736787
     49          1           0       17.042093    3.409388    3.269964
     50          1           0       19.173721    3.464328    1.167817
     51          1           0       19.170298    2.007363    2.208733
     52          1           0       19.348595    3.563814    2.967846
     53          1           0       14.842483    3.781931    2.413068
     54          1           0       14.515439    4.457200    0.767003
     55          1           0       16.261384    6.232961    2.140082
     56          1           0       15.253817    5.581533    3.376328
     57          1           0       16.736390   -0.157865    5.705511
     58          1           0       17.096864   -1.802403    6.068232
     59          1           0       15.392643   -1.283299    6.127192
     60          1           0       16.170132   -3.836899    6.205262
     61          1           0       14.965315   -5.215549    5.929182
     62          1           0       14.492801   -3.496424    5.863837
     63          1           0       15.754424   -5.494399   -0.848260
     64          1           0       17.245321   -4.349296   -3.157795
     65          1           0       17.696314   -6.646352   -0.761901
     66          1           0       18.504515   -5.119182   -0.268651
     67          1           0       18.461771   -5.551210   -1.899142
     68          1           0       15.292896   -5.932351   -3.382046
     69          1           0       15.231023   -4.524888   -4.437065
     70          1           0       13.743372   -5.232423   -2.021910
     71          1           0       13.091111   -4.568096   -3.558112
     72          1           0       13.901336   -3.508453   -2.318999
     73          1           0       15.693186    1.014708   -6.092844
     74          1           0       16.223254   -0.683521   -5.820607
     75          1           0       17.441001    0.653007   -5.692746
     76          1           0       17.258190    4.300154   -2.110237
     77          1           0       15.065397    8.016217   -2.155298
     78          1           0       14.777959    7.415748   -0.412729
     79          1           0       13.773653    6.996158   -1.813102
     80         12           0      -15.746538   -0.837896    0.145410
     81          6           0      -17.761429    2.104079   -0.259639
     82          6           0      -13.328788    1.179921    1.455934
     83          6           0      -13.782275   -3.329291    0.100085
     84          6           0      -17.805311   -2.400948   -2.192117
     85          7           0      -15.672854    1.343887    0.501271
     86          6           0      -16.521197    2.351862    0.364732
     87          6           0      -16.044205    3.684735    1.001527
     88          6           0      -14.462144    3.410200    0.977294
     89          6           0      -14.478387    1.883461    1.015987
     90          6           0      -13.795075    3.848126   -0.315986
     91          6           0      -16.572712    3.869704    2.467293
     92          6           0      -16.405247    5.279600    3.038176
     93          1           0      -17.438084    5.795722    3.932225
     94          7           0      -14.048667   -1.152622    1.123537
     95          6           0      -13.201476   -0.218671    1.604475
     96          6           0      -12.092223   -0.961665    2.222266
     97          6           0      -12.271736   -2.408147    1.921955
     98          6           0      -13.387570   -2.349280    0.999164
     99          6           0      -11.046421   -0.303010    3.074258
    100          6           0      -11.549433   -3.639418    2.378515
    101          8           0      -11.722297   -4.772872    1.805597
    102          6           0      -10.564318   -3.460320    3.455070
    103          7           0      -15.653841   -2.538803   -1.046520
    104          6           0      -14.732237   -3.491560   -0.821085
    105          6           0      -15.030586   -4.738671   -1.618633
    106          6           0      -16.484562   -4.510851   -2.244428
    107          6           0      -16.749348   -3.071192   -1.751810
    108          6           0      -14.041105   -5.065820   -2.736793
    109          6           0      -17.553891   -5.599586   -1.954811
    110          6           0      -17.908110   -5.597060   -0.485152
    111          7           0      -17.578145   -0.345685   -0.889476
    112          6           0      -18.255951   -1.133625   -1.845412
    113          6           0      -19.386855   -0.328366   -2.350422
    114          6           0      -19.274060    0.890431   -1.664634
    115          6           0      -18.140266    0.855137   -0.808618
    116          6           0      -20.314510   -0.732786   -3.351440
    117          6           0      -19.850137    2.202693   -1.478089
    118          8           0      -20.869522    2.767889   -1.871963
    119          6           0      -18.823110    3.092966   -0.654058
    120          6           0      -19.583513    3.780801    0.446479
    121          8           0      -20.099520    3.121331    1.365962
    122          8           0      -19.392020    5.109161    0.350796
    123          6           0      -20.117554    5.834178    1.427733
    124          1           0      -12.422640    1.747923    1.668412
    125          1           0      -13.201385   -4.254160    0.125667
    126          1           0      -18.550808   -2.852768   -2.849985
    127          1           0      -16.276441    4.572230    0.425171
    128          1           0      -13.978405    3.808991    1.865169
    129          1           0      -14.516670    4.164625   -1.054420
    130          1           0      -13.244930    2.986047   -0.669803
    131          1           0      -13.047342    4.619863   -0.111918
    132          1           0      -15.925009    3.310509    3.154700
    133          1           0      -17.599557    3.568859    2.542868
    134          1           0      -16.169195    6.014469    2.258945
    135          1           0      -15.527865    5.288326    3.689428
    136          1           0      -11.078983    0.789311    2.978525
    137          1           0      -10.072418   -0.583179    2.658680
    138          1           0      -11.090594   -0.622533    4.117628
    139          1           0       -9.808638   -2.745633    3.137856
    140          1           0      -10.218555   -4.465255    3.704940
    141          1           0      -11.069604   -3.020116    4.321983
    142          1           0      -15.056847   -5.610927   -0.977094
    143          1           0      -16.452919   -4.466253   -3.342992
    144          1           0      -13.590587   -6.071716   -2.640476
    145          1           0      -13.272637   -4.304301   -2.746175
    146          1           0      -14.445279   -4.998599   -3.745425
    147          1           0      -17.153417   -6.592023   -2.175844
    148          1           0      -18.460456   -5.480751   -2.538779
    149          1           0      -17.115249   -6.204976   -0.039167
    150          1           0      -18.886466   -6.046035   -0.326136
    151          1           0      -17.827567   -4.588775   -0.062633
    152          1           0      -21.295346   -0.434619   -3.005670
    153          1           0      -20.264106   -1.804804   -3.530389
    154          1           0      -19.945130   -0.156503   -4.203912
    155          1           0      -18.375358    3.804482   -1.348929
    156          1           0      -20.762988    6.570255    0.938565
    157          1           0      -19.334830    6.222475    2.106197
    158          1           0      -20.839397    5.274132    2.010601
 ---------------------------------------------------------------------

 SCF Done:  E(RCAM-B3LYP) =  -4069.81177945     A.U. after   19 cycles

 Excitation energies and oscillator strengths:

 Excited State   1:      Singlet-A      1.6755 eV  739.98 nm  f=0.3405  <S**2>=0.000
     310 -> 316       -0.17212
     312 -> 314        0.68020
     310 <- 316       -0.10375
 This state for optimization and/or second-order correction.
 Total Energy, E(TD-HF/TD-DFT) =  -4069.75020538
 Copying the excited state density for this state as the 1-particle RhoCI density.

 Excited State   2:      Singlet-A      1.6799 eV  738.04 nm  f=0.4402  <S**2>=0.000
     309 -> 315        0.17409
     311 -> 313        0.67985
     309 <- 315        0.10425

 Excited State   3:      Singlet-A      2.1861 eV  567.14 nm  f=0.0951  <S**2>=0.000
     310 -> 314        0.64210
     312 -> 316        0.27296

 Excited State   4:      Singlet-A      2.1926 eV  565.47 nm  f=0.1050  <S**2>=0.000
     309 -> 313        0.64032
     311 -> 315       -0.27816

 Excited State   5:      Singlet-A      3.0617 eV  404.95 nm  f=0.0000  <S**2>=0.000
     312 -> 313        0.70710

 The electronic state is 1-A.
 Alpha  occ. eigenvalues --  -46.87816 -46.87660 -19.26351 -19.26308 -19.19163
 Alpha  occ. eigenvalues --  -19.19044 -19.18833 -19.18712 -19.18190 -19.18052
 Alpha  occ. eigenvalues --  -14.42497 -14.42469 -14.41468 -14.41359 -14.39422
 Alpha  occ. eigenvalues --  -14.39352 -14.38606 -14.38600 -10.39103 -10.39092
 Alpha  occ. eigenvalues --  -10.35466 -10.35389 -10.34410 -10.34229 -10.31759
 Alpha  occ. eigenvalues --  -10.31705 -10.31425 -10.31309 -10.31022 -10.30928
 Alpha  occ. eigenvalues --  -10.30589 -10.30526 -10.30398 -10.30361 -10.30225
 Alpha  occ. eigenvalues --  -10.30140 -10.29939 -10.29894 -10.29650 -10.29436
 Alpha  occ. eigenvalues --  -10.29401 -10.29273 -10.28770 -10.28718 -10.28655
 Alpha  occ. eigenvalues --  -10.28563 -10.28404 -10.28384 -10.28139 -10.28137
 Alpha  occ. eigenvalues --  -10.28001 -10.27812 -10.27746 -10.27668 -10.27603
 Alpha  occ. eigenvalues --  -10.27518 -10.27517 -10.27500 -10.27483 -10.27466
 Alpha  occ. eigenvalues --  -10.27466 -10.27462 -10.27423 -10.27375 -10.27179
 Alpha  occ. eigenvalues --  -10.27051 -10.26728 -10.26693 -10.26428 -10.26412
 Alpha  occ. eigenvalues --  -10.26253 -10.26200 -10.26139 -10.26038 -10.26021
 Alpha  occ. eigenvalues --  -10.25934 -10.25862 -10.25853 -10.25450 -10.25395
 Alpha  occ. eigenvalues --  -10.24873 -10.24852 -10.24806 -10.24733 -10.24704
 Alpha  occ. eigenvalues --  -10.24689  -3.16558  -3.16410  -1.91440  -1.91292
 Alpha  occ. eigenvalues --   -1.91027  -1.90881  -1.90869  -1.90718  -1.16657
 Alpha  occ. eigenvalues --   -1.16645  -1.08659  -1.08648  -1.07234  -1.06964
 Alpha  occ. eigenvalues --   -1.06947  -1.06666  -1.04600  -1.04495  -1.03779
 Alpha  occ. eigenvalues --   -1.03663  -1.03253  -1.03038  -1.02430  -1.02111
 Alpha  occ. eigenvalues --   -0.91992  -0.91987  -0.89537  -0.89494  -0.89208
 Alpha  occ. eigenvalues --   -0.89150  -0.88304  -0.88220  -0.87889  -0.87794
 Alpha  occ. eigenvalues --   -0.87692  -0.87684  -0.87293  -0.87119  -0.85002
 Alpha  occ. eigenvalues --   -0.84999  -0.83954  -0.83876  -0.82985  -0.82930
 Alpha  occ. eigenvalues --   -0.82669  -0.82652  -0.81607  -0.81597  -0.80616
 Alpha  occ. eigenvalues --   -0.80443  -0.78816  -0.78635  -0.77238  -0.77144
 Alpha  occ. eigenvalues --   -0.76955  -0.76898  -0.75943  -0.75838  -0.74916
 Alpha  occ. eigenvalues --   -0.74802  -0.72793  -0.72699  -0.71691  -0.71580
 Alpha  occ. eigenvalues --   -0.69924  -0.69758  -0.68893  -0.68827  -0.67660
 Alpha  occ. eigenvalues --   -0.67601  -0.67241  -0.67199  -0.65307  -0.65272
 Alpha  occ. eigenvalues --   -0.64873  -0.64770  -0.64654  -0.64640  -0.64287
 Alpha  occ. eigenvalues --   -0.64204  -0.62319  -0.62279  -0.60460  -0.60339
 Alpha  occ. eigenvalues --   -0.59824  -0.59796  -0.59006  -0.58993  -0.58523
 Alpha  occ. eigenvalues --   -0.58426  -0.57605  -0.57555  -0.57327  -0.57236
 Alpha  occ. eigenvalues --   -0.56329  -0.56204  -0.56001  -0.55887  -0.55539
 Alpha  occ. eigenvalues --   -0.55451  -0.55358  -0.55248  -0.54543  -0.54488
 Alpha  occ. eigenvalues --   -0.53916  -0.53912  -0.53318  -0.53242  -0.53227
 Alpha  occ. eigenvalues --   -0.53141  -0.52935  -0.52902  -0.52775  -0.52666
 Alpha  occ. eigenvalues --   -0.52455  -0.52402  -0.51934  -0.51886  -0.51658
 Alpha  occ. eigenvalues --   -0.51637  -0.51215  -0.51202  -0.50591  -0.50473
 Alpha  occ. eigenvalues --   -0.50049  -0.49979  -0.49937  -0.49866  -0.49534
 Alpha  occ. eigenvalues --   -0.49487  -0.49234  -0.49202  -0.49116  -0.49104
 Alpha  occ. eigenvalues --   -0.48613  -0.48558  -0.48479  -0.48465  -0.48376
 Alpha  occ. eigenvalues --   -0.48337  -0.47714  -0.47594  -0.47316  -0.47117
 Alpha  occ. eigenvalues --   -0.46816  -0.46709  -0.46576  -0.46553  -0.46378
 Alpha  occ. eigenvalues --   -0.46270  -0.46181  -0.46086  -0.45842  -0.45823
 Alpha  occ. eigenvalues --   -0.45219  -0.45208  -0.44598  -0.44526  -0.44514
 Alpha  occ. eigenvalues --   -0.44476  -0.44163  -0.44127  -0.44108  -0.44078
 Alpha  occ. eigenvalues --   -0.44039  -0.43938  -0.43554  -0.43516  -0.43405
 Alpha  occ. eigenvalues --   -0.43386  -0.43046  -0.42931  -0.42902  -0.42720
 Alpha  occ. eigenvalues --   -0.42674  -0.42553  -0.42028  -0.41965  -0.41723
 Alpha  occ. eigenvalues --   -0.41669  -0.41554  -0.41459  -0.41160  -0.40989
 Alpha  occ. eigenvalues --   -0.40889  -0.40842  -0.40721  -0.40698  -0.40589
 Alpha  occ. eigenvalues --   -0.40493  -0.40256  -0.40227  -0.39458  -0.39426
 Alpha  occ. eigenvalues --   -0.38487  -0.38350  -0.37770  -0.37654  -0.37338
 Alpha  occ. eigenvalues --   -0.37284  -0.37266  -0.37199  -0.36773  -0.36735
 Alpha  occ. eigenvalues --   -0.36217  -0.36212  -0.34305  -0.34253  -0.33863
 Alpha  occ. eigenvalues --   -0.33793  -0.33206  -0.33175  -0.31362  -0.31271
 Alpha  occ. eigenvalues --   -0.31054  -0.30972  -0.30049  -0.29957  -0.29468
 Alpha  occ. eigenvalues --   -0.29341  -0.29327  -0.29212  -0.24100  -0.24036
 Alpha  occ. eigenvalues --   -0.21146  -0.21117
 Alpha virt. eigenvalues --   -0.08793  -0.08792  -0.01768  -0.01683  -0.00077
 Alpha virt. eigenvalues --   -0.00028   0.02181   0.02207   0.03102   0.03227
 Alpha virt. eigenvalues --    0.04698   0.04730   0.05075   0.05164   0.06154

 Mulliken charges:
               1
     1  Mg   0.838730
     2  C   -0.002984
     3  C   -0.094144
     4  C   -0.045854
     5  C   -0.063943
     6  N   -0.256791
     7  C   -0.052477
     8  C   -0.014015
     9  C   -0.086989
    10  C    0.046328
    11  C    0.104808
    12  C    0.053464
    13  C   -0.071775
    14  H    0.036040
    15  N   -0.433142
    16  C    0.168410
    17  C   -0.177145
    18  C   -0.003998
    19  C    0.148709
    20  C    0.110172
    21  C    0.012282
    22  O   -0.249585
    23  C    0.062479
    24  N   -0.341144
    25  C    0.041230
    26  C   -0.028191
    27  C   -0.023988
    28  C    0.074843
    29  C    0.076165
    30  C    0.035135
    31  C   -0.004511
    32  N   -0.310471
    33  C    0.080405
    34  C   -0.169718
    35  C    0.008355
    36  C    0.082976
    37  C    0.127315
    38  C    0.046101
    39  O   -0.188461
    40  C   -0.005319
    41  C    0.212858
    42  O   -0.257146
    43  O   -0.304772
    44  C    0.157712
    45  H   -0.017591
    46  H   -0.016806
    47  H   -0.041473
    48  H    0.000942
    49  H   -0.004049
    50  H    0.025483
    51  H    0.016471
    52  H    0.016671
    53  H    0.011187
    54  H    0.044087
    55  H    0.017899
    56  H    0.017946
    57  H    0.005871
    58  H    0.026859
    59  H    0.039532
    60  H    0.037363
    61  H    0.035682
    62  H    0.031469
    63  H    0.016571
    64  H    0.009485
    65  H    0.023246
    66  H    0.012552
    67  H    0.004776
    68  H    0.006405
    69  H    0.004736
    70  H    0.008797
    71  H    0.018145
    72  H    0.028946
    73  H    0.047548
    74  H    0.009127
    75  H    0.046028
    76  H    0.035167
    77  H    0.042948
    78  H    0.046392
    79  H    0.053632
    80  Mg   0.837870
    81  C   -0.016785
    82  C   -0.087758
    83  C   -0.045490
    84  C   -0.064907
    85  N   -0.254577
    86  C   -0.049866
    87  C   -0.015090
    88  C   -0.090510
    89  C    0.045759
    90  C    0.114356
    91  C    0.062523
    92  C   -0.077897
    93  H    0.034869
    94  N   -0.423504
    95  C    0.162910
    96  C   -0.174572
    97  C   -0.007776
    98  C    0.152110
    99  C    0.099335
   100  C    0.015589
   101  O   -0.253151
   102  C    0.061188
   103  N   -0.350063
   104  C    0.037542
   105  C   -0.019843
   106  C   -0.034818
   107  C    0.088951
   108  C    0.073626
   109  C    0.034734
   110  C   -0.007684
   111  N   -0.324127
   112  C    0.078457
   113  C   -0.163150
   114  C    0.002242
   115  C    0.096159
   116  C    0.131493
   117  C    0.042375
   118  O   -0.187901
   119  C    0.000887
   120  C    0.211269
   121  O   -0.251036
   122  O   -0.305622
   123  C    0.152036
   124  H   -0.019595
   125  H   -0.015538
   126  H   -0.040461
   127  H   -0.000643
   128  H   -0.004316
   129  H    0.022466
   130  H    0.014472
   131  H    0.016342
   132  H    0.013910
   133  H    0.037664
   134  H    0.020811
   135  H    0.019599
   136  H    0.008789
   137  H    0.026248
   138  H    0.039783
   139  H    0.038319
   140  H    0.036424
   141  H    0.033864
   142  H    0.014401
   143  H    0.012432
   144  H    0.025171
   145  H    0.011693
   146  H    0.005695
   147  H    0.006276
   148  H    0.003639
   149  H    0.010941
   150  H    0.017916
   151  H    0.030097
   152  H    0.045984
   153  H    0.008506
   154  H    0.046945
   155  H    0.035041
   156  H    0.043908
   157  H    0.049501
   158  H    0.053565
 Sum of Mulliken charges =  -0.00000

 Dipole moment (field-independent basis, Debye):
    X=              6.2059    Y=              1.4232    Z=              4.9830  Tot=              8.0851
 Quadrupole moment (field-independent basis, Debye-Ang):
   XX=           -596.0545   YY=           -499.8885   ZZ=           -490.3177
   XY=              6.0124   XZ=             58.4105   YZ=             56.1044

 Normal termination of Gaussian 16 at Sun Sep 12 21:09:54 2021.
