 Gaussian 16, Revision A.03,
 Gaussian 16:  ES64L-G16RevA.03 25-Dec-2016

 -----------------------------------
 #p cam-b3lyp/Def2SVP td=(nstates=5)
 -----------------------------------

 --------------------------------
 TDDFT excited states in gaussian
 --------------------------------
 Symbolic Z-matrix:
 Charge =  0 Multiplicity = 1

                         Standard orientation:
 ---------------------------------------------------------------------
 Center     Atomic      Atomic             Coordinates (Angstroms)
 Number     Number       Type             X           Y           Z
 ---------------------------------------------------------------------
      1         12           0       -7.859959   -0.736987    0.029684
      2          6           0       -8.048283    2.794810    0.580283
      3          6           0       -8.712094   -0.125919   -3.217396
      4          6           0       -8.144437   -3.869844   -0.371441
      5          6           0       -8.144451   -1.140961    3.479543
      6          7           0       -8.297075    1.139346   -1.060706
      7          6           0       -8.276244    2.431434   -0.748865
      8          6           0       -8.444671    3.367592   -1.982808
      9          6           0       -9.196557    2.359505   -2.962822
     10          6           0       -8.678039    1.045937   -2.404607
     11          6           0      -10.714807    2.388931   -2.819463
     12          6           0       -7.068905    3.823567   -2.575332
     13          6           0       -7.138546    4.987992   -3.567612
     14          1           0       -6.057923    5.962377   -3.580826
     15          7           0       -7.875027   -1.821032   -1.621822
     16          6           0       -8.234666   -1.405469   -2.860068
     17          6           0       -8.075423   -2.578705   -3.745980
     18          6           0       -7.776143   -3.759069   -2.888503
     19          6           0       -7.947998   -3.195114   -1.574046
     20          6           0       -8.160296   -2.499620   -5.239396
     21          6           0       -7.405891   -5.173849   -3.203849
     22          8           0       -7.416541   -6.093758   -2.316027
     23          6           0       -7.112099   -5.476800   -4.616276
     24          7           0       -8.328977   -2.298697    1.333034
     25          6           0       -8.327337   -3.569564    0.916047
     26          6           0       -8.410758   -4.523222    2.070826
     27          6           0       -8.224426   -3.639927    3.387953
     28          6           0       -8.143407   -2.242505    2.725443
     29          6           0       -9.710948   -5.331894    2.178383
     30          6           0       -7.096147   -4.060515    4.362895
     31          6           0       -5.748195   -3.839361    3.713886
     32          7           0       -7.884023    0.569030    1.763116
     33          6           0       -8.034823    0.187551    3.104163
     34          6           0       -8.097782    1.426411    3.901239
     35          6           0       -7.995216    2.449447    2.960642
     36          6           0       -7.902155    1.885806    1.656058
     37          6           0       -8.291411    1.502838    5.308755
     38          6           0       -7.967373    3.888042    2.752013
     39          8           0       -7.917681    4.870921    3.492940
     40          6           0       -8.123238    4.171328    1.192756
     41          6           0       -7.068798    5.171865    0.804955
     42          8           0       -5.858021    4.871712    0.840904
     43          8           0       -7.653800    6.234352    0.230988
     44          6           0       -6.660618    7.252349   -0.204243
     45          1           0       -9.200608   -0.077877   -4.192581
     46          1           0       -8.137277   -4.958721   -0.453503
     47          1           0       -8.147696   -1.189935    4.569976
     48          1           0       -9.064860    4.246386   -1.805296
     49          1           0       -8.877558    2.483800   -3.997478
     50          1           0      -11.023397    3.005467   -1.975321
     51          1           0      -11.012488    1.351996   -2.662475
     52          1           0      -11.186099    2.697941   -3.752830
     53          1           0       -6.683915    3.043210   -3.231752
     54          1           0       -6.368232    4.071415   -1.777237
     55          1           0       -8.105360    5.490380   -3.525357
     56          1           0       -7.089246    4.579839   -4.577156
     57          1           0       -8.554301   -1.538659   -5.567814
     58          1           0       -8.911821   -3.223299   -5.554368
     59          1           0       -7.207393   -2.727603   -5.717238
     60          1           0       -7.983578   -5.234936   -5.225024
     61          1           0       -6.780251   -6.514215   -4.638571
     62          1           0       -6.308700   -4.823459   -4.957810
     63          1           0       -7.615180   -5.265655    2.023123
     64          1           0       -9.122032   -3.633937    4.006776
     65          1           0       -9.556099   -6.411099    2.184931
     66          1           0      -10.361393   -5.035135    1.356102
     67          1           0      -10.329569   -5.089965    3.042208
     68          1           0       -7.170702   -5.122685    4.593508
     69          1           0       -7.116396   -3.514168    5.305946
     70          1           0       -5.612205   -4.743211    3.121101
     71          1           0       -4.970565   -3.749747    4.473143
     72          1           0       -5.772690   -2.996842    3.022475
     73          1           0       -7.591412    2.254912    5.672560
     74          1           0       -8.119118    0.537961    5.785127
     75          1           0       -9.336367    1.809449    5.352478
     76          1           0       -9.130369    4.559431    1.043808
     77          1           0       -6.939034    8.194697    0.267667
     78          1           0       -6.639617    7.218826   -1.293665
     79          1           0       -5.644699    7.126189    0.171697
     80         12           0        8.022134   -0.813931    0.120321
     81          6           0        7.834608    2.767572   -0.009164
     82          6           0        7.165302   -0.829043   -3.181227
     83          6           0        7.738113   -3.968370    0.310680
     84          6           0        7.734704   -0.565081    3.584594
     85          7           0        7.583232    0.822162   -1.301935
     86          6           0        7.603405    2.145657   -1.253836
     87          6           0        7.441824    2.841887   -2.631765
     88          6           0        6.680983    1.661100   -3.410061
     89          6           0        7.197738    0.467756   -2.609072
     90          6           0        5.169742    1.718085   -3.260913
     91          6           0        8.822483    3.173534   -3.299450
     92          6           0        8.746455    4.125697   -4.495004
     93          1           0        9.834065    5.079297   -4.695603
     94          7           0        8.007964   -2.190682   -1.308981
     95          6           0        7.653972   -2.019720   -2.600003
     96          6           0        7.795986   -3.339457   -3.234275
     97          6           0        8.104271   -4.338251   -2.174985
     98          6           0        7.937900   -3.523589   -0.988081
     99          6           0        7.718405   -3.540895   -4.719813
    100          6           0        8.473591   -5.790010   -2.221843
    101          8           0        8.464359   -6.521460   -1.169360
    102          6           0        8.755801   -6.352122   -3.550710
    103          7           0        7.560730   -2.095838    1.690717
    104          6           0        7.555435   -3.429036    1.516116
    105          6           0        7.469301   -4.152104    2.839046
    106          6           0        7.662418   -3.025644    3.957704
    107          6           0        7.741122   -1.778501    3.050050
    108          6           0        6.167582   -4.909772    3.099527
    109          6           0        8.791919   -3.254354    4.999141
    110          6           0       10.141579   -3.172998    4.322986
    111          7           0        8.005728    0.789364    1.568503
    112          6           0        7.848854    0.673909    2.967119
    113          6           0        7.788100    2.045279    3.513092
    114          6           0        7.891559    2.869969    2.382752
    115          6           0        7.988205    2.069075    1.212823
    116          6           0        7.606219    2.388146    4.882568
    117          6           0        7.930279    4.235921    1.912243
    118          8           0        7.974399    5.340093    2.453160
    119          6           0        7.767895    4.230577    0.331108
    120          6           0        8.822985    5.133250   -0.247235
    121          8           0       10.028167    4.844729   -0.142733
    122          8           0        8.231436    6.068879   -1.012104
    123          6           0        9.237951    6.981646   -1.616769
    124          1           0        6.682102   -0.956615   -4.150311
    125          1           0        7.743865   -5.052676    0.443864
    126          1           0        7.744412   -0.402865    4.664530
    127          1           0        6.828727    3.735062   -2.620318
    128          1           0        7.007127    1.595794   -4.444810
    129          1           0        4.862732    2.476925   -2.556599
    130          1           0        4.871141    0.737335   -2.914484
    131          1           0        4.699006    1.848240   -4.239589
    132          1           0        9.203604    2.273934   -3.799649
    133          1           0        9.513606    3.557938   -2.574732
    134          1           0        7.775328    4.631541   -4.557974
    135          1           0        8.801135    3.535285   -5.412859
    136          1           0        7.317837   -2.653734   -5.225667
    137          1           0        6.967113   -4.317774   -4.898346
    138          1           0        8.668661   -3.862356   -5.151472
    139          1           0        7.885481   -6.222981   -4.189700
    140          1           0        9.087406   -7.376503   -3.370283
    141          1           0        9.569687   -5.778216   -4.007691
    142          1           0        8.264523   -4.881332    2.933686
    143          1           0        6.760951   -2.907393    4.576743
    144          1           0        6.322960   -5.984624    3.310751
    145          1           0        5.519982   -4.780386    2.242548
    146          1           0        5.558309   -4.515657    3.911104
    147          1           0        8.717664   -4.258401    5.424019
    148          1           0        8.765950   -2.552156    5.825723
    149          1           0       10.270609   -4.177092    3.907985
    150          1           0       10.919823   -2.942427    5.047689
    151          1           0       10.119012   -2.469414    3.482677
    152          1           0        8.300112    3.189874    5.097618
    153          1           0        7.773319    1.531683    5.532428
    154          1           0        6.556875    2.694706    4.869177
    155          1           0        6.760223    4.580768    0.104093
    156          1           0        8.957476    8.000341   -1.331694
    157          1           0        9.244976    6.744833   -2.697338
    158          1           0       10.252817    6.928524   -1.240370
 ---------------------------------------------------------------------

 SCF Done:  E(RCAM-B3LYP) =  -4069.81166508     A.U. after   19 cycles

 Excitation energies and oscillator strengths:

 Excited State   1:      Singlet-A      1.6699 eV  742.46 nm  f=0.0239  <S**2>=0.000
     309 -> 315       -0.10414
     310 -> 316        0.13747
     311 -> 313       -0.41301
     312 -> 314        0.54818
 This state for optimization and/or second-order correction.
 Total Energy, E(TD-HF/TD-DFT) =  -4069.75029729
 Copying the excited state density for this state as the 1-particle RhoCI density.

 Excited State   2:      Singlet-A      1.6851 eV  735.75 nm  f=0.7322  <S**2>=0.000
     309 -> 315        0.14129
     310 -> 316        0.10592
     311 -> 313        0.54736
     312 -> 314        0.41249

 Excited State   3:      Singlet-A      2.1855 eV  567.31 nm  f=0.0585  <S**2>=0.000
     309 -> 313       -0.13968
     310 -> 314        0.62737
     312 -> 316       -0.26622

 Excited State   4:      Singlet-A      2.1927 eV  565.43 nm  f=0.1350  <S**2>=0.000
     309 -> 313        0.62542
     310 -> 314        0.13861
     311 -> 315       -0.27183

 Excited State   5:      Singlet-A      2.7651 eV  448.39 nm  f=0.0000  <S**2>=0.000
     312 -> 313        0.70710

 The electronic state is 1-A.
 Alpha  occ. eigenvalues --  -46.87834 -46.87588 -19.26303 -19.26283 -19.19093
 Alpha  occ. eigenvalues --  -19.19041 -19.18858 -19.18655 -19.18195 -19.17970
 Alpha  occ. eigenvalues --  -14.42488 -14.42427 -14.41486 -14.41287 -14.39441
 Alpha  occ. eigenvalues --  -14.39282 -14.38622 -14.38526 -10.39102 -10.39022
 Alpha  occ. eigenvalues --  -10.35492 -10.35334 -10.34415 -10.34147 -10.31697
 Alpha  occ. eigenvalues --  -10.31693 -10.31441 -10.31236 -10.30956 -10.30949
 Alpha  occ. eigenvalues --  -10.30605 -10.30543 -10.30324 -10.30287 -10.30245
 Alpha  occ. eigenvalues --  -10.30073 -10.29953 -10.29819 -10.29667 -10.29367
 Alpha  occ. eigenvalues --  -10.29330 -10.29293 -10.28790 -10.28655 -10.28613
 Alpha  occ. eigenvalues --  -10.28590 -10.28402 -10.28333 -10.28157 -10.28075
 Alpha  occ. eigenvalues --  -10.27927 -10.27828 -10.27765 -10.27623 -10.27601
 Alpha  occ. eigenvalues --  -10.27534 -10.27533 -10.27480 -10.27448 -10.27439
 Alpha  occ. eigenvalues --  -10.27418 -10.27412 -10.27398 -10.27306 -10.27185
 Alpha  occ. eigenvalues --  -10.26970 -10.26754 -10.26641 -10.26465 -10.26370
 Alpha  occ. eigenvalues --  -10.26270 -10.26215 -10.26075 -10.26055 -10.25950
 Alpha  occ. eigenvalues --  -10.25866 -10.25862 -10.25756 -10.25463 -10.25324
 Alpha  occ. eigenvalues --  -10.24866 -10.24823 -10.24797 -10.24720 -10.24673
 Alpha  occ. eigenvalues --  -10.24618  -3.16577  -3.16338  -1.91459  -1.91220
 Alpha  occ. eigenvalues --   -1.91045  -1.90887  -1.90809  -1.90646  -1.16652
 Alpha  occ. eigenvalues --   -1.16576  -1.08651  -1.08576  -1.07259  -1.06908
 Alpha  occ. eigenvalues --   -1.06877  -1.06663  -1.04619  -1.04424  -1.03797
 Alpha  occ. eigenvalues --   -1.03592  -1.03270  -1.02966  -1.02447  -1.02039
 Alpha  occ. eigenvalues --   -0.92005  -0.91913  -0.89553  -0.89424  -0.89228
 Alpha  occ. eigenvalues --   -0.89086  -0.88320  -0.88151  -0.87902  -0.87714
 Alpha  occ. eigenvalues --   -0.87711  -0.87615  -0.87317  -0.87059  -0.85022
 Alpha  occ. eigenvalues --   -0.84935  -0.83968  -0.83808  -0.83011  -0.82874
 Alpha  occ. eigenvalues --   -0.82687  -0.82590  -0.81614  -0.81527  -0.80631
 Alpha  occ. eigenvalues --   -0.80375  -0.78837  -0.78568  -0.77255  -0.77078
 Alpha  occ. eigenvalues --   -0.76969  -0.76832  -0.75957  -0.75770  -0.74930
 Alpha  occ. eigenvalues --   -0.74733  -0.72809  -0.72626  -0.71706  -0.71510
 Alpha  occ. eigenvalues --   -0.69940  -0.69691  -0.68912  -0.68763  -0.67677
 Alpha  occ. eigenvalues --   -0.67533  -0.67264  -0.67142  -0.65325  -0.65206
 Alpha  occ. eigenvalues --   -0.64887  -0.64700  -0.64655  -0.64586  -0.64303
 Alpha  occ. eigenvalues --   -0.64135  -0.62324  -0.62210  -0.60482  -0.60275
 Alpha  occ. eigenvalues --   -0.59843  -0.59729  -0.59022  -0.58922  -0.58537
 Alpha  occ. eigenvalues --   -0.58355  -0.57612  -0.57479  -0.57342  -0.57167
 Alpha  occ. eigenvalues --   -0.56345  -0.56134  -0.56006  -0.55821  -0.55558
 Alpha  occ. eigenvalues --   -0.55388  -0.55369  -0.55177  -0.54551  -0.54420
 Alpha  occ. eigenvalues --   -0.53935  -0.53849  -0.53336  -0.53261  -0.53160
 Alpha  occ. eigenvalues --   -0.53077  -0.52947  -0.52836  -0.52800  -0.52611
 Alpha  occ. eigenvalues --   -0.52470  -0.52337  -0.51942  -0.51798  -0.51658
 Alpha  occ. eigenvalues --   -0.51598  -0.51228  -0.51130  -0.50621  -0.50421
 Alpha  occ. eigenvalues --   -0.50067  -0.49960  -0.49916  -0.49801  -0.49554
 Alpha  occ. eigenvalues --   -0.49425  -0.49249  -0.49134  -0.49132  -0.49033
 Alpha  occ. eigenvalues --   -0.48624  -0.48498  -0.48489  -0.48479  -0.48305
 Alpha  occ. eigenvalues --   -0.48277  -0.47732  -0.47530  -0.47333  -0.47054
 Alpha  occ. eigenvalues --   -0.46832  -0.46641  -0.46595  -0.46491  -0.46394
 Alpha  occ. eigenvalues --   -0.46202  -0.46193  -0.46012  -0.45849  -0.45748
 Alpha  occ. eigenvalues --   -0.45234  -0.45139  -0.44608  -0.44548  -0.44444
 Alpha  occ. eigenvalues --   -0.44411  -0.44180  -0.44127  -0.44059  -0.44054
 Alpha  occ. eigenvalues --   -0.44013  -0.43875  -0.43523  -0.43486  -0.43423
 Alpha  occ. eigenvalues --   -0.43317  -0.43060  -0.42863  -0.42828  -0.42726
 Alpha  occ. eigenvalues --   -0.42683  -0.42487  -0.42044  -0.41899  -0.41737
 Alpha  occ. eigenvalues --   -0.41596  -0.41574  -0.41396  -0.41176  -0.40919
 Alpha  occ. eigenvalues --   -0.40909  -0.40867  -0.40664  -0.40637  -0.40605
 Alpha  occ. eigenvalues --   -0.40425  -0.40281  -0.40172  -0.39474  -0.39360
 Alpha  occ. eigenvalues --   -0.38504  -0.38283  -0.37791  -0.37596  -0.37355
 Alpha  occ. eigenvalues --   -0.37303  -0.37197  -0.37133  -0.36738  -0.36704
 Alpha  occ. eigenvalues --   -0.36223  -0.36148  -0.34322  -0.34181  -0.33794
 Alpha  occ. eigenvalues --   -0.33793  -0.33221  -0.33104  -0.31387  -0.31214
 Alpha  occ. eigenvalues --   -0.31071  -0.30902  -0.30054  -0.29874  -0.29488
 Alpha  occ. eigenvalues --   -0.29356  -0.29258  -0.29135  -0.24117  -0.23963
 Alpha  occ. eigenvalues --   -0.21164  -0.21045
 Alpha virt. eigenvalues --   -0.08811  -0.08720  -0.01787  -0.01613  -0.00098
 Alpha virt. eigenvalues --    0.00037   0.02169   0.02285   0.03077   0.03291
 Alpha virt. eigenvalues --    0.04679   0.04797   0.05075   0.05235   0.06135

 Mulliken charges:
               1
     1  Mg   0.838640
     2  C   -0.002976
     3  C   -0.094301
     4  C   -0.045872
     5  C   -0.063915
     6  N   -0.256791
     7  C   -0.052471
     8  C   -0.013980
     9  C   -0.086967
    10  C    0.046255
    11  C    0.104810
    12  C    0.053542
    13  C   -0.071735
    14  H    0.036014
    15  N   -0.433133
    16  C    0.168322
    17  C   -0.177306
    18  C   -0.004091
    19  C    0.148660
    20  C    0.110217
    21  C    0.012220
    22  O   -0.249542
    23  C    0.062539
    24  N   -0.341117
    25  C    0.041226
    26  C   -0.028208
    27  C   -0.023975
    28  C    0.074832
    29  C    0.076153
    30  C    0.035117
    31  C   -0.004502
    32  N   -0.310519
    33  C    0.080453
    34  C   -0.169601
    35  C    0.008473
    36  C    0.083021
    37  C    0.127281
    38  C    0.046241
    39  O   -0.188081
    40  C   -0.005396
    41  C    0.212959
    42  O   -0.257092
    43  O   -0.304812
    44  C    0.157584
    45  H   -0.017670
    46  H   -0.016804
    47  H   -0.041371
    48  H    0.001063
    49  H   -0.004211
    50  H    0.025564
    51  H    0.016484
    52  H    0.016638
    53  H    0.010883
    54  H    0.044157
    55  H    0.018048
    56  H    0.017707
    57  H    0.005791
    58  H    0.026856
    59  H    0.039125
    60  H    0.037373
    61  H    0.035640
    62  H    0.031131
    63  H    0.016566
    64  H    0.009552
    65  H    0.023266
    66  H    0.012549
    67  H    0.004819
    68  H    0.006443
    69  H    0.004798
    70  H    0.008801
    71  H    0.018115
    72  H    0.028911
    73  H    0.047795
    74  H    0.009153
    75  H    0.046115
    76  H    0.035227
    77  H    0.043197
    78  H    0.046221
    79  H    0.053895
    80  Mg   0.837963
    81  C   -0.016795
    82  C   -0.087844
    83  C   -0.045510
    84  C   -0.064671
    85  N   -0.254550
    86  C   -0.049641
    87  C   -0.015121
    88  C   -0.090552
    89  C    0.045810
    90  C    0.114382
    91  C    0.062575
    92  C   -0.077758
    93  H    0.034687
    94  N   -0.423483
    95  C    0.162896
    96  C   -0.174773
    97  C   -0.007886
    98  C    0.152088
    99  C    0.099464
   100  C    0.015487
   101  O   -0.253256
   102  C    0.061243
   103  N   -0.350032
   104  C    0.037557
   105  C   -0.019849
   106  C   -0.034874
   107  C    0.089000
   108  C    0.073640
   109  C    0.034747
   110  C   -0.007646
   111  N   -0.324185
   112  C    0.078558
   113  C   -0.162889
   114  C    0.002483
   115  C    0.096240
   116  C    0.131415
   117  C    0.042641
   118  O   -0.187586
   119  C    0.000820
   120  C    0.211207
   121  O   -0.251180
   122  O   -0.305497
   123  C    0.152079
   124  H   -0.019979
   125  H   -0.015651
   126  H   -0.040328
   127  H   -0.000501
   128  H   -0.004691
   129  H    0.023087
   130  H    0.014612
   131  H    0.015787
   132  H    0.013802
   133  H    0.037674
   134  H    0.020767
   135  H    0.019361
   136  H    0.008506
   137  H    0.025907
   138  H    0.039549
   139  H    0.038127
   140  H    0.036246
   141  H    0.033773
   142  H    0.014246
   143  H    0.012644
   144  H    0.024955
   145  H    0.011833
   146  H    0.005796
   147  H    0.006161
   148  H    0.003702
   149  H    0.010839
   150  H    0.017830
   151  H    0.030109
   152  H    0.045943
   153  H    0.008424
   154  H    0.047756
   155  H    0.035578
   156  H    0.043946
   157  H    0.049304
   158  H    0.053480
 Sum of Mulliken charges =  -0.00000

 Dipole moment (field-independent basis, Debye):
    X=             -4.0053    Y=             -2.3249    Z=             -7.6347  Tot=              8.9295
 Quadrupole moment (field-independent basis, Debye-Ang):
   XX=           -517.5724   YY=           -550.7898   ZZ=           -448.2210
   XY=            -10.3081   XZ=              1.7176   YZ=            -47.6770

 Normal termination of Gaussian 16 at Sun Sep 12 05:49:57 2021.
