 Gaussian 16, Revision A.03,
 Gaussian 16:  ES64L-G16RevA.03 25-Dec-2016

 -----------------------------------
 #p cam-b3lyp/Def2SVP td=(nstates=5)
 -----------------------------------

 --------------------------------
 TDDFT excited states in gaussian
 --------------------------------
 Symbolic Z-matrix:
 Charge =  0 Multiplicity = 1

                         Standard orientation:
 ---------------------------------------------------------------------
 Center     Atomic      Atomic             Coordinates (Angstroms)
 Number     Number       Type             X           Y           Z
 ---------------------------------------------------------------------
      1         12           0        4.243164    0.170728    0.593812
      2          6           0        4.338929   -2.954757   -1.148138
      3          6           0        5.503346    1.613325   -2.230001
      4          6           0        4.594716    2.851498    2.251068
      5          6           0        4.082787   -1.654744    3.558199
      6          7           0        4.806580   -0.668949   -1.375491
      7          6           0        4.738403   -1.872623   -1.935572
      8          6           0        5.059209   -1.863711   -3.460163
      9          6           0        5.936864   -0.534230   -3.524958
     10          6           0        5.358151    0.197493   -2.326793
     11          6           0        7.423770   -0.773373   -3.283246
     12          6           0        3.768756   -1.741666   -4.338552
     13          6           0        3.959153   -2.051953   -5.826109
     14          1           0        2.883753   -2.717347   -6.545910
     15          7           0        4.477165    2.034293   -0.018738
     16          6           0        4.991086    2.438249   -1.205326
     17          6           0        4.954035    3.916367   -1.183499
     18          6           0        4.553389    4.341304    0.186539
     19          6           0        4.551146    3.077080    0.877270
     20          6           0        5.230290    4.764229   -2.387062
     21          6           0        4.234900    5.676386    0.781730
     22          8           0        4.136206    5.852170    2.044241
     23          6           0        4.127378    6.806236   -0.158972
     24          7           0        4.549066    0.556332    2.622449
     25          6           0        4.608396    1.809817    3.085310
     26          6           0        4.547638    1.842015    4.583713
     27          6           0        4.188051    0.355760    5.043597
     28          6           0        4.185211   -0.327167    3.653679
     29          6           0        5.827667    2.300922    5.295711
     30          6           0        2.945893    0.182248    5.953188
     31          6           0        1.691634    0.520905    5.179080
     32          7           0        4.036147   -1.920634    1.136393
     33          6           0        4.014950   -2.457505    2.431768
     34          6           0        3.967604   -3.924448    2.290688
     35          6           0        3.981371   -4.141000    0.914185
     36          6           0        4.060474   -2.889730    0.238644
     37          6           0        3.977716   -4.865078    3.358185
     38          6           0        3.972513   -5.139441   -0.142647
     39          8           0        3.822148   -6.361531   -0.179790
     40          6           0        4.326500   -4.417375   -1.517107
     41          6           0        3.325210   -4.875471   -2.542229
     42          8           0        2.121621   -4.559918   -2.446484
     43          8           0        3.973303   -5.406097   -3.590539
     44          6           0        3.038775   -5.853935   -4.657428
     45          1           0        6.113230    2.133277   -2.971373
     46          1           0        4.604361    3.756965    2.861377
     47          1           0        3.945697   -2.286201    4.437928
     48          1           0        5.646350   -2.714625   -3.806046
     49          1           0        5.753223    0.030492   -4.438789
     50          1           0        7.617457   -1.801577   -2.977954
     51          1           0        7.704593   -0.081167   -2.489217
     52          1           0        8.009707   -0.482437   -4.155492
     53          1           0        3.476034   -0.693742   -4.403601
     54          1           0        2.969645   -2.367174   -3.939195
     55          1           0        4.909590   -2.553658   -6.010144
     56          1           0        4.042733   -1.107565   -6.364019
     57          1           0        5.657901    4.178591   -3.199910
     58          1           0        6.020237    5.462169   -2.110343
     59          1           0        4.348253    5.316914   -2.710916
     60          1           0        5.068685    6.916778   -0.697741
     61          1           0        3.807054    7.661995    0.434256
     62          1           0        3.371031    6.571014   -0.908344
     63          1           0        3.769067    2.520998    4.929017
     64          1           0        4.998335   -0.104634    5.609418
     65          1           0        5.679380    3.156838    5.954591
     66          1           0        6.577006    2.518149    4.535057
     67          1           0        6.328377    1.528454    5.878806
     68          1           0        2.996106    0.867859    6.798387
     69          1           0        2.841295   -0.827302    6.350830
     70          1           0        1.638324    1.605664    5.264449
     71          1           0        0.822111    0.049907    5.638755
     72          1           0        1.800295    0.282275    4.120905
     73          1           0        3.232408   -5.619632    3.106925
     74          1           0        3.750910   -4.385917    4.310323
     75          1           0        5.006562   -5.220643    3.304273
     76          1           0        5.342215   -4.715384   -1.775247
     77          1           0        3.248686   -6.906686   -4.846863
     78          1           0        3.158595   -5.156865   -5.486971
     79          1           0        1.983597   -5.900130   -4.385760
     80         12           0       -3.640710    0.847028   -0.113534
     81          6           0       -6.452697   -1.361707    0.191884
     82          6           0       -5.702380    3.000907   -1.770315
     83          6           0       -1.090680    2.608619   -0.792945
     84          6           0       -1.591308   -1.898840    0.523510
     85          7           0       -5.781277    0.723540   -0.656649
     86          6           0       -6.763649   -0.136515   -0.433926
     87          6           0       -8.172013    0.377418   -0.836356
     88          6           0       -7.727436    1.464399   -1.931659
     89          6           0       -6.328562    1.781837   -1.407193
     90          6           0       -7.593370    0.888192   -3.331427
     91          6           0       -8.929128    1.047538    0.363536
     92          6           0      -10.420773    1.293255    0.126064
     93          1           0      -11.337774    1.150930    1.253589
     94          7           0       -3.504680    2.741928   -0.687492
     95          6           0       -4.445110    3.467698   -1.327907
     96          6           0       -3.850731    4.796049   -1.543161
     97          6           0       -2.423507    4.744725   -1.124694
     98          6           0       -2.275505    3.326532   -0.865984
     99          6           0       -4.646219    5.975532   -2.022155
    100          6           0       -1.363343    5.795877   -0.993034
    101          8           0       -0.127732    5.490728   -0.841412
    102          6           0       -1.801911    7.191382   -1.140328
    103          7           0       -1.627102    0.383267   -0.343057
    104          6           0       -0.719337    1.345230   -0.584937
    105          6           0        0.687659    0.817072   -0.437272
    106          6           0        0.533922   -0.644616    0.193137
    107          6           0       -1.006850   -0.748220    0.219127
    108          6           0        1.504878    0.731758   -1.726169
    109          6           0        1.316249   -0.931553    1.503987
    110          6           0        0.746778   -0.107005    2.635895
    111          7           0       -3.936202   -1.212524    0.468681
    112          6           0       -2.941459   -2.197215    0.655611
    113          6           0       -3.636423   -3.470836    0.933734
    114          6           0       -4.998432   -3.140926    0.866028
    115          6           0       -5.142282   -1.763629    0.546906
    116          6           0       -3.009546   -4.729366    1.155599
    117          6           0       -6.347243   -3.646974    0.981485
    118          8           0       -6.846794   -4.719149    1.320042
    119          6           0       -7.349480   -2.545684    0.425529
    120          6           0       -8.468295   -2.391925    1.419068
    121          8           0       -8.245864   -1.941517    2.556726
    122          8           0       -9.642846   -2.595100    0.794945
    123          6           0      -10.783654   -2.442527    1.736807
    124          1           0       -6.200807    3.644138   -2.496059
    125          1           0       -0.176246    3.194694   -0.910452
    126          1           0       -1.022541   -2.779557    0.829348
    127          1           0       -8.814511   -0.367139   -1.290891
    128          1           0       -8.359506    2.347666   -1.890759
    129          1           0       -7.704878   -0.185904   -3.337346
    130          1           0       -6.604717    1.167800   -3.671188
    131          1           0       -8.295726    1.380090   -4.010432
    132          1           0       -8.582941    2.083497    0.471641
    133          1           0       -8.795277    0.479425    1.263508
    134          1           0      -10.795431    0.743297   -0.745785
    135          1           0      -10.561484    2.343929   -0.139064
    136          1           0       -5.627764    5.669988   -2.405076
    137          1           0       -4.126004    6.377553   -2.898291
    138          1           0       -4.729009    6.761753   -1.268712
    139          1           0       -2.263766    7.323730   -2.115851
    140          1           0       -0.920624    7.798887   -0.925512
    141          1           0       -2.578314    7.394695   -0.394360
    142          1           0        1.263018    1.434022    0.242022
    143          1           0        0.889781   -1.424898   -0.495604
    144          1           0        2.454089    1.298230   -1.679449
    145          1           0        0.890827    1.085451   -2.543708
    146          1           0        1.757544   -0.277463   -2.046844
    147          1           0        2.360918   -0.629891    1.395292
    148          1           0        1.311314   -1.978145    1.789643
    149          1           0        1.241250    0.860748    2.509285
    150          1           0        0.993557   -0.553589    3.596985
    151          1           0       -0.329574    0.052956    2.503489
    152          1           0       -3.522220   -5.189833    1.989640
    153          1           0       -1.946376   -4.614145    1.356025
    154          1           0       -3.195734   -5.212453    0.192667
    155          1           0       -7.708441   -2.889633   -0.545254
    156          1           0      -11.364498   -3.368761    1.687794
    157          1           0      -11.296678   -1.509737    1.436049
    158          1           0      -10.556373   -2.391179    2.795187
 ---------------------------------------------------------------------

 SCF Done:  E(RCAM-B3LYP) =  -4069.76370366     A.U. after   19 cycles

 Excitation energies and oscillator strengths:

 Excited State   1:      Singlet-A      1.6234 eV  763.73 nm  f=0.0008  <S**2>=0.000
     309 -> 315        0.11293
     310 -> 316       -0.10980
     311 -> 313        0.49062
     312 -> 314       -0.48074
 This state for optimization and/or second-order correction.
 Total Energy, E(TD-HF/TD-DFT) =  -4069.70404443
 Copying the excited state density for this state as the 1-particle RhoCI density.

 Excited State   2:      Singlet-A      1.7108 eV  724.72 nm  f=0.6583  <S**2>=0.000
     309 -> 315        0.12702
     310 -> 316        0.12684
     311 -> 313        0.47669
     312 -> 314        0.48761

 Excited State   3:      Singlet-A      2.1746 eV  570.15 nm  f=0.0813  <S**2>=0.000
     309 -> 313        0.62446
     311 -> 315       -0.25990
     312 -> 313        0.16555

 Excited State   4:      Singlet-A      2.1797 eV  568.81 nm  f=0.1190  <S**2>=0.000
     310 -> 314        0.64245
     312 -> 316       -0.26202

 Excited State   5:      Singlet-A      2.2170 eV  559.25 nm  f=0.0049  <S**2>=0.000
     309 -> 313       -0.15324
     312 -> 313        0.68228

 The electronic state is 1-A.
 Alpha  occ. eigenvalues --  -46.88017 -46.87441 -19.26485 -19.26197 -19.19307
 Alpha  occ. eigenvalues --  -19.19000 -19.18731 -19.18532 -19.18248 -19.17846
 Alpha  occ. eigenvalues --  -14.42536 -14.42275 -14.41530 -14.41136 -14.39478
 Alpha  occ. eigenvalues --  -14.39146 -14.38402 -14.38362 -10.39321 -10.38924
 Alpha  occ. eigenvalues --  -10.35381 -10.35152 -10.34483 -10.34021 -10.31829
 Alpha  occ. eigenvalues --  -10.31623 -10.31591 -10.31066 -10.30962 -10.30857
 Alpha  occ. eigenvalues --  -10.30765 -10.30639 -10.30253 -10.30156 -10.30101
 Alpha  occ. eigenvalues --  -10.30058 -10.29909 -10.29713 -10.29686 -10.29232
 Alpha  occ. eigenvalues --  -10.29217 -10.29170 -10.28872 -10.28669 -10.28557
 Alpha  occ. eigenvalues --  -10.28533 -10.28360 -10.28236 -10.28215 -10.27964
 Alpha  occ. eigenvalues --  -10.27866 -10.27836 -10.27778 -10.27609 -10.27533
 Alpha  occ. eigenvalues --  -10.27445 -10.27367 -10.27346 -10.27338 -10.27326
 Alpha  occ. eigenvalues --  -10.27321 -10.27293 -10.27269 -10.27267 -10.27076
 Alpha  occ. eigenvalues --  -10.26883 -10.26856 -10.26551 -10.26426 -10.26326
 Alpha  occ. eigenvalues --  -10.26177 -10.25936 -10.25864 -10.25783 -10.25782
 Alpha  occ. eigenvalues --  -10.25687 -10.25594 -10.25362 -10.25357 -10.25027
 Alpha  occ. eigenvalues --  -10.24894 -10.24850 -10.24643 -10.24489 -10.23748
 Alpha  occ. eigenvalues --  -10.23006  -3.16745  -3.16190  -1.91642  -1.91206
 Alpha  occ. eigenvalues --   -1.91072  -1.91057  -1.90661  -1.90498  -1.16840
 Alpha  occ. eigenvalues --   -1.16488  -1.08727  -1.08453  -1.06964  -1.06911
 Alpha  occ. eigenvalues --   -1.06894  -1.06783  -1.04690  -1.04284  -1.03860
 Alpha  occ. eigenvalues --   -1.03444  -1.03342  -1.02810  -1.02495  -1.01890
 Alpha  occ. eigenvalues --   -0.92107  -0.91768  -0.89548  -0.89368  -0.89247
 Alpha  occ. eigenvalues --   -0.88977  -0.88272  -0.88138  -0.87913  -0.87788
 Alpha  occ. eigenvalues --   -0.87512  -0.87441  -0.87163  -0.86975  -0.85094
 Alpha  occ. eigenvalues --   -0.84829  -0.84169  -0.83697  -0.82949  -0.82726
 Alpha  occ. eigenvalues --   -0.82526  -0.82480  -0.81690  -0.81406  -0.80631
 Alpha  occ. eigenvalues --   -0.80264  -0.78782  -0.78442  -0.77450  -0.77145
 Alpha  occ. eigenvalues --   -0.76880  -0.76701  -0.76033  -0.75672  -0.75049
 Alpha  occ. eigenvalues --   -0.74557  -0.72848  -0.72511  -0.71760  -0.71386
 Alpha  occ. eigenvalues --   -0.70869  -0.69238  -0.68792  -0.68609  -0.67711
 Alpha  occ. eigenvalues --   -0.67411  -0.67237  -0.67061  -0.65477  -0.65178
 Alpha  occ. eigenvalues --   -0.65008  -0.64787  -0.64556  -0.64476  -0.64318
 Alpha  occ. eigenvalues --   -0.63828  -0.62443  -0.62095  -0.60407  -0.60204
 Alpha  occ. eigenvalues --   -0.59928  -0.59604  -0.59065  -0.58812  -0.58569
 Alpha  occ. eigenvalues --   -0.58249  -0.57743  -0.57351  -0.57335  -0.57119
 Alpha  occ. eigenvalues --   -0.56598  -0.56161  -0.55997  -0.55892  -0.55721
 Alpha  occ. eigenvalues --   -0.55448  -0.55305  -0.55278  -0.54752  -0.54418
 Alpha  occ. eigenvalues --   -0.54040  -0.53741  -0.53424  -0.53302  -0.53173
 Alpha  occ. eigenvalues --   -0.53029  -0.52970  -0.52782  -0.52668  -0.52592
 Alpha  occ. eigenvalues --   -0.52541  -0.52264  -0.52013  -0.51630  -0.51555
 Alpha  occ. eigenvalues --   -0.51506  -0.51413  -0.50988  -0.50431  -0.50297
 Alpha  occ. eigenvalues --   -0.50161  -0.49993  -0.49798  -0.49525  -0.49432
 Alpha  occ. eigenvalues --   -0.49344  -0.49211  -0.49150  -0.49015  -0.48911
 Alpha  occ. eigenvalues --   -0.48681  -0.48435  -0.48360  -0.48330  -0.48243
 Alpha  occ. eigenvalues --   -0.48050  -0.47628  -0.47440  -0.47276  -0.47167
 Alpha  occ. eigenvalues --   -0.46955  -0.46837  -0.46616  -0.46558  -0.46435
 Alpha  occ. eigenvalues --   -0.46334  -0.46009  -0.45898  -0.45810  -0.45576
 Alpha  occ. eigenvalues --   -0.45302  -0.45034  -0.44828  -0.44456  -0.44366
 Alpha  occ. eigenvalues --   -0.44311  -0.44133  -0.44032  -0.43970  -0.43875
 Alpha  occ. eigenvalues --   -0.43770  -0.43736  -0.43542  -0.43490  -0.43282
 Alpha  occ. eigenvalues --   -0.43172  -0.43116  -0.42956  -0.42790  -0.42713
 Alpha  occ. eigenvalues --   -0.42535  -0.42374  -0.41959  -0.41883  -0.41725
 Alpha  occ. eigenvalues --   -0.41502  -0.41372  -0.41247  -0.41131  -0.40893
 Alpha  occ. eigenvalues --   -0.40739  -0.40660  -0.40597  -0.40527  -0.40391
 Alpha  occ. eigenvalues --   -0.40195  -0.40090  -0.40029  -0.39312  -0.38433
 Alpha  occ. eigenvalues --   -0.38197  -0.37853  -0.37606  -0.37385  -0.37343
 Alpha  occ. eigenvalues --   -0.37087  -0.37009  -0.36869  -0.36714  -0.36346
 Alpha  occ. eigenvalues --   -0.36216  -0.34807  -0.34186  -0.34008  -0.33914
 Alpha  occ. eigenvalues --   -0.33681  -0.33257  -0.32926  -0.31266  -0.31203
 Alpha  occ. eigenvalues --   -0.31005  -0.30740  -0.30096  -0.29746  -0.29396
 Alpha  occ. eigenvalues --   -0.29226  -0.29142  -0.28969  -0.24154  -0.23795
 Alpha  occ. eigenvalues --   -0.21253  -0.20888
 Alpha virt. eigenvalues --   -0.08855  -0.08575  -0.01857  -0.01469   0.00016
 Alpha virt. eigenvalues --    0.00106   0.02102   0.02440   0.03399   0.04495
 Alpha virt. eigenvalues --    0.04828   0.04925   0.05283   0.05390   0.05970

 Mulliken charges:
               1
     1  Mg   0.675835
     2  C    0.002488
     3  C   -0.086835
     4  C   -0.048399
     5  C   -0.056352
     6  N   -0.245226
     7  C   -0.060313
     8  C   -0.014598
     9  C   -0.085766
    10  C    0.045317
    11  C    0.104808
    12  C    0.043508
    13  C   -0.069147
    14  H    0.036512
    15  N   -0.430051
    16  C    0.162327
    17  C   -0.175987
    18  C    0.001281
    19  C    0.156166
    20  C    0.110845
    21  C    0.023815
    22  O   -0.249383
    23  C    0.057497
    24  N   -0.319142
    25  C    0.039980
    26  C   -0.024727
    27  C   -0.021237
    28  C    0.060273
    29  C    0.077627
    30  C    0.050279
    31  C    0.024238
    32  N   -0.310962
    33  C    0.061859
    34  C   -0.168698
    35  C    0.010701
    36  C    0.075056
    37  C    0.128445
    38  C    0.040817
    39  O   -0.188172
    40  C   -0.008596
    41  C    0.213713
    42  O   -0.260753
    43  O   -0.303938
    44  C    0.157171
    45  H   -0.018066
    46  H   -0.016237
    47  H   -0.042779
    48  H   -0.000542
    49  H   -0.003896
    50  H    0.026029
    51  H    0.018074
    52  H    0.017002
    53  H    0.015953
    54  H    0.047359
    55  H    0.018227
    56  H    0.018453
    57  H    0.004506
    58  H    0.026672
    59  H    0.046600
    60  H    0.032405
    61  H    0.034446
    62  H    0.046106
    63  H    0.018119
    64  H    0.008409
    65  H    0.023596
    66  H    0.012424
    67  H    0.004959
    68  H    0.000842
    69  H   -0.002527
    70  H   -0.001939
    71  H    0.014783
    72  H   -0.021427
    73  H    0.045281
    74  H    0.008887
    75  H    0.046524
    76  H    0.036136
    77  H    0.043886
    78  H    0.046888
    79  H    0.053704
    80  Mg   0.838644
    81  C   -0.017598
    82  C   -0.088365
    83  C   -0.044578
    84  C   -0.066341
    85  N   -0.254659
    86  C   -0.049299
    87  C   -0.015159
    88  C   -0.090389
    89  C    0.045466
    90  C    0.114618
    91  C    0.062586
    92  C   -0.077596
    93  H    0.034428
    94  N   -0.423050
    95  C    0.162300
    96  C   -0.175672
    97  C   -0.009599
    98  C    0.151671
    99  C    0.099731
   100  C    0.016768
   101  O   -0.257631
   102  C    0.061257
   103  N   -0.350627
   104  C    0.039314
   105  C   -0.056866
   106  C   -0.034909
   107  C    0.097199
   108  C    0.063722
   109  C    0.034813
   110  C    0.031229
   111  N   -0.324417
   112  C    0.076499
   113  C   -0.161174
   114  C    0.001814
   115  C    0.096997
   116  C    0.132472
   117  C    0.042881
   118  O   -0.187560
   119  C    0.000877
   120  C    0.211183
   121  O   -0.251309
   122  O   -0.305609
   123  C    0.152155
   124  H   -0.020830
   125  H   -0.016537
   126  H   -0.030254
   127  H   -0.000853
   128  H   -0.004927
   129  H    0.022414
   130  H    0.014257
   131  H    0.015433
   132  H    0.013910
   133  H    0.037600
   134  H    0.020632
   135  H    0.019313
   136  H    0.008440
   137  H    0.024292
   138  H    0.039042
   139  H    0.037571
   140  H    0.033945
   141  H    0.035476
   142  H    0.037177
   143  H    0.035698
   144  H    0.062861
   145  H    0.004057
   146  H    0.022942
   147  H    0.048576
   148  H    0.019426
   149  H    0.017424
   150  H    0.027435
   151  H    0.018874
   152  H    0.044373
   153  H    0.013631
   154  H    0.049993
   155  H    0.034927
   156  H    0.043719
   157  H    0.049231
   158  H    0.053378
 Sum of Mulliken charges =  -0.00000

 Dipole moment (field-independent basis, Debye):
    X=              1.2748    Y=              6.1832    Z=             -5.7264  Tot=              8.5234
 Quadrupole moment (field-independent basis, Debye-Ang):
   XX=           -465.9167   YY=           -542.3715   ZZ=           -478.4268
   XY=            -31.4714   XZ=              6.7647   YZ=            -12.1816

 Normal termination of Gaussian 16 at Thu Sep  9 12:00:35 2021.
