 Gaussian 16, Revision A.03,
 Gaussian 16:  ES64L-G16RevA.03 25-Dec-2016

 -----------------------------------
 #p cam-b3lyp/Def2SVP td=(nstates=5)
 -----------------------------------

 --------------------------------
 TDDFT excited states in gaussian
 --------------------------------
 Symbolic Z-matrix:
 Charge =  0 Multiplicity = 1

                         Standard orientation:
 ---------------------------------------------------------------------
 Center     Atomic      Atomic             Coordinates (Angstroms)
 Number     Number       Type             X           Y           Z
 ---------------------------------------------------------------------
      1         12           0        3.630927    1.125794    0.364855
      2          6           0        4.041226   -1.806245    2.376575
      3          6           0        4.973448   -0.644323   -2.225008
      4          6           0        3.700409    3.823694   -1.300417
      5          6           0        3.399462    2.946572    3.327430
      6          7           0        4.373006   -0.954676    0.217858
      7          6           0        4.419287   -1.994121    1.045254
      8          6           0        4.836077   -3.322445    0.345814
      9          6           0        5.627844   -2.714624   -0.897430
     10          6           0        4.927066   -1.371259   -0.998450
     11          6           0        7.108548   -2.476515   -0.619362
     12          6           0        3.599498   -4.163460   -0.118188
     13          6           0        3.904785   -5.611614   -0.511893
     14          1           0        2.923338   -6.641858   -0.207417
     15          7           0        3.782205    1.426244   -1.581859
     16          6           0        4.343931    0.591370   -2.488907
     17          6           0        4.209595    1.263302   -3.799304
     18          6           0        3.695036    2.639301   -3.554457
     19          6           0        3.730586    2.694489   -2.115336
     20          6           0        4.506897    0.589644   -5.103737
     21          6           0        3.252914    3.734922   -4.472212
     22          8           0        3.062136    4.930589   -4.061654
     23          6           0        3.132841    3.387650   -5.899807
     24          7           0        3.780224    3.132944    0.918656
     25          6           0        3.728139    4.106993    0.003507
     26          6           0        3.569321    5.452677    0.646819
     27          6           0        3.278271    5.172550    2.191673
     28          6           0        3.409071    3.629490    2.180435
     29          6           0        4.768459    6.402061    0.517396
     30          6           0        1.994169    5.799581    2.790282
     31          6           0        0.772862    5.150805    2.178239
     32          7           0        3.525815    0.664216    2.483095
     33          6           0        3.456403    1.579780    3.543095
     34          6           0        3.513626    0.799126    4.792644
     35          6           0        3.629800   -0.523656    4.370038
     36          6           0        3.670655   -0.564394    2.947026
     37          6           0        3.516259    1.335018    6.110691
     38          6           0        3.753717   -1.910062    4.790012
     39          8           0        3.685768   -2.498294    5.870224
     40          6           0        4.147573   -2.785250    3.519283
     41          6           0        3.246064   -3.989495    3.499693
     42          8           0        2.020857   -3.868183    3.295933
     43          8           0        3.993243   -5.103980    3.485949
     44          6           0        3.160232   -6.335161    3.436537
     45          1           0        5.594607   -1.022289   -3.039405
     46          1           0        3.611991    4.770603   -1.837057
     47          1           0        3.247480    3.439380    4.289457
     48          1           0        5.498261   -3.957673    0.934391
     49          1           0        5.466962   -3.295188   -1.805607
     50          1           0        7.348625   -2.643523    0.430586
     51          1           0        7.292232   -1.436867   -0.891181
     52          1           0        7.729145   -3.074886   -1.286887
     53          1           0        3.244091   -3.781958   -1.075373
     54          1           0        2.818723   -4.153773    0.643141
     55          1           0        4.895664   -5.916149   -0.173771
     56          1           0        3.961200   -5.665318   -1.599153
     57          1           0        5.022969   -0.358264   -4.956476
     58          1           0        5.230424    1.214389   -5.627103
     59          1           0        3.613435    0.469643   -5.716647
     60          1           0        4.097627    3.037466   -6.267376
     61          1           0        2.720160    4.268742   -6.389930
     62          1           0        2.443062    2.549431   -6.002483
     63          1           0        2.727715    5.994571    0.217311
     64          1           0        4.078744    5.543133    2.832442
     65          1           0        4.522869    7.356664    0.051430
     66          1           0        5.549398    5.884669   -0.039139
     67          1           0        5.279820    6.622854    1.453973
     68          1           0        1.945350    6.862010    2.554046
     69          1           0        1.930066    5.697437    3.873660
     70          1           0        0.643813    5.703529    1.248360
     71          1           0       -0.091942    5.276748    2.830514
     72          1           0        0.964526    4.110401    1.914972
     73          1           0        2.839228    0.711729    6.694736
     74          1           0        3.198126    2.377311    6.115000
     75          1           0        4.567367    1.218165    6.374081
     76          1           0        5.194980   -3.059889    3.640252
     77          1           0        3.449830   -6.952977    4.286636
     78          1           0        3.287530   -6.755589    2.438819
     79          1           0        2.095021   -6.204548    3.630459
     80         12           0       -4.209586    0.098170   -0.314062
     81          6           0       -1.822798   -1.904979   -2.094420
     82          6           0       -6.295081   -2.600304   -0.373720
     83          6           0       -6.496156    1.964650    0.850087
     84          6           0       -2.443595    2.905611   -1.384214
     85          7           0       -3.975602   -1.934394   -1.154407
     86          6           0       -3.001310   -2.601423   -1.754555
     87          6           0       -3.275499   -4.118884   -1.932606
     88          6           0       -4.880329   -4.079986   -1.889217
     89          6           0       -5.071729   -2.813039   -1.058020
     90          6           0       -5.513986   -3.857191   -3.252370
     91          6           0       -2.689611   -4.974359   -0.754924
     92          6           0       -2.648431   -6.482017   -1.013769
     93          1           0       -1.532415   -7.251288   -0.470440
     94          7           0       -5.909127   -0.369448    0.597770
     95          6           0       -6.608357   -1.517381    0.476851
     96          6           0       -7.792621   -1.359415    1.335176
     97          6           0       -7.819984    0.038793    1.844067
     98          6           0       -6.730377    0.617403    1.083771
     99          6           0       -8.716700   -2.495817    1.663951
    100          6           0       -8.691821    0.742379    2.839595
    101          8           0       -8.689962    2.019113    2.952594
    102          6           0       -9.615577   -0.100190    3.613060
    103          7           0       -4.563926    2.142590   -0.444950
    104          6           0       -5.600972    2.707065    0.198341
    105          6           0       -5.496073    4.213458    0.185779
    106          6           0       -4.040969    4.537990   -0.392974
    107          6           0       -3.569654    3.102267   -0.712297
    108          6           0       -6.549036    4.946730   -0.644861
    109          6           0       -3.123317    5.441125    0.475888
    110          6           0       -2.734849    4.714604    1.743427
    111          7           0       -2.354818    0.463462   -1.360217
    112          6           0       -1.815463    1.715498   -1.728416
    113          6           0       -0.598391    1.448820   -2.522174
    114          6           0       -0.526248    0.048866   -2.580633
    115          6           0       -1.632131   -0.516902   -1.890390
    116          6           0        0.239611    2.434029   -3.116517
    117          6           0        0.228173   -1.078882   -3.078347
    118          8           0        1.304846   -1.216182   -3.657708
    119          6           0       -0.646404   -2.393159   -2.893412
    120          6           0        0.228518   -3.450466   -2.277671
    121          8           0        0.672840   -3.310443   -1.124601
    122          8           0        0.217839   -4.543259   -3.062563
    123          6           0        1.062704   -5.624001   -2.488083
    124          1           0       -7.109489   -3.307132   -0.534992
    125          1           0       -7.197058    2.654526    1.325798
    126          1           0       -1.783738    3.727269   -1.670837
    127          1           0       -2.938965   -4.533785   -2.875143
    128          1           0       -5.282359   -4.943668   -1.365970
    129          1           0       -4.774933   -3.643121   -4.010066
    130          1           0       -6.185512   -3.017345   -3.130877
    131          1           0       -6.143920   -4.710588   -3.519268
    132          1           0       -3.389927   -4.947808    0.089816
    133          1           0       -1.711878   -4.627748   -0.481934
    134          1           0       -2.801649   -6.722762   -2.072784
    135          1           0       -3.499569   -6.944329   -0.507953
    136          1           0       -8.537731   -3.360882    1.013551
    137          1           0       -9.730068   -2.168325    1.407642
    138          1           0       -8.690071   -2.767988    2.721260
    139          1           0      -10.274407   -0.633384    2.931804
    140          1           0      -10.088861    0.569964    4.333310
    141          1           0       -9.033052   -0.859638    4.146464
    142          1           0       -5.572861    4.614842    1.188822
    143          1           0       -4.094139    5.072117   -1.353031
    144          1           0       -7.130095    5.684607   -0.060073
    145          1           0       -7.206307    4.211109   -1.089155
    146          1           0       -6.165228    5.471115   -1.518303
    147          1           0       -3.661044    6.340473    0.786008
    148          1           0       -2.224147    5.764569   -0.037797
    149          1           0       -3.591699    4.889888    2.400818
    150          1           0       -1.823245    5.135901    2.162387
    151          1           0       -2.666201    3.634013    1.572407
    152          1           0        1.260441    2.128847   -2.928697
    153          1           0        0.038772    3.423645   -2.711448
    154          1           0       -0.069154    2.347892   -4.161744
    155          1           0       -1.010306   -2.685883   -3.879039
    156          1           0        1.789961   -5.903632   -3.256571
    157          1           0        0.357822   -6.407814   -2.152613
    158          1           0        1.715891   -5.364584   -1.663155
 ---------------------------------------------------------------------

 SCF Done:  E(RCAM-B3LYP) =  -4069.81215951     A.U. after   19 cycles

 Excitation energies and oscillator strengths:

 Excited State   1:      Singlet-A      1.6190 eV  765.80 nm  f=0.2244  <S**2>=0.000
     309 -> 315       -0.11696
     310 -> 316       -0.10606
     311 -> 313        0.48493
     312 -> 313       -0.14621
     312 -> 314       -0.46082
 This state for optimization and/or second-order correction.
 Total Energy, E(TD-HF/TD-DFT) =  -4069.75266155
 Copying the excited state density for this state as the 1-particle RhoCI density.

 Excited State   2:      Singlet-A      1.7078 eV  725.97 nm  f=0.5301  <S**2>=0.000
     309 -> 315       -0.12451
     310 -> 316        0.12992
     311 -> 313        0.47041
     312 -> 314        0.49620

 Excited State   3:      Singlet-A      2.0811 eV  595.77 nm  f=0.0004  <S**2>=0.000
     311 -> 313        0.11308
     312 -> 313        0.68751

 Excited State   4:      Singlet-A      2.1721 eV  570.81 nm  f=0.0042  <S**2>=0.000
     309 -> 313        0.50739
     310 -> 314       -0.39719
     311 -> 315        0.20571
     312 -> 316        0.15895

 Excited State   5:      Singlet-A      2.1960 eV  564.59 nm  f=0.1568  <S**2>=0.000
     309 -> 313        0.39242
     310 -> 314        0.49691
     311 -> 315        0.17004
     312 -> 316       -0.21914

 The electronic state is 1-A.
 Alpha  occ. eigenvalues --  -46.87586 -46.86999 -19.26640 -19.25704 -19.19573
 Alpha  occ. eigenvalues --  -19.18652 -19.18462 -19.18365 -19.18326 -19.17483
 Alpha  occ. eigenvalues --  -14.42416 -14.41613 -14.41298 -14.40735 -14.39287
 Alpha  occ. eigenvalues --  -14.38704 -14.38558 -14.37804 -10.39400 -10.38391
 Alpha  occ. eigenvalues --  -10.35326 -10.34962 -10.34516 -10.33703 -10.31909
 Alpha  occ. eigenvalues --  -10.31283 -10.31269 -10.30983 -10.30590 -10.30348
 Alpha  occ. eigenvalues --  -10.30333 -10.30042 -10.30024 -10.29878 -10.29835
 Alpha  occ. eigenvalues --  -10.29794 -10.29511 -10.29361 -10.29346 -10.29335
 Alpha  occ. eigenvalues --  -10.28996 -10.28681 -10.28613 -10.28458 -10.28396
 Alpha  occ. eigenvalues --  -10.28331 -10.28108 -10.27957 -10.27870 -10.27602
 Alpha  occ. eigenvalues --  -10.27543 -10.27454 -10.27425 -10.27396 -10.27366
 Alpha  occ. eigenvalues --  -10.27310 -10.27269 -10.27260 -10.27084 -10.27071
 Alpha  occ. eigenvalues --  -10.27012 -10.26912 -10.26885 -10.26630 -10.26574
 Alpha  occ. eigenvalues --  -10.26462 -10.26409 -10.26329 -10.26028 -10.25952
 Alpha  occ. eigenvalues --  -10.25927 -10.25884 -10.25822 -10.25574 -10.25446
 Alpha  occ. eigenvalues --  -10.25312 -10.25303 -10.25292 -10.25257 -10.25086
 Alpha  occ. eigenvalues --  -10.24875 -10.24645 -10.24633 -10.24330 -10.24150
 Alpha  occ. eigenvalues --  -10.24074  -3.16333  -3.15735  -1.91214  -1.90804
 Alpha  occ. eigenvalues --   -1.90642  -1.90615  -1.90203  -1.90048  -1.16962
 Alpha  occ. eigenvalues --   -1.16030  -1.09004  -1.07955  -1.07328  -1.06901
 Alpha  occ. eigenvalues --   -1.06763  -1.05960  -1.04441  -1.03768  -1.03603
 Alpha  occ. eigenvalues --   -1.03050  -1.02980  -1.02511  -1.02065  -1.01667
 Alpha  occ. eigenvalues --   -0.92026  -0.91221  -0.89410  -0.89101  -0.89017
 Alpha  occ. eigenvalues --   -0.88384  -0.88112  -0.87774  -0.87656  -0.87591
 Alpha  occ. eigenvalues --   -0.87162  -0.87058  -0.86881  -0.86532  -0.84948
 Alpha  occ. eigenvalues --   -0.84315  -0.83801  -0.83520  -0.82853  -0.82630
 Alpha  occ. eigenvalues --   -0.82366  -0.82032  -0.81645  -0.80977  -0.80439
 Alpha  occ. eigenvalues --   -0.79935  -0.78556  -0.78049  -0.77060  -0.76936
 Alpha  occ. eigenvalues --   -0.76661  -0.76343  -0.75834  -0.75265  -0.74752
 Alpha  occ. eigenvalues --   -0.74366  -0.72605  -0.72088  -0.71552  -0.71007
 Alpha  occ. eigenvalues --   -0.69745  -0.69447  -0.68795  -0.68208  -0.67580
 Alpha  occ. eigenvalues --   -0.67136  -0.66975  -0.66530  -0.65262  -0.64772
 Alpha  occ. eigenvalues --   -0.64643  -0.64549  -0.64205  -0.64117  -0.64009
 Alpha  occ. eigenvalues --   -0.63665  -0.62410  -0.61690  -0.60279  -0.59784
 Alpha  occ. eigenvalues --   -0.59742  -0.59072  -0.58943  -0.58457  -0.58314
 Alpha  occ. eigenvalues --   -0.57828  -0.57730  -0.57203  -0.56901  -0.56706
 Alpha  occ. eigenvalues --   -0.56197  -0.55990  -0.55614  -0.55507  -0.55352
 Alpha  occ. eigenvalues --   -0.55313  -0.54987  -0.54851  -0.54495  -0.54007
 Alpha  occ. eigenvalues --   -0.53873  -0.53228  -0.53197  -0.53098  -0.52957
 Alpha  occ. eigenvalues --   -0.52802  -0.52638  -0.52515  -0.52334  -0.52287
 Alpha  occ. eigenvalues --   -0.52176  -0.52040  -0.51649  -0.51506  -0.51273
 Alpha  occ. eigenvalues --   -0.51198  -0.50849  -0.50576  -0.50406  -0.50049
 Alpha  occ. eigenvalues --   -0.49929  -0.49769  -0.49521  -0.49367  -0.49273
 Alpha  occ. eigenvalues --   -0.49260  -0.49099  -0.48882  -0.48609  -0.48519
 Alpha  occ. eigenvalues --   -0.48454  -0.48340  -0.48271  -0.48015  -0.47896
 Alpha  occ. eigenvalues --   -0.47789  -0.47561  -0.47127  -0.47019  -0.46705
 Alpha  occ. eigenvalues --   -0.46589  -0.46518  -0.46321  -0.46109  -0.46017
 Alpha  occ. eigenvalues --   -0.45919  -0.45802  -0.45610  -0.45545  -0.45347
 Alpha  occ. eigenvalues --   -0.45156  -0.44770  -0.44505  -0.44366  -0.44201
 Alpha  occ. eigenvalues --   -0.44079  -0.44031  -0.43924  -0.43881  -0.43658
 Alpha  occ. eigenvalues --   -0.43548  -0.43414  -0.43330  -0.43233  -0.42955
 Alpha  occ. eigenvalues --   -0.42862  -0.42837  -0.42675  -0.42649  -0.42323
 Alpha  occ. eigenvalues --   -0.42202  -0.42094  -0.41816  -0.41661  -0.41467
 Alpha  occ. eigenvalues --   -0.41290  -0.41029  -0.40967  -0.40911  -0.40655
 Alpha  occ. eigenvalues --   -0.40624  -0.40508  -0.40381  -0.40298  -0.40234
 Alpha  occ. eigenvalues --   -0.40148  -0.40001  -0.39468  -0.39326  -0.38882
 Alpha  occ. eigenvalues --   -0.38229  -0.37953  -0.37589  -0.37199  -0.37151
 Alpha  occ. eigenvalues --   -0.37091  -0.36890  -0.36710  -0.36500  -0.36206
 Alpha  occ. eigenvalues --   -0.36034  -0.35521  -0.34238  -0.34061  -0.33528
 Alpha  occ. eigenvalues --   -0.33135  -0.33055  -0.32404  -0.31210  -0.30929
 Alpha  occ. eigenvalues --   -0.30862  -0.30350  -0.30220  -0.29355  -0.29328
 Alpha  occ. eigenvalues --   -0.29215  -0.28684  -0.28571  -0.23984  -0.23308
 Alpha  occ. eigenvalues --   -0.21068  -0.20340
 Alpha virt. eigenvalues --   -0.08765  -0.07989  -0.01616  -0.01097  -0.00008
 Alpha virt. eigenvalues --    0.00655   0.02101   0.02850   0.03134   0.04530
 Alpha virt. eigenvalues --    0.04689   0.04789   0.05242   0.05787   0.05984

 Mulliken charges:
               1
     1  Mg   0.838234
     2  C    0.002215
     3  C   -0.080090
     4  C   -0.047365
     5  C   -0.066182
     6  N   -0.257367
     7  C   -0.044091
     8  C   -0.004699
     9  C   -0.092022
    10  C    0.054043
    11  C    0.105897
    12  C    0.045971
    13  C   -0.083434
    14  H    0.031593
    15  N   -0.435445
    16  C    0.188332
    17  C   -0.159406
    18  C   -0.019933
    19  C    0.130250
    20  C    0.119159
    21  C    0.012292
    22  O   -0.255301
    23  C    0.066183
    24  N   -0.340737
    25  C    0.041980
    26  C   -0.027830
    27  C   -0.022927
    28  C    0.073396
    29  C    0.076999
    30  C    0.044720
    31  C   -0.037215
    32  N   -0.310071
    33  C    0.079466
    34  C   -0.172138
    35  C    0.006841
    36  C    0.082563
    37  C    0.127791
    38  C    0.045396
    39  O   -0.191891
    40  C   -0.006758
    41  C    0.211949
    42  O   -0.253198
    43  O   -0.305728
    44  C    0.159558
    45  H   -0.020416
    46  H   -0.022380
    47  H   -0.044759
    48  H   -0.005477
    49  H   -0.004116
    50  H    0.024207
    51  H    0.015684
    52  H    0.014064
    53  H    0.026576
    54  H    0.055406
    55  H    0.015722
    56  H    0.011879
    57  H    0.005455
    58  H    0.020088
    59  H    0.046642
    60  H    0.037586
    61  H    0.031749
    62  H    0.032438
    63  H    0.012183
    64  H    0.008168
    65  H    0.021092
    66  H    0.013176
    67  H    0.004051
    68  H    0.003644
    69  H    0.003403
    70  H    0.008064
    71  H    0.048304
    72  H    0.035840
    73  H    0.045630
    74  H    0.007151
    75  H    0.044255
    76  H    0.033259
    77  H    0.040719
    78  H    0.044654
    79  H    0.052385
    80  Mg   0.841532
    81  C   -0.015435
    82  C   -0.087920
    83  C   -0.045015
    84  C   -0.066863
    85  N   -0.255186
    86  C   -0.048939
    87  C   -0.016463
    88  C   -0.090709
    89  C    0.047277
    90  C    0.114545
    91  C    0.061941
    92  C   -0.077411
    93  H    0.033706
    94  N   -0.423438
    95  C    0.164358
    96  C   -0.174393
    97  C   -0.007148
    98  C    0.152584
    99  C    0.099416
   100  C    0.016121
   101  O   -0.252935
   102  C    0.060892
   103  N   -0.350021
   104  C    0.037969
   105  C   -0.020418
   106  C   -0.031657
   107  C    0.089150
   108  C    0.073775
   109  C    0.030934
   110  C    0.004452
   111  N   -0.322910
   112  C    0.074967
   113  C   -0.160190
   114  C    0.000122
   115  C    0.096790
   116  C    0.119186
   117  C    0.042033
   118  O   -0.196395
   119  C    0.006037
   120  C    0.211536
   121  O   -0.242921
   122  O   -0.305282
   123  C    0.164517
   124  H   -0.019901
   125  H   -0.015313
   126  H   -0.037578
   127  H   -0.002346
   128  H   -0.003988
   129  H    0.021486
   130  H    0.014492
   131  H    0.016077
   132  H    0.016208
   133  H    0.041798
   134  H    0.019251
   135  H    0.019996
   136  H    0.008802
   137  H    0.025981
   138  H    0.040747
   139  H    0.038004
   140  H    0.036519
   141  H    0.034808
   142  H    0.014945
   143  H    0.012681
   144  H    0.024915
   145  H    0.011121
   146  H    0.005889
   147  H    0.004552
   148  H    0.004726
   149  H    0.006279
   150  H   -0.000466
   151  H    0.029822
   152  H    0.068021
   153  H    0.017073
   154  H    0.038017
   155  H    0.033434
   156  H    0.040466
   157  H    0.048435
   158  H    0.035531
 Sum of Mulliken charges =  -0.00000

 Dipole moment (field-independent basis, Debye):
    X=             -1.8213    Y=             -3.2693    Z=             -4.5291  Tot=              5.8752
 Quadrupole moment (field-independent basis, Debye-Ang):
   XX=           -485.0776   YY=           -468.7767   ZZ=           -528.9153
   XY=             19.8270   XZ=             -6.6585   YZ=             27.7732

 Normal termination of Gaussian 16 at Wed Sep  8 22:11:36 2021.
