 Gaussian 16, Revision A.03,
 Gaussian 16:  ES64L-G16RevA.03 25-Dec-2016

 -----------------------------------
 #p cam-b3lyp/Def2SVP td=(nstates=5)
 -----------------------------------

 --------------------------------
 TDDFT excited states in gaussian
 --------------------------------
 Symbolic Z-matrix:
 Charge =  0 Multiplicity = 1

                         Standard orientation:
 ---------------------------------------------------------------------
 Center     Atomic      Atomic             Coordinates (Angstroms)
 Number     Number       Type             X           Y           Z
 ---------------------------------------------------------------------
      1         12           0        6.752464    0.471719    1.017763
      2          6           0        7.254648   -2.437020   -1.006901
      3          6           0        8.010115    2.307100   -1.569272
      4          6           0        6.743905    2.991050    2.943775
      5          6           0        6.618456   -1.652965    3.777006
      6          7           0        7.501662   -0.105980   -0.983639
      7          6           0        7.584777   -1.247407   -1.659957
      8          6           0        7.983933   -1.053006   -3.153361
      9          6           0        8.725730    0.353281   -3.034648
     10          6           0        8.013320    0.901121   -1.810611
     11          6           0       10.214120    0.232682   -2.723755
     12          6           0        6.736453   -0.964951   -4.095577
     13          6           0        7.036151   -1.102769   -5.591084
     14          1           0        6.073006   -1.790281   -6.437858
     15          7           0        6.830330    2.401699    0.603078
     16          6           0        7.363614    2.971191   -0.504429
     17          6           0        7.177085    4.429221   -0.343067
     18          6           0        6.663250    4.672625    1.033458
     19          6           0        6.751231    3.350156    1.598005
     20          6           0        7.430539    5.417526   -1.439773
     21          6           0        6.180901    5.903989    1.732897
     22          8           0        5.997832    5.940203    2.997708
     23          6           0        6.010707    7.108438    0.900203
     24          7           0        6.909408    0.676049    3.089297
     25          6           0        6.817683    1.875862    3.673267
     26          6           0        6.674152    1.749466    5.161004
     27          6           0        6.441739    0.196777    5.452369
     28          6           0        6.581699   -0.338302    4.005865
     29          6           0        7.861766    2.252671    5.993092
     30          6           0        5.176564   -0.185284    6.260935
     31          6           0        3.937709    0.110090    5.445403
     32          7           0        6.728033   -1.674167    1.342759
     33          6           0        6.691829   -2.339691    2.576632
     34          6           0        6.799747   -3.782509    2.292559
     35          6           0        6.908618   -3.855535    0.905238
     36          6           0        6.897489   -2.540161    0.359382
     37          6           0        6.847382   -4.821707    3.263245
     38          6           0        7.056539   -4.737539   -0.241081
     39          8           0        7.031953   -5.958219   -0.404877
     40          6           0        7.408978   -3.849050   -1.514737
     41          6           0        6.514915   -4.293180   -2.640219
     42          8           0        5.282322   -4.104430   -2.590685
     43          8           0        7.268051   -4.650559   -3.691698
     44          6           0        6.441514   -5.073955   -4.853475
     45          1           0        8.603330    2.955231   -2.217317
     46          1           0        6.629929    3.826509    3.637644
     47          1           0        6.498790   -2.380822    4.581592
     48          1           0        8.671231   -1.804837   -3.541684
     49          1           0        8.535274    0.988146   -3.899746
     50          1           0       10.493599   -0.798267   -2.507061
     51          1           0       10.381194    0.863935   -1.850772
     52          1           0       10.813542    0.665074   -3.525321
     53          1           0        6.343784    0.051691   -4.077969
     54          1           0        5.984092   -1.700720   -3.809354
     55          1           0        8.040656   -1.490852   -5.762171
     56          1           0        7.052971   -0.104884   -6.029423
     57          1           0        7.957592    4.960818   -2.276539
     58          1           0        8.130450    6.155335   -1.048019
     59          1           0        6.515960    5.914271   -1.763999
     60          1           0        6.963531    7.361900    0.434981
     61          1           0        5.574812    7.865160    1.551522
     62          1           0        5.322887    6.880147    0.085503
     63          1           0        5.813978    2.312965    5.520163
     64          1           0        7.262847   -0.239998    6.021300
     65          1           0        7.593272    3.019160    6.720492
     66          1           0        8.624984    2.616188    5.305600
     67          1           0        8.405753    1.475774    6.529678
     68          1           0        5.112458    0.412388    7.169574
     69          1           0        5.152894   -1.235412    6.552349
     70          1           0        3.771172    1.170574    5.631069
     71          1           0        3.096648   -0.485478    5.801950
     72          1           0        4.126096   -0.008215    4.378164
     73          1           0        6.196152   -5.613945    2.894155
     74          1           0        6.523101   -4.465603    4.240810
     75          1           0        7.908157   -5.070888    3.240404
     76          1           0        8.461818   -4.021688   -1.735750
     77          1           0        6.765970   -6.077317   -5.129566
     78          1           0        6.534750   -4.287866   -5.602992
     79          1           0        5.383339   -5.247292   -4.654582
     80         12           0       -6.340815    0.460717   -0.873764
     81          6           0       -8.595394   -1.694603    0.901198
     82          6           0       -8.705690    2.904489   -0.609367
     83          6           0       -4.575468    2.241340   -2.818075
     84          6           0       -4.690536   -2.403993   -1.976369
     85          7           0       -8.350443    0.481261    0.049940
     86          6           0       -9.076704   -0.377493    0.749521
     87          6           0      -10.354930    0.230555    1.386686
     88          6           0      -10.559664    1.466647    0.382180
     89          6           0       -9.112395    1.659740   -0.065939
     90          6           0      -11.395158    1.118210   -0.838422
     91          6           0      -10.114630    0.719807    2.858042
     92          6           0      -11.387302    1.038995    3.645564
     93          1           0      -11.414026    0.742231    5.075141
     94          7           0       -6.362813    2.418786   -1.196295
     95          6           0       -7.400972    3.261748   -1.014830
     96          6           0       -6.913804    4.591526   -1.412965
     97          6           0       -5.555050    4.436928   -1.999988
     98          6           0       -5.451316    2.992259   -2.047640
     99          6           0       -7.684572    5.852671   -1.150514
    100          6           0       -4.525282    5.425621   -2.456337
    101          8           0       -3.511362    5.068166   -3.154206
    102          6           0       -4.787513    6.837656   -2.141909
    103          7           0       -4.980513   -0.012596   -2.373068
    104          6           0       -4.311577    0.951725   -3.029207
    105          6           0       -3.194407    0.370380   -3.862487
    106          6           0       -3.098622   -1.168763   -3.438845
    107          6           0       -4.287928   -1.235104   -2.455713
    108          6           0       -3.372721    0.470883   -5.377235
    109          6           0       -1.713303   -1.681680   -2.958799
    110          6           0       -1.351263   -1.034066   -1.641639
    111          7           0       -6.457060   -1.657024   -0.461771
    112          6           0       -5.689895   -2.684448   -1.053320
    113          6           0       -6.209257   -3.967640   -0.537462
    114          6           0       -7.265905   -3.595868    0.307378
    115          6           0       -7.408915   -2.182002    0.301670
    116          6           0       -5.738334   -5.261320   -0.899042
    117          6           0       -8.299690   -4.078622    1.194477
    118          8           0       -8.605843   -5.177776    1.654787
    119          6           0       -9.287803   -2.876986    1.520193
    120          6           0       -9.518201   -2.854922    3.006448
    121          8           0       -8.584740   -2.598005    3.787009
    122          8           0      -10.839870   -2.925165    3.248553
    123          6           0      -11.119548   -2.895447    4.708944
    124          1           0       -9.464631    3.668141   -0.781756
    125          1           0       -3.869583    2.814697   -3.423446
    126          1           0       -4.166734   -3.336739   -2.196146
    127          1           0      -11.224824   -0.414856    1.364193
    128          1           0      -10.916768    2.348168    0.908260
    129          1           0      -11.615121    0.062126   -0.887975
    130          1           0      -10.806974    1.422726   -1.694201
    131          1           0      -12.301261    1.730366   -0.862272
    132          1           0       -9.654105    1.715828    2.833483
    133          1           0       -9.520625    0.011913    3.402728
    134          1           0      -12.285531    0.645332    3.154484
    135          1           0      -11.533836    2.121828    3.644171
    136          1           0       -8.719358    5.637848   -0.856444
    137          1           0       -7.777456    6.375847   -2.108390
    138          1           0       -7.185489    6.510280   -0.435585
    139          1           0       -5.735113    7.136122   -2.583997
    140          1           0       -3.898256    7.379924   -2.469057
    141          1           0       -4.900608    6.939283   -1.056784
    142          1           0       -2.252305    0.855699   -3.638834
    143          1           0       -3.345384   -1.837951   -4.276185
    144          1           0       -2.540256    0.997752   -5.880719
    145          1           0       -4.313237    0.966495   -5.578073
    146          1           0       -3.498406   -0.480361   -5.891567
    147          1           0       -0.935508   -1.393785   -3.670363
    148          1           0       -1.666261   -2.759996   -2.849098
    149          1           0       -0.930002   -0.071698   -1.947374
    150          1           0       -0.617166   -1.634743   -1.108413
    151          1           0       -2.247511   -0.827087   -1.045362
    152          1           0       -5.672826   -5.835647    0.015488
    153          1           0       -4.776747   -5.207271   -1.405205
    154          1           0       -6.539131   -5.579339   -1.571980
    155          1           0      -10.210423   -3.051958    0.965457
    156          1           0      -11.711752   -3.786528    4.939027
    157          1           0      -11.590737   -1.913565    4.902959
    158          1           0      -10.279864   -3.019777    5.382673
 ---------------------------------------------------------------------

 SCF Done:  E(RCAM-B3LYP) =  -4069.81203053     A.U. after   19 cycles

 Excitation energies and oscillator strengths:

 Excited State   1:      Singlet-A      1.6647 eV  744.78 nm  f=0.0105  <S**2>=0.000
     309 -> 315       -0.10836
     310 -> 316        0.13257
     311 -> 313       -0.43290
     312 -> 314        0.53299
 This state for optimization and/or second-order correction.
 Total Energy, E(TD-HF/TD-DFT) =  -4069.75085346
 Copying the excited state density for this state as the 1-particle RhoCI density.

 Excited State   2:      Singlet-A      1.6891 eV  734.03 nm  f=0.7329  <S**2>=0.000
     309 -> 315        0.13825
     310 -> 316        0.11157
     311 -> 313        0.53181
     312 -> 314        0.43200

 Excited State   3:      Singlet-A      2.1848 eV  567.48 nm  f=0.0787  <S**2>=0.000
     309 -> 313        0.12022
     310 -> 314        0.63153
     312 -> 316       -0.26746

 Excited State   4:      Singlet-A      2.1935 eV  565.25 nm  f=0.1180  <S**2>=0.000
     309 -> 313        0.62937
     310 -> 314       -0.11910
     311 -> 315       -0.27392

 Excited State   5:      Singlet-A      2.6942 eV  460.20 nm  f=0.0000  <S**2>=0.000
     312 -> 313        0.70697

 The electronic state is 1-A.
 Alpha  occ. eigenvalues --  -46.87729 -46.87539 -19.26294 -19.26262 -19.19067
 Alpha  occ. eigenvalues --  -19.19032 -19.18730 -19.18635 -19.18120 -19.17943
 Alpha  occ. eigenvalues --  -14.42388 -14.42382 -14.41379 -14.41227 -14.39333
 Alpha  occ. eigenvalues --  -14.39235 -14.38522 -14.38477 -10.39086 -10.38996
 Alpha  occ. eigenvalues --  -10.35363 -10.35316 -10.34343 -10.34120 -10.31704
 Alpha  occ. eigenvalues --  -10.31679 -10.31348 -10.31191 -10.30921 -10.30851
 Alpha  occ. eigenvalues --  -10.30506 -10.30438 -10.30274 -10.30236 -10.30127
 Alpha  occ. eigenvalues --  -10.30003 -10.29851 -10.29756 -10.29561 -10.29320
 Alpha  occ. eigenvalues --  -10.29282 -10.29180 -10.28714 -10.28628 -10.28581
 Alpha  occ. eigenvalues --  -10.28537 -10.28302 -10.28295 -10.28072 -10.28046
 Alpha  occ. eigenvalues --  -10.27885 -10.27724 -10.27662 -10.27555 -10.27511
 Alpha  occ. eigenvalues --  -10.27410 -10.27393 -10.27381 -10.27369 -10.27365
 Alpha  occ. eigenvalues --  -10.27354 -10.27345 -10.27317 -10.27217 -10.27124
 Alpha  occ. eigenvalues --  -10.26948 -10.26693 -10.26608 -10.26364 -10.26309
 Alpha  occ. eigenvalues --  -10.26189 -10.26072 -10.25944 -10.25941 -10.25824
 Alpha  occ. eigenvalues --  -10.25787 -10.25767 -10.25689 -10.25358 -10.25280
 Alpha  occ. eigenvalues --  -10.24769 -10.24757 -10.24718 -10.24569 -10.24559
 Alpha  occ. eigenvalues --  -10.24395  -3.16472  -3.16288  -1.91354  -1.91171
 Alpha  occ. eigenvalues --   -1.90940  -1.90783  -1.90759  -1.90596  -1.16642
 Alpha  occ. eigenvalues --   -1.16554  -1.08583  -1.08550  -1.07131  -1.06891
 Alpha  occ. eigenvalues --   -1.06851  -1.06652  -1.04520  -1.04382  -1.03692
 Alpha  occ. eigenvalues --   -1.03542  -1.03165  -1.02911  -1.02344  -1.01988
 Alpha  occ. eigenvalues --   -0.91918  -0.91873  -0.89439  -0.89328  -0.89146
 Alpha  occ. eigenvalues --   -0.89050  -0.88206  -0.88048  -0.87802  -0.87663
 Alpha  occ. eigenvalues --   -0.87612  -0.87566  -0.87194  -0.87023  -0.84935
 Alpha  occ. eigenvalues --   -0.84897  -0.83855  -0.83692  -0.82880  -0.82825
 Alpha  occ. eigenvalues --   -0.82596  -0.82545  -0.81551  -0.81485  -0.80543
 Alpha  occ. eigenvalues --   -0.80333  -0.78722  -0.78523  -0.77153  -0.77023
 Alpha  occ. eigenvalues --   -0.76890  -0.76770  -0.75878  -0.75732  -0.74828
 Alpha  occ. eigenvalues --   -0.74661  -0.72706  -0.72570  -0.71612  -0.71465
 Alpha  occ. eigenvalues --   -0.69814  -0.69539  -0.68820  -0.68720  -0.67579
 Alpha  occ. eigenvalues --   -0.67488  -0.67173  -0.67108  -0.65241  -0.65166
 Alpha  occ. eigenvalues --   -0.64799  -0.64642  -0.64566  -0.64536  -0.64192
 Alpha  occ. eigenvalues --   -0.64032  -0.62268  -0.62162  -0.60364  -0.60226
 Alpha  occ. eigenvalues --   -0.59753  -0.59692  -0.58925  -0.58868  -0.58443
 Alpha  occ. eigenvalues --   -0.58301  -0.57550  -0.57446  -0.57242  -0.57103
 Alpha  occ. eigenvalues --   -0.56247  -0.56085  -0.55958  -0.55785  -0.55453
 Alpha  occ. eigenvalues --   -0.55356  -0.55278  -0.55099  -0.54475  -0.54334
 Alpha  occ. eigenvalues --   -0.53854  -0.53815  -0.53229  -0.53167  -0.53109
 Alpha  occ. eigenvalues --   -0.53034  -0.52871  -0.52789  -0.52685  -0.52584
 Alpha  occ. eigenvalues --   -0.52342  -0.52151  -0.51847  -0.51742  -0.51568
 Alpha  occ. eigenvalues --   -0.51566  -0.51138  -0.51066  -0.50482  -0.50381
 Alpha  occ. eigenvalues --   -0.49948  -0.49875  -0.49846  -0.49703  -0.49458
 Alpha  occ. eigenvalues --   -0.49392  -0.49158  -0.49100  -0.49049  -0.48995
 Alpha  occ. eigenvalues --   -0.48549  -0.48454  -0.48393  -0.48375  -0.48252
 Alpha  occ. eigenvalues --   -0.48235  -0.47633  -0.47479  -0.47231  -0.47010
 Alpha  occ. eigenvalues --   -0.46730  -0.46574  -0.46513  -0.46450  -0.46293
 Alpha  occ. eigenvalues --   -0.46138  -0.46103  -0.45956  -0.45777  -0.45702
 Alpha  occ. eigenvalues --   -0.45126  -0.45065  -0.44528  -0.44438  -0.44413
 Alpha  occ. eigenvalues --   -0.44351  -0.44074  -0.44034  -0.44023  -0.43960
 Alpha  occ. eigenvalues --   -0.43916  -0.43845  -0.43454  -0.43427  -0.43327
 Alpha  occ. eigenvalues --   -0.43273  -0.42967  -0.42824  -0.42780  -0.42682
 Alpha  occ. eigenvalues --   -0.42576  -0.42385  -0.41939  -0.41790  -0.41646
 Alpha  occ. eigenvalues --   -0.41549  -0.41485  -0.41331  -0.41082  -0.40877
 Alpha  occ. eigenvalues --   -0.40812  -0.40749  -0.40637  -0.40575  -0.40495
 Alpha  occ. eigenvalues --   -0.40314  -0.40203  -0.40142  -0.39343  -0.39195
 Alpha  occ. eigenvalues --   -0.38395  -0.38194  -0.37714  -0.37555  -0.37246
 Alpha  occ. eigenvalues --   -0.37217  -0.37117  -0.37087  -0.36694  -0.36662
 Alpha  occ. eigenvalues --   -0.36146  -0.36079  -0.34222  -0.34130  -0.33769
 Alpha  occ. eigenvalues --   -0.33763  -0.33124  -0.33053  -0.31262  -0.31194
 Alpha  occ. eigenvalues --   -0.30972  -0.30855  -0.29982  -0.29846  -0.29377
 Alpha  occ. eigenvalues --   -0.29256  -0.29218  -0.29093  -0.24016  -0.23914
 Alpha  occ. eigenvalues --   -0.21059  -0.20995
 Alpha virt. eigenvalues --   -0.08705  -0.08676  -0.01680  -0.01562   0.00013
 Alpha virt. eigenvalues --    0.00068   0.02261   0.02327   0.03193   0.03362
 Alpha virt. eigenvalues --    0.04769   0.04840   0.05101   0.05261   0.06199

 Mulliken charges:
               1
     1  Mg   0.838771
     2  C   -0.003409
     3  C   -0.094071
     4  C   -0.045683
     5  C   -0.063749
     6  N   -0.256794
     7  C   -0.052696
     8  C   -0.013976
     9  C   -0.087013
    10  C    0.046272
    11  C    0.104806
    12  C    0.053478
    13  C   -0.071594
    14  H    0.035168
    15  N   -0.433187
    16  C    0.168563
    17  C   -0.176909
    18  C   -0.003748
    19  C    0.148821
    20  C    0.110102
    21  C    0.012617
    22  O   -0.249631
    23  C    0.062249
    24  N   -0.341173
    25  C    0.041320
    26  C   -0.028181
    27  C   -0.024004
    28  C    0.074840
    29  C    0.076198
    30  C    0.035070
    31  C   -0.004593
    32  N   -0.310384
    33  C    0.080249
    34  C   -0.169653
    35  C    0.008213
    36  C    0.082753
    37  C    0.127320
    38  C    0.045821
    39  O   -0.188707
    40  C   -0.005264
    41  C    0.213076
    42  O   -0.258132
    43  O   -0.304541
    44  C    0.157886
    45  H   -0.017626
    46  H   -0.016747
    47  H   -0.041261
    48  H    0.000826
    49  H   -0.004006
    50  H    0.025421
    51  H    0.016550
    52  H    0.016618
    53  H    0.011393
    54  H    0.043282
    55  H    0.018041
    56  H    0.018261
    57  H    0.005785
    58  H    0.026697
    59  H    0.040344
    60  H    0.037127
    61  H    0.035574
    62  H    0.032412
    63  H    0.016761
    64  H    0.009394
    65  H    0.023202
    66  H    0.012396
    67  H    0.004733
    68  H    0.006394
    69  H    0.004918
    70  H    0.008825
    71  H    0.018988
    72  H    0.028777
    73  H    0.047561
    74  H    0.009435
    75  H    0.045909
    76  H    0.035163
    77  H    0.043083
    78  H    0.046408
    79  H    0.052856
    80  Mg   0.837909
    81  C   -0.017037
    82  C   -0.088031
    83  C   -0.045567
    84  C   -0.064606
    85  N   -0.254557
    86  C   -0.049843
    87  C   -0.015076
    88  C   -0.090489
    89  C    0.045659
    90  C    0.114474
    91  C    0.062562
    92  C   -0.077756
    93  H    0.034680
    94  N   -0.423379
    95  C    0.162799
    96  C   -0.174902
    97  C   -0.008098
    98  C    0.152103
    99  C    0.099455
   100  C    0.015410
   101  O   -0.253917
   102  C    0.061343
   103  N   -0.350212
   104  C    0.037628
   105  C   -0.019545
   106  C   -0.035397
   107  C    0.089256
   108  C    0.074025
   109  C    0.034825
   110  C   -0.008324
   111  N   -0.324197
   112  C    0.078718
   113  C   -0.162575
   114  C    0.002155
   115  C    0.096418
   116  C    0.131243
   117  C    0.042500
   118  O   -0.187862
   119  C    0.000881
   120  C    0.211239
   121  O   -0.250976
   122  O   -0.305680
   123  C    0.152097
   124  H   -0.020078
   125  H   -0.016085
   126  H   -0.039195
   127  H   -0.000808
   128  H   -0.004552
   129  H    0.022350
   130  H    0.014359
   131  H    0.015967
   132  H    0.013934
   133  H    0.037708
   134  H    0.020670
   135  H    0.019464
   136  H    0.008584
   137  H    0.025660
   138  H    0.039512
   139  H    0.038083
   140  H    0.035496
   141  H    0.034059
   142  H    0.014265
   143  H    0.012325
   144  H    0.024252
   145  H    0.011056
   146  H    0.005610
   147  H    0.007201
   148  H    0.005920
   149  H    0.009581
   150  H    0.022351
   151  H    0.028542
   152  H    0.046370
   153  H    0.009906
   154  H    0.046650
   155  H    0.034806
   156  H    0.043782
   157  H    0.049357
   158  H    0.053543
 Sum of Mulliken charges =  -0.00000

 Dipole moment (field-independent basis, Debye):
    X=              0.0757    Y=              6.9244    Z=             -3.1221  Tot=              7.5961
 Quadrupole moment (field-independent basis, Debye-Ang):
   XX=           -433.4185   YY=           -540.3177   ZZ=           -480.7007
   XY=            -24.1761   XZ=            -17.7505   YZ=              1.2387

 Normal termination of Gaussian 16 at Sat Sep 11 04:45:43 2021.
