 Gaussian 16, Revision A.03,
 Gaussian 16:  ES64L-G16RevA.03 25-Dec-2016

 -----------------------------------
 #p cam-b3lyp/Def2SVP td=(nstates=5)
 -----------------------------------

 --------------------------------
 TDDFT excited states in gaussian
 --------------------------------
 Symbolic Z-matrix:
 Charge =  0 Multiplicity = 1

                         Standard orientation:
 ---------------------------------------------------------------------
 Center     Atomic      Atomic             Coordinates (Angstroms)
 Number     Number       Type             X           Y           Z
 ---------------------------------------------------------------------
      1         12           0       -7.568008    0.739341   -0.270477
      2          6           0       -7.922603   -2.356959    1.490036
      3          6           0       -8.470653    2.314126    2.618874
      4          6           0       -7.703867    3.446607   -1.916343
      5          6           0       -7.809245   -1.085593   -3.229713
      6          7           0       -8.102457   -0.032465    1.734349
      7          6           0       -8.141812   -1.237042    2.295256
      8          6           0       -8.363549   -1.193799    3.836793
      9          6           0       -9.072612    0.229779    3.949281
     10          6           0       -8.487600    0.890836    2.713689
     11          6           0      -10.589507    0.168249    3.801815
     12          6           0       -7.015419   -1.226815    4.632523
     13          6           0       -7.147847   -1.515841    6.130615
     14          1           0       -6.115562   -2.305070    6.785483
     15          7           0       -7.542028    2.616108    0.345901
     16          6           0       -7.929687    3.075181    1.560091
     17          6           0       -7.720102    4.538654    1.528433
     18          6           0       -7.358454    4.916462    0.133956
     19          6           0       -7.548356    3.662365   -0.549093
     20          6           0       -7.818835    5.410459    2.742500
     21          6           0       -6.922590    6.205997   -0.486732
     22          8           0       -6.882852    6.371767   -1.753821
     23          6           0       -6.624142    7.313145    0.439656
     24          7           0       -7.952336    1.162926   -2.278088
     25          6           0       -7.892274    2.415702   -2.742771
     26          6           0       -7.921781    2.443898   -4.242195
     27          6           0       -7.769295    0.926646   -4.715954
     28          6           0       -7.760231    0.245010   -3.325429
     29          6           0       -9.180719    3.052202   -4.875482
     30          6           0       -6.615455    0.609879   -5.700195
     31          6           0       -5.284171    0.796466   -5.007400
     32          7           0       -7.643215   -1.360606   -0.814176
     33          6           0       -7.766334   -1.893297   -2.105593
     34          6           0       -7.883516   -3.355899   -1.960225
     35          6           0       -7.836776   -3.572429   -0.584443
     36          6           0       -7.725522   -2.322095    0.088296
     37          6           0       -8.071034   -4.286352   -3.020192
     38          6           0       -7.879725   -4.567332    0.474887
     39          8           0       -7.872434   -5.798708    0.508856
     40          6           0       -8.059657   -3.811662    1.865000
     41          6           0       -7.057330   -4.386991    2.828144
     42          8           0       -5.833276   -4.215400    2.656056
     43          8           0       -7.696752   -4.839832    3.917463
     44          6           0       -6.756774   -5.397193    4.926395
     45          1           0       -8.967531    2.900712    3.394097
     46          1           0       -7.644787    4.348267   -2.529495
     47          1           0       -7.802715   -1.726821   -4.113024
     48          1           0       -9.024156   -1.970292    4.222903
     49          1           0       -8.767014    0.766827    4.847007
     50          1           0      -10.921712   -0.829236    3.514438
     51          1           0      -10.835787    0.890542    3.023271
     52          1           0      -11.081478    0.524296    4.707338
     53          1           0       -6.597732   -0.220887    4.673859
     54          1           0       -6.322100   -1.941314    4.187409
     55          1           0       -8.137444   -1.902345    6.376017
     56          1           0       -7.085794   -0.569407    6.667842
     57          1           0       -8.260924    4.877513    3.583375
     58          1           0       -8.536728    6.197332    2.511916
     59          1           0       -6.859320    5.854506    3.007992
     60          1           0       -7.510383    7.532732    1.035396
     61          1           0       -6.242835    8.126483   -0.176733
     62          1           0       -5.855508    6.988651    1.141693
     63          1           0       -7.091684    3.027079   -4.638762
     64          1           0       -8.661919    0.566329   -5.227879
     65          1           0       -8.973990    3.886139   -5.546688
     66          1           0       -9.850285    3.354584   -4.070785
     67          1           0       -9.804398    2.345512   -5.422318
     68          1           0       -6.637156    1.298536   -6.544130
     69          1           0       -6.655605   -0.404059   -6.098402
     70          1           0       -5.108804    1.867554   -5.101474
     71          1           0       -4.506622    0.227228   -5.517887
     72          1           0       -5.353947    0.569927   -3.943305
     73          1           0       -7.405643   -5.124122   -2.811948
     74          1           0       -7.849200   -3.835138   -3.987042
     75          1           0       -9.129234   -4.518192   -2.900527
     76          1           0       -9.085314   -3.988359    2.187381
     77          1           0       -7.077075   -6.418259    5.133916
     78          1           0       -6.741586   -4.692734    5.758208
     79          1           0       -5.733423   -5.566920    4.589818
     80         12           0        8.283816    0.211075    0.170584
     81          6           0        5.831075   -1.853143   -1.442541
     82          6           0        6.350668    2.896535   -0.657564
     83          6           0       10.633508    2.088537    1.181275
     84          6           0       10.520128   -2.443712   -0.140378
     85          7           0        6.360837    0.372858   -0.910268
     86          6           0        5.491057   -0.484407   -1.423019
     87          6           0        4.148361    0.152422   -1.871554
     88          6           0        4.661580    1.656034   -2.105279
     89          6           0        5.845534    1.662938   -1.140460
     90          6           0        5.188374    1.900688   -3.509552
     91          6           0        3.052094    0.087337   -0.750842
     92          6           0        1.631763    0.408599   -1.221168
     93          1           0        0.517146   -0.311583   -0.611706
     94          7           0        8.264346    2.126535    0.689423
     95          6           0        7.394538    3.072446    0.277163
     96          6           0        7.819909    4.321273    0.928060
     97          6           0        9.109133    4.070042    1.627711
     98          6           0        9.402581    2.728165    1.165845
     99          6           0        6.986925    5.570037    0.915613
    100          6           0        9.946555    4.904807    2.548637
    101          8           0       11.148115    4.575829    2.850024
    102          6           0        9.351566    6.166520    3.012921
    103          7           0       10.343527   -0.046558    0.287048
    104          6           0       11.130711    0.906898    0.815414
    105          6           0       12.531122    0.391563    1.047104
    106          6           0       12.457165   -1.184817    0.788018
    107          6           0       10.982003   -1.299550    0.345144
    108          6           0       13.619146    1.001736    0.163767
    109          6           0       12.960224   -2.110052    1.929752
    110          6           0       12.037240   -2.006448    3.122540
    111          7           0        8.172012   -1.850244   -0.467017
    112          6           0        9.233588   -2.778318   -0.543162
    113          6           0        8.689193   -4.014354   -1.141738
    114          6           0        7.343442   -3.709360   -1.395527
    115          6           0        7.073505   -2.370566   -1.002756
    116          6           0        9.428806   -5.196975   -1.425440
    117          6           0        6.092469   -4.212032   -1.916168
    118          8           0        5.693218   -5.306626   -2.311416
    119          6           0        5.088981   -2.991212   -2.086516
    120          6           0        3.766298   -3.390738   -1.492045
    121          8           0        3.660098   -3.602050   -0.271115
    122          8           0        2.803941   -3.246218   -2.421216
    123          6           0        1.471797   -3.619827   -1.875686
    124          1           0        5.937965    3.820631   -1.063279
    125          1           0       11.454630    2.656790    1.624356
    126          1           0       11.129394   -3.349183   -0.180415
    127          1           0        3.740427   -0.248477   -2.791686
    128          1           0        3.913462    2.381308   -1.796020
    129          1           0        5.240281    0.988393   -4.085006
    130          1           0        6.175760    2.325215   -3.383528
    131          1           0        4.590989    2.669730   -4.007597
    132          1           0        3.209076    0.915542   -0.047879
    133          1           0        3.063528   -0.867234   -0.261675
    134          1           0        1.546530    0.394484   -2.314546
    135          1           0        1.400831    1.441014   -0.947643
    136          1           0        6.171716    5.502504    0.184670
    137          1           0        7.624839    6.376154    0.537316
    138          1           0        6.623099    5.843571    1.908316
    139          1           0        9.105095    6.786954    2.154560
    140          1           0       10.063326    6.578460    3.730960
    141          1           0        8.406845    5.941899    3.520521
    142          1           0       12.842910    0.565378    2.069685
    143          1           0       13.068772   -1.484954   -0.075518
    144          1           0       14.439952    1.467471    0.741216
    145          1           0       13.158142    1.726500   -0.494051
    146          1           0       14.082746    0.312777   -0.540222
    147          1           0       13.946713   -1.787474    2.271714
    148          1           0       13.045628   -3.150980    1.636204
    149          1           0       12.399586   -1.111964    3.637994
    150          1           0       12.125933   -2.888656    3.753311
    151          1           0       11.006186   -1.809811    2.806427
    152          1           0        8.816178   -6.030725   -1.109141
    153          1           0       10.391468   -5.195087   -0.918427
    154          1           0        9.535693   -5.104807   -2.509573
    155          1           0        5.010670   -2.777916   -3.153259
    156          1           0        1.059361   -4.387569   -2.537622
    157          1           0        0.907445   -2.672214   -1.790360
    158          1           0        1.446707   -4.129278   -0.919508
 ---------------------------------------------------------------------

 SCF Done:  E(RCAM-B3LYP) =  -4069.81181171     A.U. after   19 cycles

 Excitation energies and oscillator strengths:

 Excited State   1:      Singlet-A      1.6690 eV  742.85 nm  f=0.0138  <S**2>=0.000
     309 -> 315       -0.10698
     310 -> 316        0.13468
     311 -> 313       -0.42543
     312 -> 314        0.53869
 This state for optimization and/or second-order correction.
 Total Energy, E(TD-HF/TD-DFT) =  -4069.75047555
 Copying the excited state density for this state as the 1-particle RhoCI density.

 Excited State   2:      Singlet-A      1.6858 eV  735.46 nm  f=0.7393  <S**2>=0.000
     309 -> 315        0.13875
     310 -> 316        0.10903
     311 -> 313        0.53777
     312 -> 314        0.42481

 Excited State   3:      Singlet-A      2.1853 eV  567.35 nm  f=0.1004  <S**2>=0.000
     310 -> 314        0.63944
     312 -> 316       -0.27111

 Excited State   4:      Singlet-A      2.1923 eV  565.54 nm  f=0.1011  <S**2>=0.000
     309 -> 313        0.63752
     311 -> 315       -0.27664

 Excited State   5:      Singlet-A      2.7373 eV  452.94 nm  f=0.0000  <S**2>=0.000
     312 -> 313        0.70696

 The electronic state is 1-A.
 Alpha  occ. eigenvalues --  -46.87906 -46.87564 -19.26306 -19.26099 -19.19057
 Alpha  occ. eigenvalues --  -19.18945 -19.18939 -19.18642 -19.18245 -19.17926
 Alpha  occ. eigenvalues --  -14.42550 -14.42397 -14.41558 -14.41266 -14.39512
 Alpha  occ. eigenvalues --  -14.39258 -14.38693 -14.38501 -10.39120 -10.38876
 Alpha  occ. eigenvalues --  -10.35580 -10.35322 -10.34463 -10.34099 -10.31670
 Alpha  occ. eigenvalues --  -10.31495 -10.31425 -10.31200 -10.31003 -10.30916
 Alpha  occ. eigenvalues --  -10.30669 -10.30616 -10.30322 -10.30302 -10.30258
 Alpha  occ. eigenvalues --  -10.30059 -10.30029 -10.29802 -10.29737 -10.29364
 Alpha  occ. eigenvalues --  -10.29350 -10.29306 -10.28815 -10.28580 -10.28564
 Alpha  occ. eigenvalues --  -10.28466 -10.28437 -10.28303 -10.28187 -10.28018
 Alpha  occ. eigenvalues --  -10.27905 -10.27893 -10.27826 -10.27694 -10.27624
 Alpha  occ. eigenvalues --  -10.27589 -10.27572 -10.27571 -10.27499 -10.27447
 Alpha  occ. eigenvalues --  -10.27395 -10.27376 -10.27375 -10.27304 -10.27225
 Alpha  occ. eigenvalues --  -10.26901 -10.26756 -10.26554 -10.26518 -10.26364
 Alpha  occ. eigenvalues --  -10.26328 -10.26298 -10.26128 -10.26074 -10.25928
 Alpha  occ. eigenvalues --  -10.25916 -10.25844 -10.25759 -10.25545 -10.25335
 Alpha  occ. eigenvalues --  -10.24930 -10.24897 -10.24868 -10.24772 -10.24667
 Alpha  occ. eigenvalues --  -10.24597  -3.16649  -3.16314  -1.91531  -1.91197
 Alpha  occ. eigenvalues --   -1.91117  -1.90959  -1.90785  -1.90622  -1.16658
 Alpha  occ. eigenvalues --   -1.16400  -1.08698  -1.08523  -1.07348  -1.06897
 Alpha  occ. eigenvalues --   -1.06724  -1.06679  -1.04679  -1.04392  -1.03867
 Alpha  occ. eigenvalues --   -1.03566  -1.03341  -1.02946  -1.02517  -1.02016
 Alpha  occ. eigenvalues --   -0.92062  -0.91872  -0.89637  -0.89406  -0.89260
 Alpha  occ. eigenvalues --   -0.89023  -0.88404  -0.88138  -0.87965  -0.87768
 Alpha  occ. eigenvalues --   -0.87695  -0.87578  -0.87388  -0.87040  -0.85061
 Alpha  occ. eigenvalues --   -0.84874  -0.84055  -0.83789  -0.83093  -0.82858
 Alpha  occ. eigenvalues --   -0.82733  -0.82532  -0.81650  -0.81427  -0.80682
 Alpha  occ. eigenvalues --   -0.80303  -0.78903  -0.78547  -0.77317  -0.77036
 Alpha  occ. eigenvalues --   -0.77008  -0.76757  -0.75995  -0.75697  -0.75001
 Alpha  occ. eigenvalues --   -0.74703  -0.72875  -0.72602  -0.71765  -0.71473
 Alpha  occ. eigenvalues --   -0.70038  -0.69680  -0.68958  -0.68705  -0.67740
 Alpha  occ. eigenvalues --   -0.67493  -0.67300  -0.67070  -0.65365  -0.65138
 Alpha  occ. eigenvalues --   -0.64944  -0.64707  -0.64659  -0.64513  -0.64382
 Alpha  occ. eigenvalues --   -0.64109  -0.62357  -0.62099  -0.60556  -0.60256
 Alpha  occ. eigenvalues --   -0.59886  -0.59679  -0.59084  -0.58886  -0.58599
 Alpha  occ. eigenvalues --   -0.58312  -0.57656  -0.57408  -0.57402  -0.57135
 Alpha  occ. eigenvalues --   -0.56406  -0.56101  -0.56027  -0.55706  -0.55621
 Alpha  occ. eigenvalues --   -0.55436  -0.55330  -0.55129  -0.54606  -0.54347
 Alpha  occ. eigenvalues --   -0.53968  -0.53781  -0.53403  -0.53310  -0.53126
 Alpha  occ. eigenvalues --   -0.53018  -0.52997  -0.52858  -0.52760  -0.52576
 Alpha  occ. eigenvalues --   -0.52569  -0.52321  -0.52005  -0.51783  -0.51696
 Alpha  occ. eigenvalues --   -0.51528  -0.51285  -0.51078  -0.50695  -0.50403
 Alpha  occ. eigenvalues --   -0.50151  -0.50025  -0.49882  -0.49786  -0.49604
 Alpha  occ. eigenvalues --   -0.49384  -0.49304  -0.49169  -0.49083  -0.48980
 Alpha  occ. eigenvalues --   -0.48669  -0.48575  -0.48538  -0.48421  -0.48287
 Alpha  occ. eigenvalues --   -0.48236  -0.47789  -0.47480  -0.47394  -0.47016
 Alpha  occ. eigenvalues --   -0.46897  -0.46629  -0.46604  -0.46461  -0.46425
 Alpha  occ. eigenvalues --   -0.46253  -0.46169  -0.45967  -0.45891  -0.45677
 Alpha  occ. eigenvalues --   -0.45312  -0.45119  -0.44658  -0.44614  -0.44386
 Alpha  occ. eigenvalues --   -0.44362  -0.44256  -0.44167  -0.44105  -0.44016
 Alpha  occ. eigenvalues --   -0.43976  -0.43824  -0.43564  -0.43479  -0.43386
 Alpha  occ. eigenvalues --   -0.43259  -0.43119  -0.42805  -0.42805  -0.42714
 Alpha  occ. eigenvalues --   -0.42706  -0.42471  -0.42115  -0.41858  -0.41795
 Alpha  occ. eigenvalues --   -0.41612  -0.41554  -0.41334  -0.41232  -0.40964
 Alpha  occ. eigenvalues --   -0.40938  -0.40884  -0.40678  -0.40626  -0.40585
 Alpha  occ. eigenvalues --   -0.40397  -0.40298  -0.40081  -0.39579  -0.39350
 Alpha  occ. eigenvalues --   -0.38579  -0.38259  -0.37817  -0.37503  -0.37430
 Alpha  occ. eigenvalues --   -0.37342  -0.37170  -0.37071  -0.36775  -0.36581
 Alpha  occ. eigenvalues --   -0.36271  -0.36084  -0.34388  -0.34151  -0.33822
 Alpha  occ. eigenvalues --   -0.33664  -0.33285  -0.33071  -0.31474  -0.31200
 Alpha  occ. eigenvalues --   -0.31136  -0.30871  -0.30102  -0.29826  -0.29559
 Alpha  occ. eigenvalues --   -0.29423  -0.29237  -0.29112  -0.24183  -0.23936
 Alpha  occ. eigenvalues --   -0.21232  -0.21021
 Alpha virt. eigenvalues --   -0.08879  -0.08696  -0.01859  -0.01591  -0.00167
 Alpha virt. eigenvalues --    0.00062   0.02106   0.02314   0.02969   0.03321
 Alpha virt. eigenvalues --    0.04631   0.04853   0.05053   0.05367   0.06124

 Mulliken charges:
               1
     1  Mg   0.837941
     2  C   -0.002891
     3  C   -0.093936
     4  C   -0.046242
     5  C   -0.064158
     6  N   -0.256808
     7  C   -0.052338
     8  C   -0.013961
     9  C   -0.086984
    10  C    0.046261
    11  C    0.104757
    12  C    0.053411
    13  C   -0.072142
    14  H    0.037079
    15  N   -0.433146
    16  C    0.168205
    17  C   -0.177141
    18  C   -0.004267
    19  C    0.148560
    20  C    0.110115
    21  C    0.011821
    22  O   -0.249968
    23  C    0.062663
    24  N   -0.341092
    25  C    0.041221
    26  C   -0.028152
    27  C   -0.023960
    28  C    0.074662
    29  C    0.076115
    30  C    0.035189
    31  C   -0.004488
    32  N   -0.310469
    33  C    0.080195
    34  C   -0.169935
    35  C    0.008555
    36  C    0.082683
    37  C    0.127321
    38  C    0.046120
    39  O   -0.187673
    40  C   -0.005291
    41  C    0.213095
    42  O   -0.257176
    43  O   -0.304833
    44  C    0.157364
    45  H   -0.017374
    46  H   -0.017058
    47  H   -0.041399
    48  H    0.001265
    49  H   -0.003855
    50  H    0.025637
    51  H    0.016366
    52  H    0.016899
    53  H    0.010989
    54  H    0.044260
    55  H    0.017982
    56  H    0.017927
    57  H    0.006152
    58  H    0.026942
    59  H    0.039232
    60  H    0.037720
    61  H    0.035268
    62  H    0.031012
    63  H    0.016043
    64  H    0.009804
    65  H    0.023126
    66  H    0.012763
    67  H    0.004999
    68  H    0.006462
    69  H    0.005077
    70  H    0.008293
    71  H    0.017679
    72  H    0.028641
    73  H    0.047759
    74  H    0.009066
    75  H    0.046395
    76  H    0.035453
    77  H    0.043370
    78  H    0.046485
    79  H    0.054336
    80  Mg   0.837676
    81  C   -0.016526
    82  C   -0.087808
    83  C   -0.045688
    84  C   -0.065144
    85  N   -0.254533
    86  C   -0.049760
    87  C   -0.014948
    88  C   -0.090448
    89  C    0.045740
    90  C    0.114407
    91  C    0.062633
    92  C   -0.078875
    93  H    0.037788
    94  N   -0.423431
    95  C    0.162806
    96  C   -0.174795
    97  C   -0.008060
    98  C    0.152049
    99  C    0.099437
   100  C    0.015397
   101  O   -0.253443
   102  C    0.061277
   103  N   -0.350097
   104  C    0.037441
   105  C   -0.019731
   106  C   -0.034833
   107  C    0.089025
   108  C    0.073740
   109  C    0.034776
   110  C   -0.007642
   111  N   -0.324170
   112  C    0.078600
   113  C   -0.163191
   114  C    0.002418
   115  C    0.096215
   116  C    0.131465
   117  C    0.042453
   118  O   -0.187280
   119  C    0.000985
   120  C    0.211444
   121  O   -0.250661
   122  O   -0.306220
   123  C    0.151403
   124  H   -0.019766
   125  H   -0.015865
   126  H   -0.040604
   127  H   -0.000514
   128  H   -0.004221
   129  H    0.022369
   130  H    0.014128
   131  H    0.016240
   132  H    0.013411
   133  H    0.038302
   134  H    0.020455
   135  H    0.019012
   136  H    0.008770
   137  H    0.025892
   138  H    0.039344
   139  H    0.038161
   140  H    0.036071
   141  H    0.033683
   142  H    0.014212
   143  H    0.012289
   144  H    0.024908
   145  H    0.011593
   146  H    0.005521
   147  H    0.006053
   148  H    0.003620
   149  H    0.010782
   150  H    0.017839
   151  H    0.030285
   152  H    0.046243
   153  H    0.008338
   154  H    0.046845
   155  H    0.034836
   156  H    0.044482
   157  H    0.050060
   158  H    0.055333
 Sum of Mulliken charges =  -0.00000

 Dipole moment (field-independent basis, Debye):
    X=             -3.0787    Y=              7.2430    Z=              1.3401  Tot=              7.9834
 Quadrupole moment (field-independent basis, Debye-Ang):
   XX=           -477.7965   YY=           -546.3354   ZZ=           -475.3103
   XY=            -22.9838   XZ=            -31.0536   YZ=              4.7038

 Normal termination of Gaussian 16 at Sun Sep 12 01:28:53 2021.
