 Gaussian 16, Revision A.03,
 Gaussian 16:  ES64L-G16RevA.03 25-Dec-2016

 -----------------------------------
 #p cam-b3lyp/Def2SVP td=(nstates=5)
 -----------------------------------

 --------------------------------
 TDDFT excited states in gaussian
 --------------------------------
 Symbolic Z-matrix:
 Charge =  0 Multiplicity = 1

                         Standard orientation:
 ---------------------------------------------------------------------
 Center     Atomic      Atomic             Coordinates (Angstroms)
 Number     Number       Type             X           Y           Z
 ---------------------------------------------------------------------
      1         12           0        4.135562   -1.150883    0.081155
      2          6           0        4.716913    1.839305   -1.798478
      3          6           0        5.174849    0.561142    2.843747
      4          6           0        4.064682   -3.892614    1.673169
      5          6           0        4.240948   -2.891946   -2.936005
      6          7           0        4.830795    0.932256    0.360132
      7          6           0        4.950294    1.994435   -0.430227
      8          6           0        5.273771    3.307261    0.343870
      9          6           0        5.938194    2.673686    1.647374
     10          6           0        5.248296    1.320952    1.638622
     11          6           0        7.442923    2.458466    1.520991
     12          6           0        3.984345    4.122524    0.696654
     13          6           0        4.227553    5.562377    1.158203
     14          1           0        3.270212    6.590490    0.778953
     15          7           0        4.085065   -1.503079    2.024414
     16          6           0        4.537264   -0.687706    3.007251
     17          6           0        4.274578   -1.396686    4.278087
     18          6           0        3.806670   -2.770642    3.944318
     19          6           0        3.994177   -2.785949    2.516038
     20          6           0        4.424134   -0.756071    5.623819
     21          6           0        3.284787   -3.895504    4.781250
     22          8           0        3.153916   -5.081344    4.321652
     23          6           0        3.010629   -3.588787    6.196808
     24          7           0        4.368528   -3.140445   -0.506215
     25          6           0        4.233169   -4.139724    0.372479
     26          6           0        4.160530   -5.468802   -0.319052
     27          6           0        4.030022   -5.149379   -1.878119
     28          6           0        4.138733   -3.605950   -1.812698
     29          6           0        5.351698   -6.409056   -0.088722
     30          6           0        2.824346   -5.772856   -2.625140
     31          6           0        1.537040   -5.153655   -2.128621
     32          7           0        4.247908   -0.632447   -2.023518
     33          6           0        4.302396   -1.519239   -3.108555
     34          6           0        4.480581   -0.704044   -4.324193
     35          6           0        4.534340    0.607762   -3.857159
     36          6           0        4.424691    0.609849   -2.437207
     37          6           0        4.628900   -1.203507   -5.648191
     38          6           0        4.683629    2.006368   -4.225225
     39          8           0        4.722044    2.623296   -5.290784
     40          6           0        4.930109    2.850339   -2.897525
     41          6           0        4.015880    4.044302   -2.941633
     42          8           0        2.777725    3.904910   -2.871571
     43          8           0        4.742833    5.165579   -2.819900
     44          6           0        3.893226    6.386350   -2.826427
     45          1           0        5.701869    0.922955    3.728780
     46          1           0        3.932670   -4.854749    2.172475
     47          1           0        4.197496   -3.359698   -3.921283
     48          1           0        5.985854    3.965145   -0.154677
     49          1           0        5.675065    3.227431    2.548402
     50          1           0        7.789948    2.656673    0.506984
     51          1           0        7.610558    1.413684    1.783333
     52          1           0        7.981957    3.044613    2.265739
     53          1           0        3.535205    3.711281    1.600653
     54          1           0        3.288212    4.125743   -0.142818
     55          1           0        5.244445    5.886202    0.934647
     56          1           0        4.168537    5.586798    2.246376
     57          1           0        4.940403    0.200753    5.556745
     58          1           0        5.096675   -1.387506    6.204068
     59          1           0        3.469646   -0.662086    6.141942
     60          1           0        3.926720   -3.238966    6.673201
     61          1           0        2.560216   -4.487176    6.617375
     62          1           0        2.302977   -2.760806    6.248045
     63          1           0        3.285556   -6.030864    0.004880
     64          1           0        4.898253   -5.494025   -2.440318
     65          1           0        5.070937   -7.378551    0.323539
     66          1           0        6.062908   -5.899166    0.560495
     67          1           0        5.961616   -6.598819   -0.971562
     68          1           0        2.764830   -6.841812   -2.423306
     69          1           0        2.873271   -5.641680   -3.706181
     70          1           0        1.318094   -5.732981   -1.232364
     71          1           0        0.747395   -5.270495   -2.871602
     72          1           0        1.686321   -4.118960   -1.819416
     73          1           0        4.008996   -0.571388   -6.283890
     74          1           0        4.326637   -2.248492   -5.713371
     75          1           0        5.700270   -1.068718   -5.796020
     76          1           0        5.980751    3.138900   -2.900032
     77          1           0        4.262570    7.030195   -3.624726
     78          1           0        3.909324    6.780520   -1.810171
     79          1           0        2.856134    6.250212   -3.135047
     80         12           0       -4.800267   -0.099562   -0.060122
     81          6           0       -2.131518    2.024320    1.056114
     82          6           0       -6.960394    2.352995    0.916319
     83          6           0       -7.185393   -2.117559   -0.613532
     84          6           0       -2.565951   -2.768079    0.120274
     85          7           0       -4.468040    1.886939    0.854054
     86          6           0       -3.407802    2.612708    1.175769
     87          6           0       -3.728697    4.077638    1.576495
     88          6           0       -5.252307    3.871826    2.040302
     89          6           0       -5.602100    2.648902    1.194857
     90          6           0       -5.389484    3.494344    3.505924
     91          6           0       -3.626491    5.065653    0.361844
     92          6           0       -3.623134    6.548986    0.737956
     93          1           0       -2.808536    7.466104   -0.054393
     94          7           0       -6.735154    0.244038   -0.337086
     95          6           0       -7.445914    1.301008    0.108894
     96          6           0       -8.828197    1.075002   -0.340970
     97          6           0       -8.908357   -0.281897   -0.946883
     98          6           0       -7.588749   -0.790326   -0.630321
     99          6           0       -9.895938    2.126153   -0.249189
    100          6           0       -9.997456   -1.007191   -1.677657
    101          8           0       -9.931206   -2.266382   -1.907578
    102          6           0      -11.185928   -0.218417   -2.033818
    103          7           0       -4.929755   -2.174172   -0.020855
    104          6           0       -6.071280   -2.802011   -0.353537
    105          6           0       -5.848953   -4.286385   -0.519711
    106          6           0       -4.263907   -4.492092   -0.465840
    107          6           0       -3.829801   -3.038526   -0.175855
    108          6           0       -6.513724   -5.179920    0.527214
    109          6           0       -3.609418   -5.234047   -1.663256
    110          6           0       -3.712234   -4.389020   -2.912553
    111          7           0       -2.683578   -0.333965    0.304243
    112          6           0       -1.956507   -1.543210    0.360432
    113          6           0       -0.572880   -1.201621    0.749433
    114          6           0       -0.596836    0.191242    0.916301
    115          6           0       -1.908031    0.680625    0.669759
    116          6           0        0.487942   -2.129272    0.950040
    117          6           0        0.186408    1.357563    1.255300
    118          8           0        1.378371    1.569931    1.474039
    119          6           0       -0.802075    2.581031    1.484230
    120          6           0       -0.261065    3.763136    0.727629
    121          8           0       -0.205413    3.746804   -0.514646
    122          8           0       -0.102975    4.794893    1.576668
    123          6           0        0.421251    5.994369    0.870782
    124          1           0       -7.731670    2.957452    1.394476
    125          1           0       -7.945745   -2.845179   -0.906630
    126          1           0       -1.785873   -3.532184    0.102677
    127          1           0       -3.138467    4.463234    2.399127
    128          1           0       -5.869507    4.720437    1.756965
    129          1           0       -4.430007    3.310638    3.966150
    130          1           0       -5.995302    2.597834    3.523329
    131          1           0       -5.964210    4.256860    4.039386
    132          1           0       -4.558639    5.020428   -0.215916
    133          1           0       -2.766075    4.843231   -0.238854
    134          1           0       -3.442913    6.702269    1.808922
    135          1           0       -4.626165    6.950624    0.574786
    136          1           0       -9.584702    2.960859    0.390977
    137          1           0      -10.741940    1.677041    0.282270
    138          1           0      -10.235566    2.468268   -1.229132
    139          1           0      -11.628048    0.196202   -1.130995
    140          1           0      -11.812689   -0.886340   -2.627896
    141          1           0      -10.870183    0.631784   -2.648704
    142          1           0       -6.215082   -4.627094   -1.480432
    143          1           0       -3.960096   -5.090570    0.405570
    144          1           0       -7.192725   -5.935332    0.088593
    145          1           0       -7.047320   -4.548778    1.225415
    146          1           0       -5.826923   -5.716753    1.179384
    147          1           0       -4.145632   -6.163072   -1.871950
    148          1           0       -2.569571   -5.493333   -1.494519
    149          1           0       -4.719332   -4.610678   -3.278223
    150          1           0       -2.955606   -4.682991   -3.637214
    151          1           0       -3.677654   -3.320763   -2.669060
    152          1           0        1.364977   -1.706007    0.478693
    153          1           0        0.245587   -3.105947    0.536334
    154          1           0        0.529335   -2.144982    2.042422
    155          1           0       -0.848369    2.768362    2.557702
    156          1           0        1.333984    6.298550    1.392386
    157          1           0       -0.414112    6.719345    0.852914
    158          1           0        0.789724    5.860204   -0.139503
 ---------------------------------------------------------------------

 SCF Done:  E(RCAM-B3LYP) =  -4069.81448327     A.U. after   18 cycles

 Excitation energies and oscillator strengths:

 Excited State   1:      Singlet-A      1.6564 eV  748.53 nm  f=0.3904  <S**2>=0.000
     309 -> 315        0.14330
     311 -> 313        0.58225
     312 -> 314        0.36443
 This state for optimization and/or second-order correction.
 Total Energy, E(TD-HF/TD-DFT) =  -4069.75361309
 Copying the excited state density for this state as the 1-particle RhoCI density.

 Excited State   2:      Singlet-A      1.6817 eV  737.26 nm  f=0.4207  <S**2>=0.000
     310 -> 316        0.14593
     311 -> 313       -0.36333
     312 -> 314        0.58105

 Excited State   3:      Singlet-A      2.0688 eV  599.31 nm  f=0.0001  <S**2>=0.000
     312 -> 313        0.70341

 Excited State   4:      Singlet-A      2.1634 eV  573.11 nm  f=0.0015  <S**2>=0.000
     309 -> 313       -0.43365
     310 -> 314        0.48301
     311 -> 315        0.17346
     312 -> 316       -0.18909

 Excited State   5:      Singlet-A      2.1865 eV  567.04 nm  f=0.1673  <S**2>=0.000
     309 -> 313        0.47721
     310 -> 314        0.42707
     311 -> 315       -0.20272
     312 -> 316       -0.18356

 The electronic state is 1-A.
 Alpha  occ. eigenvalues --  -46.87721 -46.86815 -19.26274 -19.25517 -19.18935
 Alpha  occ. eigenvalues --  -19.18802 -19.18785 -19.18235 -19.18050 -19.17381
 Alpha  occ. eigenvalues --  -14.42556 -14.41416 -14.41397 -14.40606 -14.39428
 Alpha  occ. eigenvalues --  -14.38685 -14.38407 -14.37684 -10.38892 -10.38120
 Alpha  occ. eigenvalues --  -10.35459 -10.34881 -10.34659 -10.33589 -10.31568
 Alpha  occ. eigenvalues --  -10.31412 -10.31172 -10.31072 -10.30500 -10.30481
 Alpha  occ. eigenvalues --  -10.30413 -10.30154 -10.29978 -10.29933 -10.29680
 Alpha  occ. eigenvalues --  -10.29643 -10.29517 -10.29507 -10.29472 -10.29192
 Alpha  occ. eigenvalues --  -10.28853 -10.28757 -10.28636 -10.28502 -10.28424
 Alpha  occ. eigenvalues --  -10.28206 -10.28156 -10.28124 -10.27823 -10.27747
 Alpha  occ. eigenvalues --  -10.27571 -10.27553 -10.27537 -10.27500 -10.27457
 Alpha  occ. eigenvalues --  -10.27389 -10.27232 -10.27208 -10.27036 -10.26977
 Alpha  occ. eigenvalues --  -10.26959 -10.26811 -10.26807 -10.26788 -10.26652
 Alpha  occ. eigenvalues --  -10.26516 -10.26459 -10.26316 -10.26314 -10.26123
 Alpha  occ. eigenvalues --  -10.26088 -10.25965 -10.25962 -10.25958 -10.25537
 Alpha  occ. eigenvalues --  -10.25485 -10.25403 -10.25230 -10.25188 -10.25056
 Alpha  occ. eigenvalues --  -10.25004 -10.24768 -10.24699 -10.24686 -10.24008
 Alpha  occ. eigenvalues --  -10.24003  -3.16469  -3.15506  -1.91350  -1.90939
 Alpha  occ. eigenvalues --   -1.90777  -1.90394  -1.89972  -1.89819  -1.16527
 Alpha  occ. eigenvalues --   -1.15831  -1.09218  -1.07836  -1.07034  -1.06747
 Alpha  occ. eigenvalues --   -1.06657  -1.05697  -1.04566  -1.03738  -1.03584
 Alpha  occ. eigenvalues --   -1.03112  -1.02885  -1.02353  -1.02193  -1.01538
 Alpha  occ. eigenvalues --   -0.92096  -0.91103  -0.89534  -0.89203  -0.88948
 Alpha  occ. eigenvalues --   -0.88267  -0.88246  -0.88016  -0.87742  -0.87679
 Alpha  occ. eigenvalues --   -0.87204  -0.87087  -0.86788  -0.86547  -0.85050
 Alpha  occ. eigenvalues --   -0.84188  -0.83888  -0.83459  -0.82981  -0.82698
 Alpha  occ. eigenvalues --   -0.82395  -0.81911  -0.81643  -0.80856  -0.80495
 Alpha  occ. eigenvalues --   -0.79823  -0.78754  -0.78030  -0.77221  -0.76934
 Alpha  occ. eigenvalues --   -0.76589  -0.76234  -0.75900  -0.75170  -0.74838
 Alpha  occ. eigenvalues --   -0.74294  -0.72818  -0.71999  -0.71649  -0.70904
 Alpha  occ. eigenvalues --   -0.69756  -0.69497  -0.68894  -0.68113  -0.67696
 Alpha  occ. eigenvalues --   -0.67242  -0.66875  -0.66424  -0.65330  -0.64827
 Alpha  occ. eigenvalues --   -0.64688  -0.64442  -0.64234  -0.64073  -0.63911
 Alpha  occ. eigenvalues --   -0.63558  -0.62281  -0.61555  -0.60416  -0.59878
 Alpha  occ. eigenvalues --   -0.59738  -0.59078  -0.58896  -0.58505  -0.58205
 Alpha  occ. eigenvalues --   -0.57736  -0.57653  -0.57303  -0.56777  -0.56604
 Alpha  occ. eigenvalues --   -0.56308  -0.55910  -0.55569  -0.55535  -0.55295
 Alpha  occ. eigenvalues --   -0.55252  -0.54844  -0.54739  -0.54498  -0.53959
 Alpha  occ. eigenvalues --   -0.53860  -0.53338  -0.53197  -0.53010  -0.52885
 Alpha  occ. eigenvalues --   -0.52732  -0.52643  -0.52501  -0.52418  -0.52242
 Alpha  occ. eigenvalues --   -0.52203  -0.52079  -0.51895  -0.51726  -0.51378
 Alpha  occ. eigenvalues --   -0.51185  -0.50821  -0.50532  -0.50463  -0.50054
 Alpha  occ. eigenvalues --   -0.49965  -0.49942  -0.49551  -0.49548  -0.49342
 Alpha  occ. eigenvalues --   -0.49257  -0.49186  -0.48775  -0.48671  -0.48508
 Alpha  occ. eigenvalues --   -0.48443  -0.48411  -0.48337  -0.47934  -0.47799
 Alpha  occ. eigenvalues --   -0.47760  -0.47643  -0.47168  -0.47023  -0.46785
 Alpha  occ. eigenvalues --   -0.46607  -0.46575  -0.46353  -0.46217  -0.46093
 Alpha  occ. eigenvalues --   -0.45980  -0.45679  -0.45612  -0.45449  -0.45250
 Alpha  occ. eigenvalues --   -0.45093  -0.44779  -0.44579  -0.44531  -0.44275
 Alpha  occ. eigenvalues --   -0.44143  -0.44035  -0.43935  -0.43845  -0.43570
 Alpha  occ. eigenvalues --   -0.43535  -0.43450  -0.43307  -0.43271  -0.43002
 Alpha  occ. eigenvalues --   -0.42875  -0.42776  -0.42611  -0.42585  -0.42372
 Alpha  occ. eigenvalues --   -0.42116  -0.42015  -0.41925  -0.41830  -0.41496
 Alpha  occ. eigenvalues --   -0.41377  -0.41092  -0.40917  -0.40777  -0.40766
 Alpha  occ. eigenvalues --   -0.40738  -0.40528  -0.40375  -0.40238  -0.40226
 Alpha  occ. eigenvalues --   -0.40190  -0.39892  -0.39416  -0.39259  -0.39044
 Alpha  occ. eigenvalues --   -0.38368  -0.37872  -0.37677  -0.37290  -0.37263
 Alpha  occ. eigenvalues --   -0.37046  -0.36632  -0.36561  -0.36364  -0.36134
 Alpha  occ. eigenvalues --   -0.35919  -0.35394  -0.34335  -0.33660  -0.33405
 Alpha  occ. eigenvalues --   -0.33205  -0.32784  -0.32308  -0.31338  -0.31033
 Alpha  occ. eigenvalues --   -0.30766  -0.30497  -0.30167  -0.29463  -0.29351
 Alpha  occ. eigenvalues --   -0.29232  -0.28620  -0.28480  -0.24097  -0.23146
 Alpha  occ. eigenvalues --   -0.21201  -0.20267
 Alpha virt. eigenvalues --   -0.08904  -0.07926  -0.01743  -0.00922  -0.00146
 Alpha virt. eigenvalues --    0.00741   0.01950   0.02971   0.03275   0.04666
 Alpha virt. eigenvalues --    0.04901   0.05283   0.05465   0.05961   0.06177

 Mulliken charges:
               1
     1  Mg   0.769516
     2  C    0.006011
     3  C   -0.088088
     4  C   -0.052589
     5  C   -0.064777
     6  N   -0.252800
     7  C   -0.041027
     8  C   -0.016531
     9  C   -0.092155
    10  C    0.066198
    11  C    0.105602
    12  C    0.052709
    13  C   -0.075116
    14  H    0.021339
    15  N   -0.423588
    16  C    0.180013
    17  C   -0.179118
    18  C   -0.008099
    19  C    0.146093
    20  C    0.112177
    21  C    0.008503
    22  O   -0.253228
    23  C    0.063667
    24  N   -0.333953
    25  C    0.042716
    26  C   -0.026787
    27  C   -0.023247
    28  C    0.072050
    29  C    0.076954
    30  C    0.037809
    31  C   -0.014030
    32  N   -0.305993
    33  C    0.079360
    34  C   -0.171440
    35  C    0.007215
    36  C    0.086273
    37  C    0.127643
    38  C    0.047745
    39  O   -0.191038
    40  C   -0.009101
    41  C    0.208905
    42  O   -0.244549
    43  O   -0.306576
    44  C    0.157374
    45  H   -0.021817
    46  H   -0.021758
    47  H   -0.045602
    48  H   -0.003355
    49  H   -0.005530
    50  H    0.024049
    51  H    0.015868
    52  H    0.013626
    53  H    0.025322
    54  H    0.050155
    55  H    0.015471
    56  H    0.019011
    57  H    0.005832
    58  H    0.023959
    59  H    0.037660
    60  H    0.037162
    61  H    0.032801
    62  H    0.030132
    63  H    0.012160
    64  H    0.008644
    65  H    0.020914
    66  H    0.013457
    67  H    0.003553
    68  H    0.004511
    69  H    0.004565
    70  H    0.006803
    71  H    0.016755
    72  H    0.033543
    73  H    0.046406
    74  H    0.006920
    75  H    0.044227
    76  H    0.032594
    77  H    0.040739
    78  H    0.042481
    79  H    0.055426
    80  Mg   0.840903
    81  C   -0.016262
    82  C   -0.087875
    83  C   -0.045337
    84  C   -0.066106
    85  N   -0.254838
    86  C   -0.050082
    87  C   -0.015366
    88  C   -0.090629
    89  C    0.046687
    90  C    0.114503
    91  C    0.062325
    92  C   -0.077709
    93  H    0.035682
    94  N   -0.423562
    95  C    0.163963
    96  C   -0.174243
    97  C   -0.007256
    98  C    0.152722
    99  C    0.099276
   100  C    0.016051
   101  O   -0.252565
   102  C    0.060966
   103  N   -0.350130
   104  C    0.038191
   105  C   -0.020188
   106  C   -0.034816
   107  C    0.087959
   108  C    0.073468
   109  C    0.033213
   110  C   -0.007693
   111  N   -0.324132
   112  C    0.079847
   113  C   -0.170401
   114  C    0.000014
   115  C    0.100251
   116  C    0.137923
   117  C    0.059340
   118  O   -0.184247
   119  C    0.003345
   120  C    0.211567
   121  O   -0.236555
   122  O   -0.310983
   123  C    0.150615
   124  H   -0.019538
   125  H   -0.015108
   126  H   -0.037672
   127  H   -0.001601
   128  H   -0.003948
   129  H    0.021641
   130  H    0.014393
   131  H    0.016290
   132  H    0.014217
   133  H    0.040859
   134  H    0.019575
   135  H    0.019354
   136  H    0.009023
   137  H    0.026418
   138  H    0.040554
   139  H    0.038237
   140  H    0.036817
   141  H    0.034377
   142  H    0.014730
   143  H    0.013651
   144  H    0.025280
   145  H    0.011355
   146  H    0.006526
   147  H    0.005904
   148  H    0.005849
   149  H    0.010657
   150  H    0.017677
   151  H    0.030923
   152  H    0.058006
   153  H    0.014797
   154  H    0.057311
   155  H    0.033062
   156  H    0.036783
   157  H    0.045572
   158  H    0.061463
 Sum of Mulliken charges =  -0.00000

 Dipole moment (field-independent basis, Debye):
    X=             -2.8377    Y=              2.8940    Z=              5.7364  Tot=              7.0239
 Quadrupole moment (field-independent basis, Debye-Ang):
   XX=           -484.7378   YY=           -475.0004   ZZ=           -518.3613
   XY=            -26.2352   XZ=              7.4793   YZ=             38.2668

 Normal termination of Gaussian 16 at Thu Sep  9 22:29:28 2021.
