 Gaussian 16, Revision A.03,
 Gaussian 16:  ES64L-G16RevA.03 25-Dec-2016

 -----------------------------------
 #p cam-b3lyp/Def2SVP td=(nstates=5)
 -----------------------------------

 --------------------------------
 TDDFT excited states in gaussian
 --------------------------------
 Symbolic Z-matrix:
 Charge =  0 Multiplicity = 1

                         Standard orientation:
 ---------------------------------------------------------------------
 Center     Atomic      Atomic             Coordinates (Angstroms)
 Number     Number       Type             X           Y           Z
 ---------------------------------------------------------------------
      1         12           0       -6.504122    0.611944    0.564843
      2          6           0       -6.974813   -1.928463   -1.912453
      3          6           0       -7.169568   -1.768075    2.917662
      4          6           0       -6.542000    2.923579    2.735448
      5          6           0       -6.998247    2.960527   -1.962143
      6          7           0       -6.993803   -1.540607    0.399367
      7          6           0       -7.084358   -2.406897   -0.604881
      8          6           0       -7.231446   -3.884891   -0.134484
      9          6           0       -7.841836   -3.627915    1.315821
     10          6           0       -7.273329   -2.244246    1.576944
     11          6           0       -9.364743   -3.543883    1.329772
     12          6           0       -5.852903   -4.622969   -0.053317
     13          6           0       -5.934269   -6.146472    0.079624
     14          1           0       -4.925567   -6.961840   -0.579953
     15          7           0       -6.329446    0.526371    2.530807
     16          6           0       -6.630395   -0.528763    3.325419
     17          6           0       -6.329106   -0.097280    4.707349
     18          6           0       -6.008761    1.356717    4.670418
     19          6           0       -6.310008    1.670192    3.296969
     20          6           0       -6.315579   -1.032946    5.877005
     21          6           0       -5.520251    2.314281    5.710881
     22          8           0       -5.528521    3.579641    5.528204
     23          6           0       -5.108981    1.729867    7.000206
     24          7           0       -6.952799    2.648114    0.463190
     25          6           0       -6.834069    3.435376    1.537948
     26          6           0       -6.930915    4.885300    1.166085
     27          6           0       -6.898051    4.935578   -0.429579
     28          6           0       -6.868504    3.413402   -0.713087
     29          6           0       -8.176164    5.624859    1.674435
     30          6           0       -5.813574    5.828686   -1.082792
     31          6           0       -4.442499    5.248536   -0.816942
     32          7           0       -6.738825    0.565944   -1.592434
     33          6           0       -6.955343    1.661618   -2.440544
     34          6           0       -7.159210    1.123447   -3.798070
     35          6           0       -7.062968   -0.257881   -3.641494
     36          6           0       -6.840841   -0.564589   -2.268584
     37          6           0       -7.454738    1.887170   -4.961610
     38          6           0       -7.120648   -1.547336   -4.310700
     39          8           0       -7.190752   -1.912447   -5.485124
     40          6           0       -7.187382   -2.686016   -3.199493
     41          6           0       -6.180596   -3.741119   -3.568884
     42          8           0       -4.957315   -3.495837   -3.540869
     43          8           0       -6.796749   -4.929246   -3.665072
     44          6           0       -5.848852   -6.025261   -4.000325
     45          1           0       -7.591491   -2.369256    3.725440
     46          1           0       -6.453614    3.758866    3.433247
     47          1           0       -7.073634    3.637634   -2.814959
     48          1           0       -7.921938   -4.484220   -0.728159
     49          1           0       -7.461309   -4.338543    2.049259
     50          1           0       -9.773126   -3.545777    0.319257
     51          1           0       -9.599898   -2.606176    1.833657
     52          1           0       -9.790536   -4.332609    1.950568
     53          1           0       -5.370125   -4.379669    0.893145
     54          1           0       -5.228110   -4.368706   -0.910237
     55          1           0       -6.934218   -6.513987   -0.152632
     56          1           0       -5.786928   -6.406185    1.127975
     57          1           0       -6.751624   -1.998228    5.622760
     58          1           0       -6.991430   -0.618008    6.624508
     59          1           0       -5.318337   -1.142413    6.303453
     60          1           0       -5.950865    1.191700    7.436275
     61          1           0       -4.705187    2.553179    7.588388
     62          1           0       -4.331135    0.987460    6.819271
     63          1           0       -6.084339    5.447088    1.558677
     64          1           0       -7.834623    5.306659   -0.846477
     65          1           0       -7.947613    6.501743    2.280689
     66          1           0       -8.787093    4.913843    2.229875
     67          1           0       -8.868449    5.943297    0.895491
     68          1           0       -5.830029    6.826353   -0.645372
     69          1           0       -5.936989    5.936962   -2.160426
     70          1           0       -4.203359    5.633170    0.173866
     71          1           0       -3.727446    5.607247   -1.558048
     72          1           0       -4.477443    4.161315   -0.744724
     73          1           0       -6.835519    1.478557   -5.760091
     74          1           0       -7.249317    2.945624   -4.803248
     75          1           0       -8.518967    1.680581   -5.073833
     76          1           0       -8.206274   -3.071927   -3.206922
     77          1           0       -6.224028   -6.509511   -4.901979
     78          1           0       -5.750139   -6.635133   -3.102151
     79          1           0       -4.855123   -5.719324   -4.329331
     80         12           0        6.667936    0.506140   -0.736926
     81          6           0        6.681200   -2.127541    1.700817
     82          6           0        6.059095    2.672753    1.826222
     83          6           0        6.203288    2.779722   -2.900794
     84          6           0        6.137652   -1.934672   -3.167341
     85          7           0        6.423478    0.192804    1.438927
     86          6           0        6.510343   -0.843584    2.259108
     87          6           0        6.488784   -0.474324    3.766666
     88          6           0        5.726156    0.934751    3.658224
     89          6           0        6.117831    1.315536    2.231950
     90          6           0        4.213186    0.806531    3.719978
     91          6           0        7.930896   -0.302747    4.360707
     92          6           0        7.994591   -0.247174    5.888654
     93          1           0        9.143238   -0.849415    6.559767
     94          7           0        6.686804    2.481665   -0.548422
     95          6           0        6.439265    3.194733    0.570295
     96          6           0        6.557638    4.608383    0.180755
     97          6           0        6.732872    4.675042   -1.295573
     98          6           0        6.522347    3.285497   -1.649022
     99          6           0        6.580005    5.728584    1.179801
    100          6           0        7.026955    5.804901   -2.235323
    101          8           0        6.900708    5.675527   -3.504243
    102          6           0        7.376803    7.094132   -1.621339
    103          7           0        6.023696    0.461351   -2.713102
    104          6           0        5.960518    1.587306   -3.445335
    105          6           0        5.738058    1.276199   -4.906191
    106          6           0        5.907161   -0.308561   -5.038561
    107          6           0        6.119242   -0.665553   -3.550954
    108          6           0        4.382159    1.692419   -5.476004
    109          6           0        6.942430   -0.821593   -6.076673
    110          6           0        8.340993   -0.454196   -5.635720
    111          7           0        6.629267   -1.653427   -0.789984
    112          6           0        6.363037   -2.474571   -1.907541
    113          6           0        6.334894   -3.870631   -1.425180
    114          6           0        6.565697   -3.762145   -0.045526
    115          6           0        6.706274   -2.393543    0.310365
    116          6           0        6.070280   -5.020616   -2.221177
    117          6           0        6.711816   -4.493470    1.192417
    118          8           0        6.774273   -5.684191    1.495757
    119          6           0        6.667259   -3.459281    2.398598
    120          6           0        7.808883   -3.776796    3.325092
    121          8           0        8.985917   -3.635360    2.949357
    122          8           0        7.326346   -3.984801    4.563748
    123          6           0        8.422082   -4.292474    5.521116
    124          1           0        5.643115    3.404057    2.519786
    125          1           0        6.141491    3.516332   -3.705204
    126          1           0        6.075740   -2.760627   -3.879131
    127          1           0        5.924876   -1.155064    4.393070
    128          1           0        6.124324    1.655041    4.368174
    129          1           0        3.895494   -0.225492    3.707812
    130          1           0        3.837976    1.328177    2.849261
    131          1           0        3.824023    1.348273    4.586802
    132          1           0        8.299752    0.702757    4.120596
    133          1           0        8.585739   -1.071711    3.999473
    134          1           0        7.059086   -0.582527    6.352674
    135          1           0        8.085823    0.797926    6.194385
    136          1           0        6.265847    5.387314    2.173908
    137          1           0        5.803815    6.440648    0.879215
    138          1           0        7.541263    6.245947    1.211068
    139          1           0        6.564445    7.418822   -0.975507
    140          1           0        7.639169    7.751892   -2.452238
    141          1           0        8.251735    6.949209   -0.977833
    142          1           0        6.484159    1.761963   -5.523015
    143          1           0        4.969770   -0.793944   -5.347665
    144          1           0        4.464059    2.369878   -6.346873
    145          1           0        3.807789    2.156978   -4.685543
    146          1           0        3.736106    0.869957   -5.778282
    147          1           0        6.783562   -0.335082   -7.042186
    148          1           0        6.892512   -1.892410   -6.243536
    149          1           0        8.446936    0.577220   -5.985073
    150          1           0        9.074420   -1.107053   -6.104658
    151          1           0        8.418331   -0.441469   -4.542332
    152          1           0        6.787919   -5.774852   -1.926847
    153          1           0        6.142886   -4.794493   -3.282958
    154          1           0        5.042619   -5.236283   -1.916759
    155          1           0        5.699280   -3.569406    2.888959
    156          1           0        8.175756   -5.249229    5.991883
    157          1           0        8.496740   -3.409604    6.183470
    158          1           0        9.401917   -4.505173    5.109883
 ---------------------------------------------------------------------

 SCF Done:  E(RCAM-B3LYP) =  -4069.81189315     A.U. after   19 cycles

 Excitation energies and oscillator strengths:

 Excited State   1:      Singlet-A      1.6745 eV  740.43 nm  f=0.3664  <S**2>=0.000
     310 -> 316        0.17122
     311 -> 313       -0.10939
     312 -> 314        0.67725
     310 <- 316        0.10331
 This state for optimization and/or second-order correction.
 Total Energy, E(TD-HF/TD-DFT) =  -4069.75035651
 Copying the excited state density for this state as the 1-particle RhoCI density.

 Excited State   2:      Singlet-A      1.6791 eV  738.40 nm  f=0.3646  <S**2>=0.000
     309 -> 315        0.17282
     311 -> 313        0.67689
     312 -> 314        0.10946
     309 <- 315        0.10353

 Excited State   3:      Singlet-A      2.1856 eV  567.29 nm  f=0.1016  <S**2>=0.000
     310 -> 314        0.64207
     312 -> 316       -0.27264

 Excited State   4:      Singlet-A      2.1919 eV  565.64 nm  f=0.0974  <S**2>=0.000
     309 -> 313        0.64028
     311 -> 315       -0.27750

 Excited State   5:      Singlet-A      2.6503 eV  467.82 nm  f=0.0000  <S**2>=0.000
     312 -> 313        0.70710

 The electronic state is 1-A.
 Alpha  occ. eigenvalues --  -46.87854 -46.87558 -19.26321 -19.26308 -19.19119
 Alpha  occ. eigenvalues --  -19.19052 -19.18905 -19.18624 -19.18219 -19.17979
 Alpha  occ. eigenvalues --  -14.42502 -14.42400 -14.41508 -14.41248 -14.39463
 Alpha  occ. eigenvalues --  -14.39252 -14.38642 -14.38499 -10.39112 -10.39047
 Alpha  occ. eigenvalues --  -10.35540 -10.35302 -10.34438 -10.34157 -10.31744
 Alpha  occ. eigenvalues --  -10.31691 -10.31450 -10.31217 -10.30959 -10.30935
 Alpha  occ. eigenvalues --  -10.30622 -10.30568 -10.30296 -10.30270 -10.30264
 Alpha  occ. eigenvalues --  -10.30022 -10.29980 -10.29779 -10.29691 -10.29332
 Alpha  occ. eigenvalues --  -10.29316 -10.29304 -10.28776 -10.28656 -10.28624
 Alpha  occ. eigenvalues --  -10.28526 -10.28421 -10.28311 -10.28146 -10.28069
 Alpha  occ. eigenvalues --  -10.27905 -10.27850 -10.27778 -10.27648 -10.27571
 Alpha  occ. eigenvalues --  -10.27566 -10.27544 -10.27518 -10.27456 -10.27390
 Alpha  occ. eigenvalues --  -10.27379 -10.27370 -10.27367 -10.27227 -10.27200
 Alpha  occ. eigenvalues --  -10.26986 -10.26716 -10.26643 -10.26519 -10.26337
 Alpha  occ. eigenvalues --  -10.26262 -10.26253 -10.26077 -10.26000 -10.25955
 Alpha  occ. eigenvalues --  -10.25893 -10.25820 -10.25745 -10.25502 -10.25206
 Alpha  occ. eigenvalues --  -10.24889 -10.24849 -10.24779 -10.24765 -10.24612
 Alpha  occ. eigenvalues --  -10.24583  -3.16597  -3.16307  -1.91478  -1.91190
 Alpha  occ. eigenvalues --   -1.91065  -1.90907  -1.90778  -1.90615  -1.16658
 Alpha  occ. eigenvalues --   -1.16611  -1.08675  -1.08590  -1.07308  -1.06905
 Alpha  occ. eigenvalues --   -1.06876  -1.06673  -1.04632  -1.04401  -1.03818
 Alpha  occ. eigenvalues --   -1.03561  -1.03292  -1.02931  -1.02468  -1.02007
 Alpha  occ. eigenvalues --   -0.92023  -0.91899  -0.89581  -0.89379  -0.89218
 Alpha  occ. eigenvalues --   -0.89078  -0.88349  -0.88093  -0.87923  -0.87721
 Alpha  occ. eigenvalues --   -0.87695  -0.87587  -0.87344  -0.87028  -0.85020
 Alpha  occ. eigenvalues --   -0.84922  -0.84000  -0.83752  -0.83048  -0.82834
 Alpha  occ. eigenvalues --   -0.82695  -0.82573  -0.81625  -0.81528  -0.80647
 Alpha  occ. eigenvalues --   -0.80362  -0.78859  -0.78540  -0.77269  -0.77056
 Alpha  occ. eigenvalues --   -0.76971  -0.76813  -0.75962  -0.75764  -0.74956
 Alpha  occ. eigenvalues --   -0.74679  -0.72829  -0.72598  -0.71723  -0.71479
 Alpha  occ. eigenvalues --   -0.69973  -0.69629  -0.68917  -0.68748  -0.67699
 Alpha  occ. eigenvalues --   -0.67509  -0.67258  -0.67129  -0.65324  -0.65197
 Alpha  occ. eigenvalues --   -0.64904  -0.64677  -0.64667  -0.64571  -0.64329
 Alpha  occ. eigenvalues --   -0.64087  -0.62337  -0.62210  -0.60510  -0.60238
 Alpha  occ. eigenvalues --   -0.59844  -0.59716  -0.59041  -0.58894  -0.58557
 Alpha  occ. eigenvalues --   -0.58332  -0.57628  -0.57486  -0.57367  -0.57133
 Alpha  occ. eigenvalues --   -0.56365  -0.56115  -0.56011  -0.55827  -0.55582
 Alpha  occ. eigenvalues --   -0.55394  -0.55375  -0.55143  -0.54572  -0.54392
 Alpha  occ. eigenvalues --   -0.53927  -0.53841  -0.53361  -0.53272  -0.53132
 Alpha  occ. eigenvalues --   -0.53063  -0.52964  -0.52826  -0.52817  -0.52587
 Alpha  occ. eigenvalues --   -0.52505  -0.52280  -0.51966  -0.51785  -0.51659
 Alpha  occ. eigenvalues --   -0.51587  -0.51245  -0.51114  -0.50651  -0.50384
 Alpha  occ. eigenvalues --   -0.50094  -0.49984  -0.49893  -0.49743  -0.49566
 Alpha  occ. eigenvalues --   -0.49406  -0.49268  -0.49133  -0.49124  -0.49027
 Alpha  occ. eigenvalues --   -0.48636  -0.48532  -0.48504  -0.48482  -0.48265
 Alpha  occ. eigenvalues --   -0.48244  -0.47747  -0.47506  -0.47354  -0.47018
 Alpha  occ. eigenvalues --   -0.46849  -0.46610  -0.46590  -0.46476  -0.46415
 Alpha  occ. eigenvalues --   -0.46214  -0.46170  -0.45979  -0.45863  -0.45742
 Alpha  occ. eigenvalues --   -0.45263  -0.45081  -0.44626  -0.44566  -0.44435
 Alpha  occ. eigenvalues --   -0.44392  -0.44205  -0.44127  -0.44073  -0.44046
 Alpha  occ. eigenvalues --   -0.43977  -0.43861  -0.43537  -0.43483  -0.43433
 Alpha  occ. eigenvalues --   -0.43296  -0.43078  -0.42872  -0.42808  -0.42750
 Alpha  occ. eigenvalues --   -0.42700  -0.42438  -0.42062  -0.41866  -0.41756
 Alpha  occ. eigenvalues --   -0.41581  -0.41569  -0.41375  -0.41190  -0.40918
 Alpha  occ. eigenvalues --   -0.40894  -0.40892  -0.40641  -0.40627  -0.40615
 Alpha  occ. eigenvalues --   -0.40375  -0.40257  -0.40167  -0.39509  -0.39298
 Alpha  occ. eigenvalues --   -0.38526  -0.38229  -0.37775  -0.37587  -0.37378
 Alpha  occ. eigenvalues --   -0.37301  -0.37156  -0.37115  -0.36753  -0.36713
 Alpha  occ. eigenvalues --   -0.36238  -0.36116  -0.34340  -0.34155  -0.33809
 Alpha  occ. eigenvalues --   -0.33807  -0.33241  -0.33075  -0.31433  -0.31182
 Alpha  occ. eigenvalues --   -0.31091  -0.30875  -0.30077  -0.29885  -0.29513
 Alpha  occ. eigenvalues --   -0.29379  -0.29232  -0.29116  -0.24135  -0.23934
 Alpha  occ. eigenvalues --   -0.21184  -0.21015
 Alpha virt. eigenvalues --   -0.08833  -0.08694  -0.01810  -0.01579  -0.00125
 Alpha virt. eigenvalues --    0.00060   0.02144   0.02298   0.03056   0.03319
 Alpha virt. eigenvalues --    0.04677   0.04820   0.05064   0.05213   0.06162

 Mulliken charges:
               1
     1  Mg   0.838647
     2  C   -0.002909
     3  C   -0.093907
     4  C   -0.046133
     5  C   -0.063982
     6  N   -0.256813
     7  C   -0.052293
     8  C   -0.014030
     9  C   -0.087004
    10  C    0.046290
    11  C    0.104777
    12  C    0.053384
    13  C   -0.072137
    14  H    0.036896
    15  N   -0.433105
    16  C    0.168280
    17  C   -0.177155
    18  C   -0.004289
    19  C    0.148650
    20  C    0.110124
    21  C    0.011859
    22  O   -0.250048
    23  C    0.062657
    24  N   -0.341158
    25  C    0.041277
    26  C   -0.028122
    27  C   -0.023979
    28  C    0.074839
    29  C    0.076177
    30  C    0.035154
    31  C   -0.004496
    32  N   -0.310519
    33  C    0.080484
    34  C   -0.169677
    35  C    0.008405
    36  C    0.082990
    37  C    0.127311
    38  C    0.046127
    39  O   -0.188276
    40  C   -0.005308
    41  C    0.212913
    42  O   -0.257185
    43  O   -0.304751
    44  C    0.157664
    45  H   -0.017429
    46  H   -0.017128
    47  H   -0.041404
    48  H    0.001071
    49  H   -0.003764
    50  H    0.025510
    51  H    0.016346
    52  H    0.016863
    53  H    0.011289
    54  H    0.044099
    55  H    0.017845
    56  H    0.018227
    57  H    0.006200
    58  H    0.026826
    59  H    0.039299
    60  H    0.037698
    61  H    0.035052
    62  H    0.031060
    63  H    0.016131
    64  H    0.009595
    65  H    0.023012
    66  H    0.012646
    67  H    0.004882
    68  H    0.006254
    69  H    0.004996
    70  H    0.008172
    71  H    0.018428
    72  H    0.028990
    73  H    0.047602
    74  H    0.009184
    75  H    0.046145
    76  H    0.035311
    77  H    0.043023
    78  H    0.046720
    79  H    0.053617
    80  Mg   0.838112
    81  C   -0.016984
    82  C   -0.087907
    83  C   -0.045376
    84  C   -0.064024
    85  N   -0.254566
    86  C   -0.049887
    87  C   -0.015082
    88  C   -0.090529
    89  C    0.045754
    90  C    0.114373
    91  C    0.062590
    92  C   -0.077686
    93  H    0.034537
    94  N   -0.423502
    95  C    0.162951
    96  C   -0.174619
    97  C   -0.007812
    98  C    0.152188
    99  C    0.099370
   100  C    0.015482
   101  O   -0.253124
   102  C    0.061241
   103  N   -0.349992
   104  C    0.037867
   105  C   -0.020100
   106  C   -0.034955
   107  C    0.088936
   108  C    0.073214
   109  C    0.034676
   110  C   -0.007633
   111  N   -0.324116
   112  C    0.078407
   113  C   -0.162854
   114  C    0.002069
   115  C    0.096321
   116  C    0.131489
   117  C    0.042282
   118  O   -0.188507
   119  C    0.000956
   120  C    0.211160
   121  O   -0.250999
   122  O   -0.305805
   123  C    0.152121
   124  H   -0.019662
   125  H   -0.015444
   126  H   -0.040034
   127  H   -0.001193
   128  H   -0.004516
   129  H    0.022022
   130  H    0.015101
   131  H    0.016005
   132  H    0.013991
   133  H    0.037605
   134  H    0.020396
   135  H    0.019591
   136  H    0.008735
   137  H    0.026171
   138  H    0.039551
   139  H    0.038201
   140  H    0.036226
   141  H    0.033762
   142  H    0.014136
   143  H    0.013747
   144  H    0.024928
   145  H    0.011983
   146  H    0.007397
   147  H    0.006499
   148  H    0.003749
   149  H    0.010817
   150  H    0.017671
   151  H    0.029829
   152  H    0.045549
   153  H    0.008766
   154  H    0.047385
   155  H    0.034561
   156  H    0.043480
   157  H    0.049390
   158  H    0.053569
 Sum of Mulliken charges =  -0.00000

 Dipole moment (field-independent basis, Debye):
    X=             -3.4930    Y=              1.9149    Z=              5.8077  Tot=              7.0426
 Quadrupole moment (field-independent basis, Debye-Ang):
   XX=           -519.4211   YY=           -502.0878   ZZ=           -496.7449
   XY=             39.2525   XZ=            -11.2527   YZ=             -2.9616

 Normal termination of Gaussian 16 at Sat Sep 11 11:12:52 2021.
