 Gaussian 16, Revision A.03,
 Gaussian 16:  ES64L-G16RevA.03 25-Dec-2016

 -----------------------------------
 #p cam-b3lyp/Def2SVP td=(nstates=5)
 -----------------------------------

 --------------------------------
 TDDFT excited states in gaussian
 --------------------------------
 Symbolic Z-matrix:
 Charge =  0 Multiplicity = 1

                         Standard orientation:
 ---------------------------------------------------------------------
 Center     Atomic      Atomic             Coordinates (Angstroms)
 Number     Number       Type             X           Y           Z
 ---------------------------------------------------------------------
      1         12           0        8.177824    0.372082    0.224527
      2          6           0        8.271417   -2.980052   -1.027132
      3          6           0        9.069842    1.406222   -2.902441
      4          6           0        8.544657    3.289534    1.412184
      5          6           0        8.413500   -0.975232    3.429969
      6          7           0        8.587896   -0.740893   -1.644637
      7          6           0        8.530577   -2.018732   -2.006594
      8          6           0        8.697223   -2.234421   -3.540570
      9          6           0        9.489738   -0.897964   -3.898059
     10          6           0        8.993721   -0.012018   -2.768904
     11          6           0       11.004188   -1.038442   -3.783123
     12          6           0        7.321079   -2.300835   -4.284578
     13          6           0        7.379372   -2.830926   -5.720182
     14          1           0        6.275905   -3.641560   -6.212707
     15          7           0        8.247055    2.125464   -0.683058
     16          6           0        8.617478    2.359788   -1.964918
     17          6           0        8.501657    3.820746   -2.162068
     18          6           0        8.216494    4.437536   -0.836796
     19          6           0        8.352380    3.296941    0.032662
     20          6           0        8.609886    4.481329   -3.502092
     21          6           0        7.885924    5.835460   -0.418866
     22          8           0        7.903749    6.201380    0.806025
     23          6           0        7.623509    6.800278   -1.502059
     24          7           0        8.662282    1.079988    2.127631
     25          6           0        8.698409    2.391535    2.387481
     26          6           0        8.785267    2.653875    3.861785
     27          6           0        8.555361    1.244295    4.575914
     28          6           0        8.451844    0.354022    3.312994
     29          6           0       10.102603    3.267460    4.355900
     30          6           0        7.421216    1.165971    5.628529
     31          6           0        6.079504    1.330990    4.950535
     32          7           0        8.140958   -1.615976    1.094764
     33          6           0        8.278186   -1.945366    2.450988
     34          6           0        8.297685   -3.417124    2.538255
     35          6           0        8.186386   -3.844319    1.216528
     36          6           0        8.129085   -2.711151    0.355750
     37          6           0        8.465535   -4.179257    3.727967
     38          6           0        8.127336   -4.994483    0.329121
     39          8           0        8.041369   -6.212415    0.492663
     40          6           0        8.302709   -4.481605   -1.168219
     41          6           0        7.231128   -5.132192   -1.999939
     42          8           0        6.027520   -4.852782   -1.824945
     43          8           0        7.799933   -5.793640   -3.019493
     44          6           0        6.789965   -6.437989   -3.900931
     45          1           0        9.573505    1.827996   -3.774433
     46          1           0        8.565195    4.278544    1.874650
     47          1           0        8.399451   -1.467118    4.404291
     48          1           0        9.292905   -3.105200   -3.815033
     49          1           0        9.185406   -0.489761   -4.861633
     50          1           0       11.283447   -1.998342   -3.348924
     51          1           0       11.324129   -0.220798   -3.136912
     52          1           0       11.483624   -0.864003   -4.746704
     53          1           0        6.966231   -1.287988   -4.475063
     54          1           0        6.601202   -2.887347   -3.712646
     55          1           0        8.332913   -3.317682   -5.926915
     56          1           0        7.357059   -1.979105   -6.399964
     57          1           0        8.986069    3.793583   -4.258424
     58          1           0        9.383903    5.244076   -3.419488
     59          1           0        7.671002    4.942121   -3.809501
     60          1           0        8.499081    6.862355   -2.148643
     61          1           0        7.317245    7.724697   -1.013694
     62          1           0        6.810464    6.422103   -2.122454
     63          1           0        8.008779    3.347389    4.181990
     64          1           0        9.441947    0.909417    5.114892
     65          1           0        9.973782    4.208951    4.890414
     66          1           0       10.759528    3.392864    3.495660
     67          1           0       10.700476    2.615150    4.991871
     68          1           0        7.517490    1.976065    6.350627
     69          1           0        7.412279    0.227205    6.182505
     70          1           0        5.975452    2.412918    4.876798
     71          1           0        5.287183    0.903620    5.565998
     72          1           0        6.095350    0.935190    3.934870
     73          1           0        7.741508   -4.992188    3.674145
     74          1           0        8.308556   -3.567126    4.615805
     75          1           0        9.501889   -4.498474    3.618755
     76          1           0        9.302550   -4.776270   -1.485416
     77          1           0        7.037499   -7.498392   -3.950998
     78          1           0        6.788242   -5.874210   -4.833966
     79          1           0        5.771167   -6.482516   -3.514401
     80         12           0       -7.699107    0.863917    0.303724
     81          6           0       -9.957679   -1.919029    0.121738
     82          6           0       -9.341290    2.180306   -2.380470
     83          6           0       -5.454277    3.101223    0.153289
     84          6           0       -5.573352   -1.162425    2.180112
     85          7           0       -9.413054    0.131482   -0.887138
     86          6           0      -10.229597   -0.909553   -0.825068
     87          6           0      -11.450173   -0.827483   -1.780589
     88          6           0      -10.833702    0.175741   -2.872548
     89          6           0       -9.821424    0.904399   -1.991070
     90          6           0      -10.076675   -0.534291   -3.982549
     91          6           0      -12.714274   -0.211981   -1.084007
     92          6           0      -14.023184   -0.385240   -1.857621
     93          1           0      -15.254924   -0.598237   -1.102685
     94          7           0       -7.708817    2.634735   -0.592191
     95          6           0       -8.454062    3.005091   -1.654606
     96          6           0       -8.078831    4.397932   -1.943330
     97          6           0       -6.932666    4.765963   -1.068363
     98          6           0       -6.634198    3.480206   -0.470176
     99          6           0       -8.837397    5.261583   -2.908790
    100          6           0       -6.214761    6.058245   -0.821736
    101          8           0       -5.094714    6.098254   -0.199874
    102          6           0       -6.814755    7.264291   -1.410760
    103          7           0       -5.699897    0.895893    0.873377
    104          6           0       -4.962619    2.013114    0.746256
    105          6           0       -3.644391    1.882158    1.471169
    106          6           0       -3.752102    0.529604    2.317674
    107          6           0       -5.140623    0.045435    1.845465
    108          6           0       -2.400147    1.829820    0.584877
    109          6           0       -3.484713    0.631647    3.844356
    110          6           0       -4.581403    1.433073    4.507965
    111          7           0       -7.806779   -1.103705    1.189674
    112          6           0       -6.793069   -1.770557    1.912020
    113          6           0       -7.293407   -3.127701    2.212424
    114          6           0       -8.564421   -3.164350    1.619412
    115          6           0       -8.828748   -1.924999    0.976276
    116          6           0       -6.576058   -4.144836    2.903045
    117          6           0       -9.738272   -3.973358    1.382146
    118          8           0      -10.121368   -5.079989    1.759436
    119          6           0      -10.640856   -3.247293    0.293779
    120          6           0      -12.059749   -3.245911    0.793052
    121          8           0      -12.371060   -2.602433    1.810703
    122          8           0      -12.851969   -3.822218   -0.129255
    123          6           0      -14.271050   -3.834601    0.315555
    124          1           0       -9.638037    2.571341   -3.354080
    125          1           0       -4.688519    3.877095    0.224844
    126          1           0       -5.010247   -1.820766    2.845068
    127          1           0      -11.723772   -1.765022   -2.249577
    128          1           0      -11.585750    0.868105   -3.241904
    129          1           0       -9.977198   -1.592131   -3.789624
    130          1           0       -9.102986   -0.063744   -4.022213
    131          1           0      -10.548146   -0.333230   -4.948793
    132          1           0      -12.632397    0.882503   -1.095985
    133          1           0      -12.827994   -0.599099   -0.090099
    134          1           0      -13.932032   -1.126025   -2.661285
    135          1           0      -14.244734    0.549427   -2.378516
    136          1           0       -9.526734    4.668930   -3.522774
    137          1           0       -8.108593    5.657765   -3.624169
    138          1           0       -9.342454    6.097126   -2.419453
    139          1           0       -6.889566    7.140909   -2.488550
    140          1           0       -6.208620    8.097891   -1.050768
    141          1           0       -7.838589    7.365543   -1.033766
    142          1           0       -3.493060    2.711328    2.151380
    143          1           0       -3.024852   -0.222544    1.978207
    144          1           0       -1.661289    2.618193    0.822828
    145          1           0       -2.713627    1.901755   -0.448126
    146          1           0       -1.863326    0.882787    0.597981
    147          1           0       -2.551593    1.169122    4.030307
    148          1           0       -3.403814   -0.333015    4.334124
    149          1           0       -4.263717    2.467444    4.345961
    150          1           0       -4.638222    1.199220    5.569154
    151          1           0       -5.537413    1.296780    3.989206
    152          1           0       -7.271305   -4.600876    3.595255
    153          1           0       -5.708543   -3.738922    3.419207
    154          1           0       -6.291849   -4.786522    2.064750
    155          1           0      -10.536138   -3.800338   -0.640439
    156          1           0      -14.608402   -4.875040    0.278555
    157          1           0      -14.795130   -3.111617   -0.337426
    158          1           0      -14.474292   -3.583034    1.349898
 ---------------------------------------------------------------------

 SCF Done:  E(RCAM-B3LYP) =  -4069.81181537     A.U. after   19 cycles

 Excitation energies and oscillator strengths:

 Excited State   1:      Singlet-A      1.6695 eV  742.64 nm  f=0.0191  <S**2>=0.000
     309 -> 315       -0.10210
     310 -> 316        0.13892
     311 -> 313       -0.40515
     312 -> 314        0.55404
 This state for optimization and/or second-order correction.
 Total Energy, E(TD-HF/TD-DFT) =  -4069.75046251
 Copying the excited state density for this state as the 1-particle RhoCI density.

 Excited State   2:      Singlet-A      1.6855 eV  735.60 nm  f=0.7367  <S**2>=0.000
     309 -> 315        0.14292
     310 -> 316        0.10397
     311 -> 313        0.55321
     312 -> 314        0.40461

 Excited State   3:      Singlet-A      2.1855 eV  567.30 nm  f=0.0932  <S**2>=0.000
     310 -> 314        0.63831
     312 -> 316       -0.27099

 Excited State   4:      Singlet-A      2.1931 eV  565.33 nm  f=0.1067  <S**2>=0.000
     309 -> 313        0.63640
     311 -> 315       -0.27665

 Excited State   5:      Singlet-A      2.7680 eV  447.92 nm  f=0.0000  <S**2>=0.000
     312 -> 313        0.70699

 The electronic state is 1-A.
 Alpha  occ. eigenvalues --  -46.87812 -46.87582 -19.26299 -19.26291 -19.19100
 Alpha  occ. eigenvalues --  -19.19039 -19.18809 -19.18652 -19.18181 -19.17976
 Alpha  occ. eigenvalues --  -14.42464 -14.42422 -14.41464 -14.41275 -14.39415
 Alpha  occ. eigenvalues --  -14.39276 -14.38602 -14.38520 -10.39097 -10.39028
 Alpha  occ. eigenvalues --  -10.35441 -10.35331 -10.34402 -10.34154 -10.31704
 Alpha  occ. eigenvalues --  -10.31692 -10.31420 -10.31233 -10.30955 -10.30920
 Alpha  occ. eigenvalues --  -10.30585 -10.30521 -10.30317 -10.30282 -10.30219
 Alpha  occ. eigenvalues --  -10.30054 -10.29936 -10.29804 -10.29642 -10.29359
 Alpha  occ. eigenvalues --  -10.29324 -10.29265 -10.28761 -10.28659 -10.28609
 Alpha  occ. eigenvalues --  -10.28552 -10.28377 -10.28331 -10.28128 -10.28079
 Alpha  occ. eigenvalues --  -10.27923 -10.27804 -10.27740 -10.27595 -10.27593
 Alpha  occ. eigenvalues --  -10.27519 -10.27481 -10.27463 -10.27417 -10.27414
 Alpha  occ. eigenvalues --  -10.27408 -10.27402 -10.27393 -10.27266 -10.27171
 Alpha  occ. eigenvalues --  -10.26980 -10.26720 -10.26640 -10.26389 -10.26371
 Alpha  occ. eigenvalues --  -10.26244 -10.26213 -10.26035 -10.26024 -10.25969
 Alpha  occ. eigenvalues --  -10.25858 -10.25844 -10.25742 -10.25443 -10.25269
 Alpha  occ. eigenvalues --  -10.24845 -10.24800 -10.24794 -10.24733 -10.24634
 Alpha  occ. eigenvalues --  -10.24608  -3.16555  -3.16332  -1.91437  -1.91214
 Alpha  occ. eigenvalues --   -1.91023  -1.90865  -1.90803  -1.90639  -1.16648
 Alpha  occ. eigenvalues --   -1.16584  -1.08640  -1.08584  -1.07209  -1.06906
 Alpha  occ. eigenvalues --   -1.06884  -1.06660  -1.04594  -1.04421  -1.03774
 Alpha  occ. eigenvalues --   -1.03584  -1.03247  -1.02956  -1.02425  -1.02031
 Alpha  occ. eigenvalues --   -0.91985  -0.91911  -0.89538  -0.89403  -0.89201
 Alpha  occ. eigenvalues --   -0.89087  -0.88303  -0.88122  -0.87884  -0.87706
 Alpha  occ. eigenvalues --   -0.87686  -0.87607  -0.87277  -0.87055  -0.84994
 Alpha  occ. eigenvalues --   -0.84933  -0.83956  -0.83779  -0.82967  -0.82864
 Alpha  occ. eigenvalues --   -0.82658  -0.82587  -0.81599  -0.81526  -0.80607
 Alpha  occ. eigenvalues --   -0.80372  -0.78804  -0.78563  -0.77233  -0.77070
 Alpha  occ. eigenvalues --   -0.76949  -0.76823  -0.75936  -0.75771  -0.74912
 Alpha  occ. eigenvalues --   -0.74708  -0.72788  -0.72617  -0.71684  -0.71500
 Alpha  occ. eigenvalues --   -0.69931  -0.69657  -0.68884  -0.68760  -0.67651
 Alpha  occ. eigenvalues --   -0.67526  -0.67228  -0.67140  -0.65300  -0.65205
 Alpha  occ. eigenvalues --   -0.64868  -0.64692  -0.64635  -0.64581  -0.64286
 Alpha  occ. eigenvalues --   -0.64111  -0.62312  -0.62207  -0.60449  -0.60265
 Alpha  occ. eigenvalues --   -0.59816  -0.59728  -0.59001  -0.58912  -0.58517
 Alpha  occ. eigenvalues --   -0.58347  -0.57598  -0.57482  -0.57321  -0.57154
 Alpha  occ. eigenvalues --   -0.56320  -0.56128  -0.55991  -0.55822  -0.55525
 Alpha  occ. eigenvalues --   -0.55386  -0.55356  -0.55158  -0.54541  -0.54403
 Alpha  occ. eigenvalues --   -0.53907  -0.53849  -0.53308  -0.53229  -0.53151
 Alpha  occ. eigenvalues --   -0.53074  -0.52929  -0.52832  -0.52758  -0.52611
 Alpha  occ. eigenvalues --   -0.52464  -0.52302  -0.51929  -0.51790  -0.51625
 Alpha  occ. eigenvalues --   -0.51597  -0.51211  -0.51123  -0.50569  -0.50415
 Alpha  occ. eigenvalues --   -0.50048  -0.49922  -0.49912  -0.49776  -0.49521
 Alpha  occ. eigenvalues --   -0.49423  -0.49224  -0.49134  -0.49107  -0.49033
 Alpha  occ. eigenvalues --   -0.48605  -0.48487  -0.48472  -0.48448  -0.48280
 Alpha  occ. eigenvalues --   -0.48275  -0.47705  -0.47523  -0.47305  -0.47042
 Alpha  occ. eigenvalues --   -0.46812  -0.46627  -0.46567  -0.46488  -0.46373
 Alpha  occ. eigenvalues --   -0.46189  -0.46177  -0.45997  -0.45836  -0.45742
 Alpha  occ. eigenvalues --   -0.45216  -0.45115  -0.44590  -0.44514  -0.44443
 Alpha  occ. eigenvalues --   -0.44402  -0.44159  -0.44099  -0.44058  -0.44027
 Alpha  occ. eigenvalues --   -0.43997  -0.43874  -0.43508  -0.43480  -0.43398
 Alpha  occ. eigenvalues --   -0.43311  -0.43040  -0.42862  -0.42822  -0.42714
 Alpha  occ. eigenvalues --   -0.42675  -0.42465  -0.42029  -0.41882  -0.41717
 Alpha  occ. eigenvalues --   -0.41592  -0.41546  -0.41388  -0.41152  -0.40913
 Alpha  occ. eigenvalues --   -0.40884  -0.40822  -0.40660  -0.40629  -0.40588
 Alpha  occ. eigenvalues --   -0.40400  -0.40245  -0.40171  -0.39468  -0.39325
 Alpha  occ. eigenvalues --   -0.38485  -0.38257  -0.37762  -0.37591  -0.37336
 Alpha  occ. eigenvalues --   -0.37276  -0.37178  -0.37130  -0.36730  -0.36702
 Alpha  occ. eigenvalues --   -0.36208  -0.36134  -0.34300  -0.34174  -0.33798
 Alpha  occ. eigenvalues --   -0.33788  -0.33200  -0.33096  -0.31340  -0.31210
 Alpha  occ. eigenvalues --   -0.31048  -0.30896  -0.30041  -0.29881  -0.29458
 Alpha  occ. eigenvalues --   -0.29335  -0.29255  -0.29132  -0.24094  -0.23957
 Alpha  occ. eigenvalues --   -0.21141  -0.21038
 Alpha virt. eigenvalues --   -0.08785  -0.08715  -0.01762  -0.01604  -0.00062
 Alpha virt. eigenvalues --    0.00038   0.02188   0.02287   0.03090   0.03298
 Alpha virt. eigenvalues --    0.04705   0.04802   0.05082   0.05229   0.06164

 Mulliken charges:
               1
     1  Mg   0.838427
     2  C   -0.003032
     3  C   -0.094071
     4  C   -0.045879
     5  C   -0.064039
     6  N   -0.256791
     7  C   -0.052533
     8  C   -0.013987
     9  C   -0.087002
    10  C    0.046316
    11  C    0.104795
    12  C    0.053457
    13  C   -0.071805
    14  H    0.036081
    15  N   -0.433203
    16  C    0.168462
    17  C   -0.177063
    18  C   -0.003867
    19  C    0.148708
    20  C    0.110161
    21  C    0.012438
    22  O   -0.249451
    23  C    0.062388
    24  N   -0.341110
    25  C    0.041215
    26  C   -0.028234
    27  C   -0.023931
    28  C    0.074677
    29  C    0.076131
    30  C    0.035163
    31  C   -0.004519
    32  N   -0.310424
    33  C    0.080203
    34  C   -0.169910
    35  C    0.008352
    36  C    0.082780
    37  C    0.127356
    38  C    0.045997
    39  O   -0.188419
    40  C   -0.005287
    41  C    0.212937
    42  O   -0.257359
    43  O   -0.304736
    44  C    0.157670
    45  H   -0.017520
    46  H   -0.016695
    47  H   -0.041559
    48  H    0.000976
    49  H   -0.004001
    50  H    0.025511
    51  H    0.016479
    52  H    0.016710
    53  H    0.011192
    54  H    0.043983
    55  H    0.017933
    56  H    0.017979
    57  H    0.005849
    58  H    0.026918
    59  H    0.039793
    60  H    0.037262
    61  H    0.036013
    62  H    0.031756
    63  H    0.016601
    64  H    0.009551
    65  H    0.023351
    66  H    0.012612
    67  H    0.004800
    68  H    0.006527
    69  H    0.004701
    70  H    0.008969
    71  H    0.017559
    72  H    0.028783
    73  H    0.047449
    74  H    0.009014
    75  H    0.046109
    76  H    0.035227
    77  H    0.043066
    78  H    0.046415
    79  H    0.053625
    80  Mg   0.837767
    81  C   -0.016895
    82  C   -0.087986
    83  C   -0.045583
    84  C   -0.064466
    85  N   -0.254579
    86  C   -0.049828
    87  C   -0.015107
    88  C   -0.090485
    89  C    0.045754
    90  C    0.114426
    91  C    0.062563
    92  C   -0.077801
    93  H    0.034753
    94  N   -0.423448
    95  C    0.162885
    96  C   -0.174870
    97  C   -0.007932
    98  C    0.152080
    99  C    0.099477
   100  C    0.015388
   101  O   -0.253201
   102  C    0.061238
   103  N   -0.350025
   104  C    0.037570
   105  C   -0.019950
   106  C   -0.035023
   107  C    0.088867
   108  C    0.073338
   109  C    0.034666
   110  C   -0.007669
   111  N   -0.324157
   112  C    0.078444
   113  C   -0.162882
   114  C    0.002254
   115  C    0.096255
   116  C    0.131517
   117  C    0.042481
   118  O   -0.187823
   119  C    0.000870
   120  C    0.211231
   121  O   -0.251061
   122  O   -0.305632
   123  C    0.152069
   124  H   -0.019979
   125  H   -0.015586
   126  H   -0.039810
   127  H   -0.000711
   128  H   -0.004521
   129  H    0.022504
   130  H    0.014434
   131  H    0.016006
   132  H    0.013879
   133  H    0.037677
   134  H    0.020729
   135  H    0.019475
   136  H    0.008594
   137  H    0.025780
   138  H    0.039584
   139  H    0.037992
   140  H    0.036209
   141  H    0.033855
   142  H    0.014305
   143  H    0.013606
   144  H    0.025140
   145  H    0.011281
   146  H    0.006966
   147  H    0.006495
   148  H    0.004003
   149  H    0.010823
   150  H    0.017758
   151  H    0.029878
   152  H    0.045907
   153  H    0.008936
   154  H    0.047499
   155  H    0.035023
   156  H    0.043860
   157  H    0.049386
   158  H    0.053534
 Sum of Mulliken charges =  -0.00000

 Dipole moment (field-independent basis, Debye):
    X=              1.7468    Y=              4.9400    Z=             -6.8734  Tot=              8.6428
 Quadrupole moment (field-independent basis, Debye-Ang):
   XX=           -457.0211   YY=           -559.9004   ZZ=           -459.4740
   XY=            -19.4734   XZ=             27.7859   YZ=             -4.1776

 Normal termination of Gaussian 16 at Sun Sep 12 07:39:42 2021.
