 Gaussian 16, Revision A.03,
 Gaussian 16:  ES64L-G16RevA.03 25-Dec-2016

 -----------------------------------
 #p cam-b3lyp/Def2SVP td=(nstates=5)
 -----------------------------------

 --------------------------------
 TDDFT excited states in gaussian
 --------------------------------
 Symbolic Z-matrix:
 Charge =  0 Multiplicity = 1

                         Standard orientation:
 ---------------------------------------------------------------------
 Center     Atomic      Atomic             Coordinates (Angstroms)
 Number     Number       Type             X           Y           Z
 ---------------------------------------------------------------------
      1         12           0        6.680311   -0.601029    0.752063
      2          6           0        7.109381    2.252644   -1.365640
      3          6           0        7.239749    1.470000    3.405538
      4          6           0        6.756996   -3.173722    2.604627
      5          6           0        7.281336   -2.585612   -2.048983
      6          7           0        7.107002    1.567648    0.876252
      7          6           0        7.185685    2.559569   -0.005265
      8          6           0        7.281270    3.967244    0.655558
      9          6           0        7.878331    3.540809    2.071069
     10          6           0        7.348242    2.119482    2.140060
     11          6           0        9.402727    3.498530    2.101592
     12          6           0        5.880020    4.649405    0.806832
     13          6           0        5.913373    6.144291    1.137827
     14          1           0        4.890022    7.009941    0.571477
     15          7           0        6.475008   -0.777214    2.709015
     16          6           0        6.732514    0.173467    3.639167
     17          6           0        6.424662   -0.442646    4.947721
     18          6           0        6.148987   -1.887873    4.716599
     19          6           0        6.479201   -2.011179    3.319769
     20          6           0        6.366112    0.331938    6.228479
     21          6           0        5.674813   -2.986161    5.614961
     22          8           0        5.723952   -4.216207    5.269788
     23          6           0        5.227650   -2.586468    6.961562
     24          7           0        7.191757   -2.593183    0.395158
     25          6           0        7.081515   -3.516758    1.356324
     26          6           0        7.227469   -4.902588    0.801248
     27          6           0        7.218980   -4.745494   -0.787778
     28          6           0        7.147483   -3.200795   -0.871825
     29          6           0        8.487107   -5.666755    1.231799
     30          6           0        6.171463   -5.576044   -1.570922
     31          6           0        4.779809   -5.074249   -1.256918
     32          7           0        6.944365   -0.267837   -1.376388
     33          6           0        7.206029   -1.237179   -2.355461
     34          6           0        7.412939   -0.521246   -3.627741
     35          6           0        7.272745    0.824661   -3.294986
     36          6           0        7.021819    0.943555   -1.898135
     37          6           0        7.748046   -1.118287   -4.875009
     38          6           0        7.300982    2.191407   -3.790027
     39          8           0        7.376815    2.708211   -4.905669
     40          6           0        7.317346    3.177064   -2.539412
     41          6           0        6.284508    4.242564   -2.786929
     42          8           0        5.068926    3.961425   -2.813158
     43          8           0        6.865768    5.449949   -2.716923
     44          6           0        5.890060    6.553206   -2.924220
     45          1           0        7.631697    1.972464    4.292019
     46          1           0        6.683930   -4.094937    3.186400
     47          1           0        7.389360   -3.143475   -2.980956
     48          1           0        7.961751    4.657974    0.157299
     49          1           0        7.466035    4.138863    2.883512
     50          1           0        9.825287    3.643518    1.107438
     51          1           0        9.658892    2.510163    2.483696
     52          1           0        9.795550    4.211330    2.827115
     53          1           0        5.391323    4.271416    1.704808
     54          1           0        5.275529    4.491463   -0.087019
     55          1           0        6.904975    6.566898    0.973391
     56          1           0        5.743258    6.260989    2.208173
     57          1           0        6.776365    1.333989    6.109605
     58          1           0        7.043433   -0.157664    6.927932
     59          1           0        5.360015    0.356840    6.647384
     60          1           0        6.046550   -2.086230    7.478972
     61          1           0        4.840558   -3.490406    7.430502
     62          1           0        4.430382   -1.848986    6.864442
     63          1           0        6.392734   -5.534309    1.102201
     64          1           0        8.172215   -5.032627   -1.232268
     65          1           0        8.276521   -6.621214    1.714879
     66          1           0        9.068247   -5.017253    1.885798
     67          1           0        9.199781   -5.861423    0.430790
     68          1           0        6.211814   -6.621328   -1.266456
     69          1           0        6.313505   -5.539514   -2.651079
     70          1           0        4.538252   -5.591237   -0.328907
     71          1           0        4.086609   -5.353331   -2.051147
     72          1           0        4.780827   -4.005149   -1.043588
     73          1           0        7.128246   -0.626721   -5.624796
     74          1           0        7.572477   -2.193706   -4.859105
     75          1           0        8.807039   -0.868999   -4.940166
     76          1           0        8.324105    3.589151   -2.478227
     77          1           0        6.263289    7.161134   -3.748452
     78          1           0        5.760108    7.037868   -1.956429
     79          1           0        4.910847    6.264912   -3.308103
     80         12           0       -6.453194   -0.686062   -0.766831
     81          6           0       -8.173318    1.641339    1.355301
     82          6           0       -5.791447    1.932249   -2.850370
     83          6           0       -5.325824   -2.775150   -2.872096
     84          6           0       -8.195589   -3.234705    0.850011
     85          7           0       -6.968181    1.461995   -0.653320
     86          6           0       -7.571580    2.242722    0.230269
     87          6           0       -7.458158    3.761438   -0.070046
     88          6           0       -7.212395    3.675519   -1.654686
     89          6           0       -6.584979    2.285046   -1.729685
     90          6           0       -8.498909    3.663255   -2.463435
     91          6           0       -6.241788    4.426807    0.664633
     92          6           0       -6.250208    5.957066    0.666153
     93          1           0       -5.737483    6.654751    1.842082
     94          7           0       -5.262189   -0.417211   -2.331380
     95          6           0       -5.098642    0.717015   -3.044160
     96          6           0       -4.131033    0.390695   -4.103129
     97          6           0       -3.861860   -1.072256   -4.058024
     98          6           0       -4.843413   -1.490760   -3.077459
     99          6           0       -3.500437    1.434176   -4.978870
    100          6           0       -2.891459   -1.951247   -4.787321
    101          8           0       -2.992942   -3.228785   -4.766335
    102          6           0       -1.874971   -1.270406   -5.602608
    103          7           0       -6.873785   -2.689649   -1.128873
    104          6           0       -6.202997   -3.377894   -2.069245
    105          6           0       -6.478764   -4.858731   -1.962109
    106          6           0       -7.288505   -5.047219   -0.595957
    107          6           0       -7.424201   -3.567159   -0.175956
    108          6           0       -7.274590   -5.472242   -3.113919
    109          6           0       -6.708950   -6.057131    0.432078
    110          6           0       -5.400310   -5.538642    0.983472
    111          7           0       -7.778813   -0.828061    0.933350
    112          6           0       -8.416814   -1.988820    1.422918
    113          6           0       -9.307578   -1.565055    2.522640
    114          6           0       -9.142029   -0.173077    2.581857
    115          6           0       -8.228973    0.243840    1.575887
    116          6           0      -10.161421   -2.418067    3.277232
    117          6           0       -9.540165    1.039660    3.259698
    118          8           0      -10.224465    1.297148    4.249225
    119          6           0       -9.027153    2.283377    2.413304
    120          6           0       -8.364366    3.247169    3.358986
    121          8           0       -7.318602    2.931287    3.953291
    122          8           0       -8.948976    4.453215    3.240424
    123          6           0       -8.318712    5.446136    4.150762
    124          1           0       -5.725411    2.635203   -3.681266
    125          1           0       -4.883586   -3.551115   -3.501224
    126          1           0       -8.698239   -3.981375    1.468484
    127          1           0       -8.354655    4.333564    0.136699
    128          1           0       -6.505186    4.431340   -1.986266
    129          1           0       -9.371646    3.594985   -1.831122
    130          1           0       -8.431616    2.798198   -3.110108
    131          1           0       -8.535935    4.532708   -3.126018
    132          1           0       -5.328934    4.244519    0.083081
    133          1           0       -6.160249    4.064901    1.671114
    134          1           0       -7.225402    6.364189    0.372559
    135          1           0       -5.567867    6.308605   -0.111568
    136          1           0       -4.016147    2.398386   -4.890844
    137          1           0       -3.672788    1.127685   -6.016278
    138          1           0       -2.425331    1.529947   -4.812624
    139          1           0       -2.366316   -0.649536   -6.347965
    140          1           0       -1.220191   -2.061274   -5.973653
    141          1           0       -1.303829   -0.594218   -4.956711
    142          1           0       -5.554845   -5.420897   -1.903418
    143          1           0       -8.308527   -5.417927   -0.774727
    144          1           0       -6.749363   -6.310403   -3.609591
    145          1           0       -7.500976   -4.690550   -3.826833
    146          1           0       -8.265460   -5.836530   -2.848089
    147          1           0       -6.484640   -7.008413   -0.056699
    148          1           0       -7.382239   -6.269223    1.255902
    149          1           0       -4.674781   -5.840846    0.222309
    150          1           0       -5.179830   -5.999779    1.944080
    151          1           0       -5.397279   -4.443245    1.025270
    152          1           0      -10.060695   -2.122173    4.312997
    153          1           0       -9.903312   -3.465444    3.135276
    154          1           0      -11.128438   -2.169593    2.831810
    155          1           0       -9.894455    2.724423    1.920501
    156          1           0       -9.118604    5.866181    4.768356
    157          1           0       -7.768701    6.146335    3.494292
    158          1           0       -7.640802    5.071560    4.908766
 ---------------------------------------------------------------------

 SCF Done:  E(RCAM-B3LYP) =  -4069.81215913     A.U. after   19 cycles

 Excitation energies and oscillator strengths:

 Excited State   1:      Singlet-A      1.6656 eV  744.40 nm  f=0.0669  <S**2>=0.000
     309 -> 315        0.11211
     310 -> 316       -0.13015
     311 -> 313       -0.44694
     312 -> 314        0.52123
 This state for optimization and/or second-order correction.
 Total Energy, E(TD-HF/TD-DFT) =  -4069.75095062
 Copying the excited state density for this state as the 1-particle RhoCI density.

 Excited State   2:      Singlet-A      1.6897 eV  733.78 nm  f=0.6853  <S**2>=0.000
     309 -> 315       -0.13529
     310 -> 316       -0.11544
     311 -> 313        0.52007
     312 -> 314        0.44609

 Excited State   3:      Singlet-A      2.1869 eV  566.93 nm  f=0.0362  <S**2>=0.000
     309 -> 313        0.22084
     310 -> 314        0.60370
     312 -> 316        0.25665

 Excited State   4:      Singlet-A      2.1940 eV  565.11 nm  f=0.1530  <S**2>=0.000
     309 -> 313        0.60160
     310 -> 314       -0.21936
     311 -> 315        0.26223

 Excited State   5:      Singlet-A      2.6840 eV  461.94 nm  f=0.0000  <S**2>=0.000
     312 -> 313        0.70706

 The electronic state is 1-A.
 Alpha  occ. eigenvalues --  -46.87781 -46.87539 -19.26373 -19.26297 -19.19109
 Alpha  occ. eigenvalues --  -19.19101 -19.18769 -19.18538 -19.18195 -19.17951
 Alpha  occ. eigenvalues --  -14.42439 -14.42378 -14.41429 -14.41242 -14.39384
 Alpha  occ. eigenvalues --  -14.39223 -14.38578 -14.38482 -10.39161 -10.39027
 Alpha  occ. eigenvalues --  -10.35400 -10.35207 -10.34417 -10.34131 -10.31790
 Alpha  occ. eigenvalues --  -10.31724 -10.31404 -10.31199 -10.30900 -10.30896
 Alpha  occ. eigenvalues --  -10.30564 -10.30493 -10.30279 -10.30243 -10.30173
 Alpha  occ. eigenvalues --  -10.30011 -10.29904 -10.29790 -10.29616 -10.29300
 Alpha  occ. eigenvalues --  -10.29267 -10.29231 -10.28761 -10.28617 -10.28582
 Alpha  occ. eigenvalues --  -10.28579 -10.28357 -10.28278 -10.28120 -10.28034
 Alpha  occ. eigenvalues --  -10.27874 -10.27784 -10.27713 -10.27564 -10.27544
 Alpha  occ. eigenvalues --  -10.27451 -10.27436 -10.27415 -10.27406 -10.27400
 Alpha  occ. eigenvalues --  -10.27367 -10.27322 -10.27277 -10.27231 -10.27192
 Alpha  occ. eigenvalues --  -10.26960 -10.26733 -10.26599 -10.26335 -10.26236
 Alpha  occ. eigenvalues --  -10.26147 -10.26107 -10.26043 -10.25996 -10.25927
 Alpha  occ. eigenvalues --  -10.25850 -10.25816 -10.25759 -10.25395 -10.25309
 Alpha  occ. eigenvalues --  -10.24830 -10.24769 -10.24752 -10.24632 -10.24583
 Alpha  occ. eigenvalues --  -10.24573  -3.16524  -3.16289  -1.91406  -1.91171
 Alpha  occ. eigenvalues --   -1.90992  -1.90834  -1.90760  -1.90597  -1.16720
 Alpha  occ. eigenvalues --   -1.16589  -1.08660  -1.08565  -1.07168  -1.06885
 Alpha  occ. eigenvalues --   -1.06789  -1.06729  -1.04572  -1.04375  -1.03742
 Alpha  occ. eigenvalues --   -1.03542  -1.03219  -1.02918  -1.02397  -1.01991
 Alpha  occ. eigenvalues --   -0.91976  -0.91876  -0.89486  -0.89383  -0.89194
 Alpha  occ. eigenvalues --   -0.89047  -0.88251  -0.88114  -0.87868  -0.87683
 Alpha  occ. eigenvalues --   -0.87663  -0.87566  -0.87241  -0.86941  -0.84984
 Alpha  occ. eigenvalues --   -0.84890  -0.83900  -0.83774  -0.82919  -0.82759
 Alpha  occ. eigenvalues --   -0.82644  -0.82516  -0.81617  -0.81508  -0.80599
 Alpha  occ. eigenvalues --   -0.80330  -0.78775  -0.78484  -0.77203  -0.77026
 Alpha  occ. eigenvalues --   -0.76943  -0.76804  -0.75935  -0.75733  -0.74875
 Alpha  occ. eigenvalues --   -0.74699  -0.72761  -0.72581  -0.71664  -0.71472
 Alpha  occ. eigenvalues --   -0.69853  -0.69654  -0.68870  -0.68712  -0.67633
 Alpha  occ. eigenvalues --   -0.67482  -0.67218  -0.67071  -0.65293  -0.65167
 Alpha  occ. eigenvalues --   -0.64857  -0.64662  -0.64618  -0.64550  -0.64239
 Alpha  occ. eigenvalues --   -0.64097  -0.62335  -0.62195  -0.60410  -0.60186
 Alpha  occ. eigenvalues --   -0.59804  -0.59685  -0.58979  -0.58881  -0.58499
 Alpha  occ. eigenvalues --   -0.58314  -0.57618  -0.57465  -0.57293  -0.57114
 Alpha  occ. eigenvalues --   -0.56305  -0.56081  -0.56024  -0.55797  -0.55504
 Alpha  occ. eigenvalues --   -0.55332  -0.55315  -0.55151  -0.54531  -0.54399
 Alpha  occ. eigenvalues --   -0.53902  -0.53807  -0.53281  -0.53216  -0.53105
 Alpha  occ. eigenvalues --   -0.53014  -0.52928  -0.52796  -0.52729  -0.52484
 Alpha  occ. eigenvalues --   -0.52382  -0.52298  -0.51920  -0.51785  -0.51617
 Alpha  occ. eigenvalues --   -0.51530  -0.51196  -0.51097  -0.50521  -0.50274
 Alpha  occ. eigenvalues --   -0.49990  -0.49891  -0.49840  -0.49744  -0.49506
 Alpha  occ. eigenvalues --   -0.49343  -0.49215  -0.49103  -0.49074  -0.49001
 Alpha  occ. eigenvalues --   -0.48610  -0.48456  -0.48448  -0.48419  -0.48276
 Alpha  occ. eigenvalues --   -0.48176  -0.47682  -0.47467  -0.47281  -0.46981
 Alpha  occ. eigenvalues --   -0.46782  -0.46599  -0.46562  -0.46440  -0.46348
 Alpha  occ. eigenvalues --   -0.46159  -0.46148  -0.45984  -0.45845  -0.45733
 Alpha  occ. eigenvalues --   -0.45170  -0.45102  -0.44592  -0.44481  -0.44412
 Alpha  occ. eigenvalues --   -0.44360  -0.44128  -0.44081  -0.44016  -0.44013
 Alpha  occ. eigenvalues --   -0.43959  -0.43782  -0.43521  -0.43470  -0.43375
 Alpha  occ. eigenvalues --   -0.43278  -0.43022  -0.42849  -0.42797  -0.42755
 Alpha  occ. eigenvalues --   -0.42618  -0.42434  -0.41987  -0.41862  -0.41702
 Alpha  occ. eigenvalues --   -0.41562  -0.41533  -0.41352  -0.41133  -0.40880
 Alpha  occ. eigenvalues --   -0.40858  -0.40787  -0.40607  -0.40547  -0.40540
 Alpha  occ. eigenvalues --   -0.40391  -0.40244  -0.40109  -0.39379  -0.39322
 Alpha  occ. eigenvalues --   -0.38439  -0.38248  -0.37761  -0.37556  -0.37293
 Alpha  occ. eigenvalues --   -0.37268  -0.37157  -0.37086  -0.36763  -0.36702
 Alpha  occ. eigenvalues --   -0.36200  -0.36120  -0.34276  -0.34138  -0.33842
 Alpha  occ. eigenvalues --   -0.33791  -0.33179  -0.33057  -0.31300  -0.31103
 Alpha  occ. eigenvalues --   -0.31024  -0.30852  -0.30058  -0.29859  -0.29431
 Alpha  occ. eigenvalues --   -0.29316  -0.29187  -0.29088  -0.24069  -0.23919
 Alpha  occ. eigenvalues --   -0.21113  -0.20993
 Alpha virt. eigenvalues --   -0.08759  -0.08663  -0.01730  -0.01560  -0.00036
 Alpha virt. eigenvalues --    0.00121   0.02198   0.02319   0.03143   0.03350
 Alpha virt. eigenvalues --    0.04720   0.04836   0.05026   0.05234   0.06151

 Mulliken charges:
               1
     1  Mg   0.838805
     2  C   -0.003313
     3  C   -0.094067
     4  C   -0.045623
     5  C   -0.063738
     6  N   -0.256824
     7  C   -0.052641
     8  C   -0.014018
     9  C   -0.087064
    10  C    0.046408
    11  C    0.104794
    12  C    0.053449
    13  C   -0.071606
    14  H    0.035202
    15  N   -0.433216
    16  C    0.168663
    17  C   -0.176879
    18  C   -0.003669
    19  C    0.148843
    20  C    0.110106
    21  C    0.012634
    22  O   -0.249357
    23  C    0.062278
    24  N   -0.341164
    25  C    0.041396
    26  C   -0.028229
    27  C   -0.023970
    28  C    0.074846
    29  C    0.076165
    30  C    0.035055
    31  C   -0.004675
    32  N   -0.310279
    33  C    0.080126
    34  C   -0.170071
    35  C    0.007951
    36  C    0.082673
    37  C    0.127445
    38  C    0.045497
    39  O   -0.189329
    40  C   -0.005150
    41  C    0.212865
    42  O   -0.258170
    43  O   -0.304477
    44  C    0.158056
    45  H   -0.017490
    46  H   -0.016545
    47  H   -0.041401
    48  H    0.000722
    49  H   -0.003919
    50  H    0.025379
    51  H    0.016593
    52  H    0.016713
    53  H    0.011609
    54  H    0.043462
    55  H    0.017909
    56  H    0.018345
    57  H    0.005866
    58  H    0.026952
    59  H    0.040330
    60  H    0.037249
    61  H    0.036035
    62  H    0.032180
    63  H    0.016937
    64  H    0.009339
    65  H    0.023367
    66  H    0.012424
    67  H    0.004738
    68  H    0.006490
    69  H    0.004710
    70  H    0.008983
    71  H    0.019480
    72  H    0.028541
    73  H    0.046806
    74  H    0.009384
    75  H    0.045950
    76  H    0.035167
    77  H    0.042793
    78  H    0.046626
    79  H    0.052546
    80  Mg   0.837782
    81  C   -0.016933
    82  C   -0.087278
    83  C   -0.045533
    84  C   -0.064955
    85  N   -0.254557
    86  C   -0.050142
    87  C   -0.015105
    88  C   -0.090574
    89  C    0.045778
    90  C    0.114382
    91  C    0.062401
    92  C   -0.077641
    93  H    0.033950
    94  N   -0.423638
    95  C    0.163183
    96  C   -0.173915
    97  C   -0.007365
    98  C    0.152204
    99  C    0.098977
   100  C    0.015766
   101  O   -0.253806
   102  C    0.060857
   103  N   -0.350037
   104  C    0.037648
   105  C   -0.019840
   106  C   -0.034628
   107  C    0.088662
   108  C    0.073756
   109  C    0.034788
   110  C   -0.007604
   111  N   -0.323943
   112  C    0.078060
   113  C   -0.163512
   114  C    0.001976
   115  C    0.095943
   116  C    0.131576
   117  C    0.042036
   118  O   -0.188649
   119  C    0.001014
   120  C    0.211176
   121  O   -0.251298
   122  O   -0.305573
   123  C    0.152229
   124  H   -0.019354
   125  H   -0.015636
   126  H   -0.040838
   127  H   -0.000984
   128  H   -0.004033
   129  H    0.022245
   130  H    0.014487
   131  H    0.016243
   132  H    0.014537
   133  H    0.037342
   134  H    0.020612
   135  H    0.019925
   136  H    0.008719
   137  H    0.026182
   138  H    0.043128
   139  H    0.038346
   140  H    0.036324
   141  H    0.036742
   142  H    0.014348
   143  H    0.012117
   144  H    0.024957
   145  H    0.011673
   146  H    0.005461
   147  H    0.005989
   148  H    0.003403
   149  H    0.010959
   150  H    0.017800
   151  H    0.030248
   152  H    0.045546
   153  H    0.008285
   154  H    0.046607
   155  H    0.034790
   156  H    0.043605
   157  H    0.049459
   158  H    0.053149
 Sum of Mulliken charges =  -0.00000

 Dipole moment (field-independent basis, Debye):
    X=              2.3773    Y=              3.0804    Z=              0.2672  Tot=              3.9002
 Quadrupole moment (field-independent basis, Debye-Ang):
   XX=           -510.3947   YY=           -462.2097   ZZ=           -528.2238
   XY=              6.3167   XZ=             62.7498   YZ=             13.7781

 Normal termination of Gaussian 16 at Sat Sep 11 05:13:02 2021.
