 Gaussian 16, Revision A.03,
 Gaussian 16:  ES64L-G16RevA.03 25-Dec-2016

 -----------------------------------
 #p cam-b3lyp/Def2SVP td=(nstates=5)
 -----------------------------------

 --------------------------------
 TDDFT excited states in gaussian
 --------------------------------
 Symbolic Z-matrix:
 Charge =  0 Multiplicity = 1

                         Standard orientation:
 ---------------------------------------------------------------------
 Center     Atomic      Atomic             Coordinates (Angstroms)
 Number     Number       Type             X           Y           Z
 ---------------------------------------------------------------------
      1         12           0       -4.350567    0.608716    0.749599
      2          6           0       -5.005874   -2.036211   -1.571424
      3          6           0       -4.776744   -1.677518    3.246512
      4          6           0       -4.225965    3.007894    2.819633
      5          6           0       -5.094308    2.846125   -1.816820
      6          7           0       -4.826139   -1.553068    0.715402
      7          6           0       -4.993961   -2.460993   -0.240986
      8          6           0       -5.080711   -3.919460    0.300050
      9          6           0       -5.564233   -3.607983    1.787056
     10          6           0       -4.992179   -2.209735    1.940616
     11          6           0       -7.080928   -3.536844    1.932234
     12          6           0       -3.691313   -4.641387    0.288798
     13          6           0       -3.741736   -6.158728    0.490011
     14          1           0       -2.784950   -6.991825   -0.222631
     15          7           0       -4.002491    0.606227    2.694255
     16          6           0       -4.219209   -0.417678    3.554452
     17          6           0       -3.802846    0.073335    4.885703
     18          6           0       -3.505077    1.527315    4.761724
     19          6           0       -3.929905    1.780942    3.408737
     20          6           0       -3.674808   -0.812901    6.086512
     21          6           0       -2.938821    2.531433    5.715260
     22          8           0       -2.978851    3.788013    5.482931
     23          6           0       -2.408445    2.004591    6.985765
     24          7           0       -4.831703    2.634899    0.605643
     25          6           0       -4.628629    3.467037    1.632917
     26          6           0       -4.775828    4.899397    1.212658
     27          6           0       -4.884155    4.883794   -0.380381
     28          6           0       -4.860772    3.351495   -0.603507
     29          6           0       -5.980592    5.648405    1.798782
     30          6           0       -3.872553    5.758570   -1.162588
     31          6           0       -2.476301    5.202018   -0.995770
     32          7           0       -4.773634    0.471294   -1.374824
     33          6           0       -5.077547    1.528934   -2.244139
     34          6           0       -5.393402    0.933196   -3.555398
     35          6           0       -5.266604   -0.439556   -3.352129
     36          6           0       -4.920715   -0.687141   -1.992955
     37          6           0       -5.799650    1.645416   -4.718213
     38          6           0       -5.366939   -1.756093   -3.960834
     39          8           0       -5.535594   -2.170162   -5.108700
     40          6           0       -5.321468   -2.848289   -2.802876
     41          6           0       -4.338073   -3.908897   -3.216828
     42          8           0       -3.120214   -3.651914   -3.307076
     43          8           0       -4.945497   -5.105363   -3.209941
     44          6           0       -4.017245   -6.205949   -3.583052
     45          1           0       -5.118436   -2.248396    4.112125
     46          1           0       -4.086890    3.872125    3.472473
     47          1           0       -5.252864    3.486620   -2.686348
     48          1           0       -5.813277   -4.548927   -0.205462
     49          1           0       -5.111835   -4.284231    2.512141
     50          1           0       -7.576609   -3.584205    0.962709
     51          1           0       -7.282451   -2.581166    2.416549
     52          1           0       -7.440603   -4.302881    2.619692
     53          1           0       -3.130169   -4.354836    1.178217
     54          1           0       -3.147571   -4.417367   -0.629617
     55          1           0       -4.753604   -6.544333    0.362184
     56          1           0       -3.499485   -6.373467    1.530877
     57          1           0       -4.119515   -1.791688    5.911135
     58          1           0       -4.287349   -0.373304    6.873441
     59          1           0       -2.642622   -0.895826    6.427168
     60          1           0       -3.201934    1.477573    7.516025
     61          1           0       -1.964707    2.855090    7.502096
     62          1           0       -1.640381    1.262195    6.766959
     63          1           0       -3.905027    5.484397    1.505757
     64          1           0       -5.858321    5.229027   -0.727495
     65          1           0       -5.710480    6.551636    2.346430
     66          1           0       -6.531388    4.955671    2.434420
     67          1           0       -6.742649    5.928188    1.071865
     68          1           0       -3.862835    6.773324   -0.766195
     69          1           0       -4.091668    5.821006   -2.228581
     70          1           0       -2.155682    5.629469   -0.046390
     71          1           0       -1.833760    5.535985   -1.811133
     72          1           0       -2.491248    4.118459   -0.876769
     73          1           0       -5.248082    1.209528   -5.551125
     74          1           0       -5.594250    2.711290   -4.621640
     75          1           0       -6.866977    1.425001   -4.727408
     76          1           0       -6.332187   -3.243124   -2.704521
     77          1           0       -4.464278   -6.730430   -4.427632
     78          1           0       -3.832299   -6.777184   -2.673167
     79          1           0       -3.060205   -5.905180   -4.010781
     80         12           0        4.496735    0.579143   -0.918598
     81          6           0        4.692726   -2.251705    1.278435
     82          6           0        4.137547    2.523004    1.861159
     83          6           0        3.870906    3.029674   -2.834495
     84          6           0        3.729664   -1.644891   -3.489784
     85          7           0        4.439110    0.083445    1.236215
     86          6           0        4.585467   -1.019041    1.955550
     87          6           0        4.699343   -0.778817    3.484888
     88          6           0        3.945959    0.637254    3.562619
     89          6           0        4.216224    1.136073    2.144586
     90          6           0        2.442772    0.509951    3.745782
     91          6           0        6.189517   -0.663623    3.962515
     92          6           0        6.386594   -0.737994    5.478230
     93          1           0        7.582507   -1.399266    5.993001
     94          7           0        4.553989    2.531499   -0.567001
     95          6           0        4.412763    3.148113    0.625100
     96          6           0        4.512557    4.589238    0.346954
     97          6           0        4.559350    4.780121   -1.128200
     98          6           0        4.303350    3.426333   -1.577433
     99          6           0        4.634316    5.620634    1.430843
    100          6           0        4.783110    5.984442   -1.991750
    101          8           0        4.545445    5.963562   -3.251082
    102          6           0        5.199453    7.215673   -1.304566
    103          7           0        3.682453    0.704433   -2.827413
    104          6           0        3.568353    1.888618   -3.453986
    105          6           0        3.216109    1.703289   -4.910683
    106          6           0        3.355342    0.134825   -5.190170
    107          6           0        3.692104   -0.347756   -3.762201
    108          6           0        1.820485    2.171407   -5.322384
    109          6           0        4.290528   -0.292266   -6.354512
    110          6           0        5.726175    0.031165   -6.008570
    111          7           0        4.429475   -1.567999   -1.149498
    112          6           0        4.057822   -2.290460   -2.304483
    113          6           0        4.056182   -3.722256   -1.940632
    114          6           0        4.407400   -3.731972   -0.582316
    115          6           0        4.593691   -2.398987   -0.126291
    116          6           0        3.710446   -4.799645   -2.804246
    117          6           0        4.652549   -4.566124    0.572144
    118          8           0        4.727872   -5.778505    0.767622
    119          6           0        4.724711   -3.637733    1.860271
    120          6           0        5.939023   -4.036929    2.653104
    121          8           0        7.080398   -3.868588    2.188834
    122          8           0        5.563857   -4.347346    3.907394
    123          6           0        6.735252   -4.739170    4.735720
    124          1           0        3.791713    3.194451    2.647558
    125          1           0        3.747550    3.832034   -3.565578
    126          1           0        3.596805   -2.407297   -4.260336
    127          1           0        4.184539   -1.508061    4.098841
    128          1           0        4.412433    1.293267    4.292974
    129          1           0        2.113716   -0.516120    3.674771
    130          1           0        1.999043    1.104936    2.958295
    131          1           0        2.136617    0.977742    4.685877
    132          1           0        6.547283    0.357216    3.776389
    133          1           0        6.801798   -1.401668    3.481861
    134          1           0        5.491350   -1.107943    5.992629
    135          1           0        6.515761    0.277074    5.861581
    136          1           0        4.404086    5.197533    2.416425
    137          1           0        3.842910    6.358536    1.260434
    138          1           0        5.600367    6.129878    1.421102
    139          1           0        4.450072    7.487515   -0.564981
    140          1           0        5.395825    7.940504   -2.096999
    141          1           0        6.125414    7.013437   -0.754730
    142          1           0        3.911063    2.236771   -5.547507
    143          1           0        2.389243   -0.319083   -5.455612
    144          1           0        1.833830    2.919928   -6.137014
    145          1           0        1.322338    2.569467   -4.448348
    146          1           0        1.141430    1.379963   -5.634944
    147          1           0        4.053648    0.274908   -7.258037
    148          1           0        4.214312   -1.344894   -6.605824
    149          1           0        5.812817    1.088077   -6.277867
    150          1           0        6.408666   -0.582356   -6.593237
    151          1           0        5.898531   -0.049117   -4.928983
    152          1           0        4.442519   -5.578801   -2.638454
    153          1           0        3.692874   -4.484617   -3.845510
    154          1           0        2.710846   -5.036451   -2.430120
    155          1           0        3.801914   -3.785376    2.422611
    156          1           0        6.520175   -5.731441    5.144137
    157          1           0        6.877142   -3.915902    5.460872
    158          1           0        7.673151   -4.919933    4.223729
 ---------------------------------------------------------------------

 SCF Done:  E(RCAM-B3LYP) =  -4069.81223698     A.U. after   19 cycles

 Excitation energies and oscillator strengths:

 Excited State   1:      Singlet-A      1.6672 eV  743.67 nm  f=0.2882  <S**2>=0.000
     309 -> 315        0.10408
     310 -> 316       -0.13628
     311 -> 313       -0.41527
     312 -> 314        0.54606
 This state for optimization and/or second-order correction.
 Total Energy, E(TD-HF/TD-DFT) =  -4069.75096847
 Copying the excited state density for this state as the 1-particle RhoCI density.

 Excited State   2:      Singlet-A      1.6791 eV  738.41 nm  f=0.3821  <S**2>=0.000
     309 -> 315       -0.13880
     310 -> 316       -0.10623
     311 -> 313        0.54549
     312 -> 314        0.41514

 Excited State   3:      Singlet-A      2.1846 eV  567.55 nm  f=0.1002  <S**2>=0.000
     310 -> 314        0.64252
     312 -> 316        0.27251

 Excited State   4:      Singlet-A      2.1901 eV  566.12 nm  f=0.0972  <S**2>=0.000
     309 -> 313        0.64107
     311 -> 315        0.27606

 Excited State   5:      Singlet-A      2.3489 eV  527.84 nm  f=0.0000  <S**2>=0.000
     312 -> 313        0.70707

 The electronic state is 1-A.
 Alpha  occ. eigenvalues --  -46.87903 -46.87457 -19.26347 -19.26316 -19.19105
 Alpha  occ. eigenvalues --  -19.19096 -19.19019 -19.18551 -19.18286 -19.17917
 Alpha  occ. eigenvalues --  -14.42546 -14.42308 -14.41554 -14.41135 -14.39521
 Alpha  occ. eigenvalues --  -14.39154 -14.38695 -14.38396 -10.39163 -10.39022
 Alpha  occ. eigenvalues --  -10.35657 -10.35231 -10.34501 -10.34097 -10.31755
 Alpha  occ. eigenvalues --  -10.31716 -10.31489 -10.31127 -10.31007 -10.30863
 Alpha  occ. eigenvalues --  -10.30673 -10.30628 -10.30322 -10.30190 -10.30156
 Alpha  occ. eigenvalues --  -10.30027 -10.29894 -10.29756 -10.29659 -10.29378
 Alpha  occ. eigenvalues --  -10.29223 -10.29199 -10.28788 -10.28630 -10.28626
 Alpha  occ. eigenvalues --  -10.28480 -10.28468 -10.28225 -10.28164 -10.28032
 Alpha  occ. eigenvalues --  -10.27915 -10.27824 -10.27809 -10.27719 -10.27625
 Alpha  occ. eigenvalues --  -10.27591 -10.27557 -10.27506 -10.27469 -10.27302
 Alpha  occ. eigenvalues --  -10.27277 -10.27271 -10.27252 -10.27190 -10.27086
 Alpha  occ. eigenvalues --  -10.26941 -10.26697 -10.26677 -10.26621 -10.26281
 Alpha  occ. eigenvalues --  -10.26280 -10.26244 -10.26123 -10.25957 -10.25953
 Alpha  occ. eigenvalues --  -10.25845 -10.25683 -10.25590 -10.25541 -10.25057
 Alpha  occ. eigenvalues --  -10.24952 -10.24905 -10.24726 -10.24682 -10.24487
 Alpha  occ. eigenvalues --  -10.24483  -3.16646  -3.16207  -1.91528  -1.91114
 Alpha  occ. eigenvalues --   -1.91089  -1.90957  -1.90678  -1.90515  -1.16700
 Alpha  occ. eigenvalues --   -1.16602  -1.08740  -1.08534  -1.07426  -1.06882
 Alpha  occ. eigenvalues --   -1.06807  -1.06726  -1.04678  -1.04314  -1.03866
 Alpha  occ. eigenvalues --   -1.03461  -1.03348  -1.02820  -1.02521  -1.01903
 Alpha  occ. eigenvalues --   -0.92075  -0.91816  -0.89615  -0.89259  -0.89235
 Alpha  occ. eigenvalues --   -0.89031  -0.88384  -0.87982  -0.87965  -0.87761
 Alpha  occ. eigenvalues --   -0.87582  -0.87488  -0.87429  -0.86936  -0.85046
 Alpha  occ. eigenvalues --   -0.84863  -0.84027  -0.83632  -0.83144  -0.82746
 Alpha  occ. eigenvalues --   -0.82732  -0.82511  -0.81666  -0.81468  -0.80698
 Alpha  occ. eigenvalues --   -0.80289  -0.78930  -0.78440  -0.77305  -0.76991
 Alpha  occ. eigenvalues --   -0.76983  -0.76737  -0.75996  -0.75704  -0.74992
 Alpha  occ. eigenvalues --   -0.74566  -0.72879  -0.72492  -0.71766  -0.71390
 Alpha  occ. eigenvalues --   -0.69986  -0.69498  -0.68954  -0.68686  -0.67759
 Alpha  occ. eigenvalues --   -0.67422  -0.67285  -0.67075  -0.65349  -0.65142
 Alpha  occ. eigenvalues --   -0.64948  -0.64702  -0.64587  -0.64496  -0.64364
 Alpha  occ. eigenvalues --   -0.63967  -0.62378  -0.62148  -0.60581  -0.60138
 Alpha  occ. eigenvalues --   -0.59877  -0.59656  -0.59087  -0.58796  -0.58608
 Alpha  occ. eigenvalues --   -0.58243  -0.57681  -0.57429  -0.57420  -0.57031
 Alpha  occ. eigenvalues --   -0.56425  -0.56047  -0.56026  -0.55778  -0.55652
 Alpha  occ. eigenvalues --   -0.55429  -0.55309  -0.55045  -0.54606  -0.54299
 Alpha  occ. eigenvalues --   -0.53947  -0.53798  -0.53432  -0.53320  -0.53041
 Alpha  occ. eigenvalues --   -0.53019  -0.52994  -0.52879  -0.52763  -0.52521
 Alpha  occ. eigenvalues --   -0.52517  -0.52152  -0.52026  -0.51698  -0.51654
 Alpha  occ. eigenvalues --   -0.51533  -0.51284  -0.51030  -0.50750  -0.50299
 Alpha  occ. eigenvalues --   -0.50124  -0.50060  -0.49831  -0.49623  -0.49616
 Alpha  occ. eigenvalues --   -0.49339  -0.49328  -0.49162  -0.49063  -0.48962
 Alpha  occ. eigenvalues --   -0.48681  -0.48615  -0.48553  -0.48421  -0.48192
 Alpha  occ. eigenvalues --   -0.48129  -0.47795  -0.47426  -0.47411  -0.46921
 Alpha  occ. eigenvalues --   -0.46885  -0.46614  -0.46524  -0.46464  -0.46406
 Alpha  occ. eigenvalues --   -0.46260  -0.46066  -0.45906  -0.45869  -0.45665
 Alpha  occ. eigenvalues --   -0.45300  -0.44971  -0.44685  -0.44617  -0.44383
 Alpha  occ. eigenvalues --   -0.44310  -0.44249  -0.44151  -0.44130  -0.43985
 Alpha  occ. eigenvalues --   -0.43880  -0.43793  -0.43584  -0.43463  -0.43424
 Alpha  occ. eigenvalues --   -0.43221  -0.43123  -0.42827  -0.42786  -0.42730
 Alpha  occ. eigenvalues --   -0.42716  -0.42324  -0.42083  -0.41806  -0.41775
 Alpha  occ. eigenvalues --   -0.41588  -0.41503  -0.41304  -0.41231  -0.41004
 Alpha  occ. eigenvalues --   -0.40915  -0.40821  -0.40654  -0.40584  -0.40551
 Alpha  occ. eigenvalues --   -0.40255  -0.40254  -0.40133  -0.39514  -0.39160
 Alpha  occ. eigenvalues --   -0.38551  -0.38118  -0.37786  -0.37542  -0.37413
 Alpha  occ. eigenvalues --   -0.37322  -0.37060  -0.37021  -0.36794  -0.36675
 Alpha  occ. eigenvalues --   -0.36275  -0.36015  -0.34390  -0.34059  -0.33863
 Alpha  occ. eigenvalues --   -0.33771  -0.33294  -0.32969  -0.31545  -0.31143
 Alpha  occ. eigenvalues --   -0.31109  -0.30782  -0.30141  -0.29826  -0.29586
 Alpha  occ. eigenvalues --   -0.29441  -0.29137  -0.29015  -0.24185  -0.23831
 Alpha  occ. eigenvalues --   -0.21236  -0.20912
 Alpha virt. eigenvalues --   -0.08895  -0.08593  -0.01865  -0.01475  -0.00204
 Alpha virt. eigenvalues --    0.00138   0.02081   0.02382   0.02844   0.03481
 Alpha virt. eigenvalues --    0.04650   0.04901   0.05014   0.05242   0.06168

 Mulliken charges:
               1
     1  Mg   0.838857
     2  C   -0.002872
     3  C   -0.093774
     4  C   -0.046413
     5  C   -0.063887
     6  N   -0.256889
     7  C   -0.051907
     8  C   -0.014138
     9  C   -0.087017
    10  C    0.046388
    11  C    0.104753
    12  C    0.053344
    13  C   -0.072750
    14  H    0.038522
    15  N   -0.433015
    16  C    0.168090
    17  C   -0.177392
    18  C   -0.004762
    19  C    0.148551
    20  C    0.110123
    21  C    0.010836
    22  O   -0.250442
    23  C    0.062778
    24  N   -0.341269
    25  C    0.041520
    26  C   -0.028012
    27  C   -0.024073
    28  C    0.075235
    29  C    0.076200
    30  C    0.035064
    31  C   -0.004611
    32  N   -0.310544
    33  C    0.080691
    34  C   -0.169933
    35  C    0.008214
    36  C    0.083143
    37  C    0.127383
    38  C    0.045817
    39  O   -0.188381
    40  C   -0.005171
    41  C    0.212974
    42  O   -0.257742
    43  O   -0.304585
    44  C    0.157780
    45  H   -0.017303
    46  H   -0.017443
    47  H   -0.041129
    48  H    0.001121
    49  H   -0.003405
    50  H    0.025494
    51  H    0.016203
    52  H    0.017048
    53  H    0.011603
    54  H    0.043939
    55  H    0.017516
    56  H    0.018767
    57  H    0.006667
    58  H    0.026891
    59  H    0.038407
    60  H    0.038422
    61  H    0.034444
    62  H    0.029715
    63  H    0.015746
    64  H    0.009659
    65  H    0.022860
    66  H    0.012591
    67  H    0.005061
    68  H    0.006204
    69  H    0.005292
    70  H    0.007068
    71  H    0.020981
    72  H    0.028770
    73  H    0.047134
    74  H    0.009534
    75  H    0.046366
    76  H    0.035522
    77  H    0.043080
    78  H    0.047414
    79  H    0.052989
    80  Mg   0.838029
    81  C   -0.017304
    82  C   -0.088234
    83  C   -0.045611
    84  C   -0.060785
    85  N   -0.254559
    86  C   -0.050075
    87  C   -0.014995
    88  C   -0.090514
    89  C    0.045285
    90  C    0.114462
    91  C    0.062689
    92  C   -0.077440
    93  H    0.034412
    94  N   -0.423447
    95  C    0.162598
    96  C   -0.174570
    97  C   -0.008211
    98  C    0.152193
    99  C    0.099400
   100  C    0.015092
   101  O   -0.253676
   102  C    0.061314
   103  N   -0.349936
   104  C    0.038044
   105  C   -0.020329
   106  C   -0.035720
   107  C    0.088909
   108  C    0.072803
   109  C    0.034556
   110  C   -0.007527
   111  N   -0.324287
   112  C    0.078178
   113  C   -0.161516
   114  C    0.001625
   115  C    0.096644
   116  C    0.131652
   117  C    0.042138
   118  O   -0.189348
   119  C    0.000986
   120  C    0.211116
   121  O   -0.250899
   122  O   -0.306154
   123  C    0.152141
   124  H   -0.018957
   125  H   -0.015935
   126  H   -0.038564
   127  H   -0.002348
   128  H   -0.004575
   129  H    0.020841
   130  H    0.016632
   131  H    0.014402
   132  H    0.014244
   133  H    0.037645
   134  H    0.019478
   135  H    0.019651
   136  H    0.009130
   137  H    0.026180
   138  H    0.039131
   139  H    0.038052
   140  H    0.035785
   141  H    0.033810
   142  H    0.013605
   143  H    0.017452
   144  H    0.023597
   145  H    0.011067
   146  H    0.010255
   147  H    0.006356
   148  H    0.004298
   149  H    0.010424
   150  H    0.017329
   151  H    0.029531
   152  H    0.044529
   153  H    0.009277
   154  H    0.049178
   155  H    0.033471
   156  H    0.043093
   157  H    0.049209
   158  H    0.053682
 Sum of Mulliken charges =  -0.00000

 Dipole moment (field-independent basis, Debye):
    X=             -3.0261    Y=              1.7473    Z=              6.1381  Tot=              7.0630
 Quadrupole moment (field-independent basis, Debye-Ang):
   XX=           -519.9385   YY=           -508.7267   ZZ=           -490.5405
   XY=             25.3696   XZ=             -2.8876   YZ=            -10.0161

 Normal termination of Gaussian 16 at Fri Sep  3 22:15:42 2021.
