 Gaussian 16, Revision A.03,
 Gaussian 16:  ES64L-G16RevA.03 25-Dec-2016

 -----------------------------------
 #p cam-b3lyp/Def2SVP td=(nstates=5)
 -----------------------------------

 --------------------------------
 TDDFT excited states in gaussian
 --------------------------------
 Symbolic Z-matrix:
 Charge =  0 Multiplicity = 1

                         Standard orientation:
 ---------------------------------------------------------------------
 Center     Atomic      Atomic             Coordinates (Angstroms)
 Number     Number       Type             X           Y           Z
 ---------------------------------------------------------------------
      1         12           0        4.049528   -0.438548    0.953061
      2          6           0        4.526468    2.586182   -0.900517
      3          6           0        4.181541    1.454111    3.789164
      4          6           0        4.085531   -3.135511    2.620909
      5          6           0        5.079320   -2.169732   -1.890913
      6          7           0        4.321416    1.734865    1.273999
      7          6           0        4.433276    2.793316    0.477546
      8          6           0        4.366130    4.150231    1.240204
      9          6           0        4.830005    3.651907    2.681901
     10          6           0        4.386880    2.202256    2.592024
     11          6           0        6.341418    3.691937    2.883215
     12          6           0        2.916268    4.740373    1.277131
     13          6           0        2.818074    6.205562    1.711797
     14          1           0        1.810211    7.053475    1.093247
     15          7           0        3.642171   -0.773022    2.857014
     16          6           0        3.735081    0.117546    3.873647
     17          6           0        3.325144   -0.611670    5.093023
     18          6           0        3.168854   -2.048375    4.733100
     19          6           0        3.657622   -2.047431    3.377930
     20          6           0        3.077233    0.059610    6.408954
     21          6           0        2.669602   -3.235902    5.493796
     22          8           0        2.834361   -4.431775    5.072707
     23          6           0        2.052794   -2.964359    6.804847
     24          7           0        4.722544   -2.366692    0.520689
     25          6           0        4.566294   -3.364857    1.397180
     26          6           0        4.860028   -4.694626    0.768393
     27          6           0        5.016129   -4.418767   -0.796626
     28          6           0        4.856345   -2.878468   -0.781840
     29          6           0        6.110736   -5.418167    1.286302
     30          6           0        4.115818   -5.244581   -1.749458
     31          6           0        2.669058   -4.845763   -1.562564
     32          7           0        4.524025    0.068441   -1.103358
     33          6           0        4.952647   -0.808260   -2.110508
     34          6           0        5.252136    0.012009   -3.298588
     35          6           0        4.991063    1.319127   -2.892230
     36          6           0        4.581220    1.318181   -1.528294
     37          6           0        5.759416   -0.469719   -4.537555
     38          6           0        4.986641    2.718796   -3.285631
     39          8           0        5.151556    3.321730   -4.347124
     40          6           0        4.802946    3.606647   -1.976507
     41          6           0        3.737969    4.628946   -2.266404
     42          8           0        2.552942    4.283696   -2.450464
     43          8           0        4.230174    5.857937   -2.047643
     44          6           0        3.215052    6.917956   -2.288563
     45          1           0        4.441067    1.909171    4.747030
     46          1           0        4.007668   -4.100635    3.125796
     47          1           0        5.324240   -2.648825   -2.840617
     48          1           0        5.051965    4.913220    0.871555
     49          1           0        4.293842    4.163184    3.481181
     50          1           0        6.860530    3.934721    1.956123
     51          1           0        6.616318    2.693260    3.223167
     52          1           0        6.606130    4.368608    3.696125
     53          1           0        2.356912    4.269207    2.085329
     54          1           0        2.424848    4.617105    0.311399
     55          1           0        3.792885    6.693642    1.691061
     56          1           0        2.524383    6.231545    2.761211
     57          1           0        3.433592    1.088954    6.406880
     58          1           0        3.703364   -0.443118    7.145794
     59          1           0        2.031681   -0.002934    6.711016
     60          1           0        2.776494   -2.460014    7.445507
     61          1           0        1.674736   -3.921158    7.163257
     62          1           0        1.225799   -2.266942    6.668329
     63          1           0        4.039104   -5.392517    0.927951
     64          1           0        6.028709   -4.618299   -1.148114
     65          1           0        5.909414   -6.416557    1.675395
     66          1           0        6.574118   -4.788689    2.045464
     67          1           0        6.917978   -5.512057    0.560380
     68          1           0        4.188787   -6.306018   -1.514996
     69          1           0        4.373009   -5.118824   -2.801261
     70          1           0        2.360375   -5.443897   -0.705953
     71          1           0        2.086399   -5.102071   -2.448016
     72          1           0        2.578750   -3.797401   -1.277487
     73          1           0        5.195745    0.041949   -5.317580
     74          1           0        5.651812   -1.551339   -4.615795
     75          1           0        6.801179   -0.157957   -4.464128
     76          1           0        5.768683    4.068064   -1.772629
     77          1           0        3.637172    7.606091   -3.021038
     78          1           0        2.949095    7.320253   -1.310898
     79          1           0        2.304212    6.605667   -2.800604
     80         12           0       -3.662508   -0.854931   -0.848475
     81          6           0       -6.281460    1.329072    0.269705
     82          6           0       -2.057401    1.915935   -2.023442
     83          6           0       -1.561878   -2.783496   -2.239668
     84          6           0       -5.945587   -3.478704   -0.627025
     85          7           0       -4.200587    1.290279   -0.820027
     86          6           0       -5.191408    2.008408   -0.313168
     87          6           0       -4.965877    3.543300   -0.366172
     88          6           0       -3.925972    3.591456   -1.588933
     89          6           0       -3.326310    2.193187   -1.455035
     90          6           0       -4.598912    3.694468   -2.947562
     91          6           0       -4.326087    4.099374    0.954232
     92          6           0       -4.362469    5.622779    1.094491
     93          1           0       -4.553655    6.194947    2.424353
     94          7           0       -1.834290   -0.486863   -1.527223
     95          6           0       -1.343142    0.700556   -1.939657
     96          6           0        0.041327    0.438347   -2.362331
     97          6           0        0.274240   -1.030906   -2.320567
     98          6           0       -1.067257   -1.502634   -2.041398
     99          6           0        1.017354    1.534481   -2.677427
    100          6           0        1.498908   -1.872877   -2.514150
    101          8           0        1.425184   -3.143073   -2.669065
    102          6           0        2.778868   -1.155979   -2.610400
    103          7           0       -3.794307   -2.802948   -1.562738
    104          6           0       -2.718070   -3.426171   -2.073860
    105          6           0       -2.981591   -4.900656   -2.265840
    106          6           0       -4.382669   -5.183647   -1.548574
    107          6           0       -4.745471   -3.743450   -1.124808
    108          6           0       -3.045813   -5.381763   -3.715251
    109          6           0       -4.407836   -6.300262   -0.469125
    110          6           0       -3.590828   -5.877052    0.730357
    111          7           0       -5.678749   -1.104393   -0.113214
    112          6           0       -6.456901   -2.282446   -0.140281
    113          6           0       -7.799011   -1.929439    0.366217
    114          6           0       -7.714789   -0.554637    0.633295
    115          6           0       -6.418318   -0.079936    0.296666
    116          6           0       -8.905443   -2.817709    0.479857
    117          6           0       -8.431111    0.605112    1.113454
    118          8           0       -9.536568    0.795606    1.618824
    119          6           0       -7.574343    1.901852    0.780578
    120          6           0       -7.522168    2.754524    2.018614
    121          8           0       -6.936091    2.352086    3.038995
    122          8           0       -7.980675    3.985122    1.725741
    123          6           0       -7.938256    4.871025    2.919559
    124          1           0       -1.579561    2.687863   -2.627324
    125          1           0       -0.841567   -3.514293   -2.614589
    126          1           0       -6.683540   -4.260609   -0.435351
    127          1           0       -5.848530    4.124128   -0.605631
    128          1           0       -3.163964    4.349979   -1.429746
    129          1           0       -5.672031    3.598925   -2.873919
    130          1           0       -4.187248    2.889018   -3.541564
    131          1           0       -4.300021    4.620496   -3.447037
    132          1           0       -3.240673    3.939615    0.921078
    133          1           0       -4.776363    3.646296    1.815977
    134          1           0       -5.047400    6.086770    0.374397
    135          1           0       -3.380782    6.019645    0.824674
    136          1           0        0.513974    2.503558   -2.781875
    137          1           0        1.418839    1.328005   -3.675443
    138          1           0        1.844683    1.579165   -1.965966
    139          1           0        2.738547   -0.454866   -3.440636
    140          1           0        3.545560   -1.931786   -2.656960
    141          1           0        2.915115   -0.559706   -1.701279
    142          1           0       -2.214601   -5.496248   -1.786159
    143          1           0       -5.151415   -5.502729   -2.267637
    144          1           0       -2.323447   -6.189190   -3.939545
    145          1           0       -2.880314   -4.532285   -4.364523
    146          1           0       -4.022400   -5.735218   -4.041676
    147          1           0       -3.943371   -7.210904   -0.855353
    148          1           0       -5.408519   -6.562750   -0.142455
    149          1           0       -2.568858   -6.133873    0.435900
    150          1           0       -3.896864   -6.429428    1.616507
    151          1           0       -3.630454   -4.790510    0.870003
    152          1           0       -9.366895   -2.619247    1.438069
    153          1           0       -8.591809   -3.856173    0.396227
    154          1           0       -9.501035   -2.498322   -0.379520
    155          1           0       -8.063762    2.413860   -0.048814
    156          1           0       -8.950677    5.260484    3.064541
    157          1           0       -7.139212    5.608506    2.716066
    158          1           0       -7.750165    4.407752    3.881037
 ---------------------------------------------------------------------

 SCF Done:  E(RCAM-B3LYP) =  -4069.71419204     A.U. after   19 cycles

 Excitation energies and oscillator strengths:

 Excited State   1:      Singlet-A      1.5705 eV  789.44 nm  f=0.2460  <S**2>=0.000
     309 -> 315        0.14459
     311 -> 313        0.61788
     312 -> 314        0.30330
 This state for optimization and/or second-order correction.
 Total Energy, E(TD-HF/TD-DFT) =  -4069.65647600
 Copying the excited state density for this state as the 1-particle RhoCI density.

 Excited State   2:      Singlet-A      1.6865 eV  735.16 nm  f=0.5130  <S**2>=0.000
     310 -> 316        0.14838
     311 -> 313       -0.29596
     312 -> 314        0.61518

 Excited State   3:      Singlet-A      1.9322 eV  641.67 nm  f=0.0014  <S**2>=0.000
     312 -> 313        0.70133

 Excited State   4:      Singlet-A      2.0826 eV  595.34 nm  f=0.0680  <S**2>=0.000
     309 -> 313        0.65012
     311 -> 315       -0.24832

 Excited State   5:      Singlet-A      2.2000 eV  563.56 nm  f=0.0950  <S**2>=0.000
     310 -> 314        0.63581
     312 -> 316       -0.26555

 The electronic state is 1-A.
 Alpha  occ. eigenvalues --  -46.88527 -46.87046 -19.27261 -19.26043 -19.20258
 Alpha  occ. eigenvalues --  -19.19321 -19.18819 -19.18693 -19.17556 -19.17474
 Alpha  occ. eigenvalues --  -14.43192 -14.41895 -14.41702 -14.40754 -14.40031
 Alpha  occ. eigenvalues --  -14.39204 -14.38688 -14.37981 -10.40185 -10.38733
 Alpha  occ. eigenvalues --  -10.35935 -10.34977 -10.33793 -10.33672 -10.32519
 Alpha  occ. eigenvalues --  -10.32235 -10.31537 -10.31474 -10.31406 -10.31354
 Alpha  occ. eigenvalues --  -10.30736 -10.30563 -10.30539 -10.30342 -10.30285
 Alpha  occ. eigenvalues --  -10.29786 -10.29687 -10.29648 -10.29461 -10.29413
 Alpha  occ. eigenvalues --  -10.29355 -10.29125 -10.28936 -10.28750 -10.28682
 Alpha  occ. eigenvalues --  -10.28499 -10.28472 -10.28432 -10.28351 -10.28235
 Alpha  occ. eigenvalues --  -10.28195 -10.28059 -10.27984 -10.27915 -10.27710
 Alpha  occ. eigenvalues --  -10.27614 -10.27337 -10.27293 -10.27281 -10.27047
 Alpha  occ. eigenvalues --  -10.27027 -10.26969 -10.26960 -10.26879 -10.26791
 Alpha  occ. eigenvalues --  -10.26748 -10.26552 -10.26514 -10.26344 -10.26246
 Alpha  occ. eigenvalues --  -10.25990 -10.25732 -10.25521 -10.25397 -10.25395
 Alpha  occ. eigenvalues --  -10.25324 -10.25302 -10.25214 -10.25163 -10.25072
 Alpha  occ. eigenvalues --  -10.24720 -10.24337 -10.24199 -10.24133 -10.22785
 Alpha  occ. eigenvalues --  -10.21416  -3.17285  -3.15800  -1.92169  -1.91741
 Alpha  occ. eigenvalues --   -1.91602  -1.90683  -1.90271  -1.90105  -1.17639
 Alpha  occ. eigenvalues --   -1.16327  -1.09228  -1.08119  -1.07791  -1.07699
 Alpha  occ. eigenvalues --   -1.06597  -1.06489  -1.05336  -1.04340  -1.04181
 Alpha  occ. eigenvalues --   -1.03883  -1.03056  -1.03050  -1.02414  -1.01478
 Alpha  occ. eigenvalues --   -0.92989  -0.91392  -0.89910  -0.89759  -0.88948
 Alpha  occ. eigenvalues --   -0.88653  -0.88611  -0.88455  -0.88004  -0.87906
 Alpha  occ. eigenvalues --   -0.87723  -0.87189  -0.87056  -0.85995  -0.85621
 Alpha  occ. eigenvalues --   -0.84533  -0.84322  -0.83411  -0.83305  -0.82709
 Alpha  occ. eigenvalues --   -0.82321  -0.82248  -0.81356  -0.81160  -0.80974
 Alpha  occ. eigenvalues --   -0.79842  -0.79381  -0.77863  -0.77635  -0.77228
 Alpha  occ. eigenvalues --   -0.76585  -0.76460  -0.76328  -0.75188  -0.74848
 Alpha  occ. eigenvalues --   -0.74230  -0.73314  -0.72313  -0.72034  -0.71019
 Alpha  occ. eigenvalues --   -0.69618  -0.69279  -0.69128  -0.68410  -0.68190
 Alpha  occ. eigenvalues --   -0.67832  -0.67037  -0.66715  -0.65915  -0.65714
 Alpha  occ. eigenvalues --   -0.65163  -0.64775  -0.64280  -0.64215  -0.63944
 Alpha  occ. eigenvalues --   -0.63674  -0.62859  -0.61818  -0.60984  -0.60437
 Alpha  occ. eigenvalues --   -0.59942  -0.59588  -0.59244  -0.59115  -0.58476
 Alpha  occ. eigenvalues --   -0.58370  -0.57831  -0.57578  -0.57066  -0.57014
 Alpha  occ. eigenvalues --   -0.56829  -0.56649  -0.56145  -0.55847  -0.55610
 Alpha  occ. eigenvalues --   -0.55327  -0.55052  -0.54828  -0.54576  -0.54491
 Alpha  occ. eigenvalues --   -0.54098  -0.54039  -0.53854  -0.53699  -0.53496
 Alpha  occ. eigenvalues --   -0.53317  -0.53056  -0.52658  -0.52455  -0.52349
 Alpha  occ. eigenvalues --   -0.52224  -0.52136  -0.51992  -0.51737  -0.51356
 Alpha  occ. eigenvalues --   -0.51324  -0.51024  -0.50837  -0.50604  -0.50488
 Alpha  occ. eigenvalues --   -0.50225  -0.50063  -0.49855  -0.49714  -0.49419
 Alpha  occ. eigenvalues --   -0.49358  -0.49226  -0.49144  -0.49023  -0.48857
 Alpha  occ. eigenvalues --   -0.48710  -0.48568  -0.48475  -0.48157  -0.48024
 Alpha  occ. eigenvalues --   -0.47905  -0.47892  -0.47606  -0.47268  -0.47094
 Alpha  occ. eigenvalues --   -0.46951  -0.46514  -0.46409  -0.46222  -0.46143
 Alpha  occ. eigenvalues --   -0.46050  -0.45662  -0.45540  -0.45464  -0.45346
 Alpha  occ. eigenvalues --   -0.45165  -0.44978  -0.44871  -0.44716  -0.44615
 Alpha  occ. eigenvalues --   -0.44368  -0.44275  -0.44135  -0.43983  -0.43957
 Alpha  occ. eigenvalues --   -0.43785  -0.43653  -0.43539  -0.43477  -0.43366
 Alpha  occ. eigenvalues --   -0.43106  -0.43046  -0.42868  -0.42531  -0.42364
 Alpha  occ. eigenvalues --   -0.42276  -0.42165  -0.42073  -0.41761  -0.41607
 Alpha  occ. eigenvalues --   -0.41489  -0.41312  -0.41258  -0.41114  -0.41048
 Alpha  occ. eigenvalues --   -0.40806  -0.40729  -0.40399  -0.40217  -0.40028
 Alpha  occ. eigenvalues --   -0.39989  -0.39901  -0.38989  -0.38626  -0.38208
 Alpha  occ. eigenvalues --   -0.38128  -0.37971  -0.37894  -0.37579  -0.37384
 Alpha  occ. eigenvalues --   -0.37209  -0.36842  -0.36685  -0.36557  -0.36405
 Alpha  occ. eigenvalues --   -0.35821  -0.35574  -0.34879  -0.34649  -0.33672
 Alpha  occ. eigenvalues --   -0.33456  -0.32561  -0.32024  -0.31742  -0.31590
 Alpha  occ. eigenvalues --   -0.30614  -0.30408  -0.30105  -0.29633  -0.29493
 Alpha  occ. eigenvalues --   -0.29402  -0.28615  -0.28103  -0.24451  -0.23434
 Alpha  occ. eigenvalues --   -0.21586  -0.20451
 Alpha virt. eigenvalues --   -0.09582  -0.08087  -0.02294  -0.01135  -0.00733
 Alpha virt. eigenvalues --    0.00492   0.01757   0.02390   0.02896   0.03921
 Alpha virt. eigenvalues --    0.04033   0.04075   0.05233   0.05521   0.05549

 Mulliken charges:
               1
     1  Mg   0.821537
     2  C    0.003206
     3  C   -0.092062
     4  C   -0.050498
     5  C    0.048449
     6  N   -0.256402
     7  C   -0.062357
     8  C   -0.012844
     9  C   -0.087846
    10  C    0.049411
    11  C    0.104339
    12  C    0.053138
    13  C   -0.072392
    14  H    0.034839
    15  N   -0.424665
    16  C    0.169750
    17  C   -0.173170
    18  C   -0.001829
    19  C    0.153751
    20  C    0.109135
    21  C    0.014986
    22  O   -0.244810
    23  C    0.061252
    24  N   -0.344438
    25  C    0.056415
    26  C   -0.030251
    27  C   -0.015061
    28  C    0.040582
    29  C    0.077224
    30  C    0.038732
    31  C    0.053339
    32  N   -0.309402
    33  C   -0.082106
    34  C   -0.162844
    35  C    0.022761
    36  C    0.056243
    37  C    0.132396
    38  C    0.028407
    39  O   -0.186912
    40  C   -0.005108
    41  C    0.220676
    42  O   -0.256359
    43  O   -0.301976
    44  C    0.156716
    45  H   -0.015185
    46  H   -0.013638
    47  H   -0.028068
    48  H    0.001222
    49  H   -0.002398
    50  H    0.026972
    51  H    0.017341
    52  H    0.018650
    53  H    0.012706
    54  H    0.040489
    55  H    0.019056
    56  H    0.020034
    57  H    0.007729
    58  H    0.029932
    59  H    0.044469
    60  H    0.037581
    61  H    0.038675
    62  H    0.033831
    63  H    0.022215
    64  H    0.006645
    65  H    0.023905
    66  H    0.009690
    67  H    0.006071
    68  H   -0.004704
    69  H   -0.004223
    70  H   -0.026731
    71  H    0.027333
    72  H    0.018199
    73  H    0.042348
    74  H    0.010625
    75  H    0.048161
    76  H    0.037569
    77  H    0.046019
    78  H    0.048580
    79  H    0.051497
    80  Mg   0.833131
    81  C   -0.017077
    82  C   -0.086743
    83  C   -0.048710
    84  C   -0.065488
    85  N   -0.254096
    86  C   -0.052658
    87  C   -0.014757
    88  C   -0.089714
    89  C    0.044121
    90  C    0.114530
    91  C    0.062863
    92  C   -0.076281
    93  H    0.030800
    94  N   -0.423668
    95  C    0.160190
    96  C   -0.181054
    97  C    0.009312
    98  C    0.151431
    99  C    0.108152
   100  C    0.076741
   101  O   -0.270707
   102  C    0.068092
   103  N   -0.350082
   104  C    0.038951
   105  C   -0.019676
   106  C   -0.033860
   107  C    0.087343
   108  C    0.074101
   109  C    0.035269
   110  C   -0.007070
   111  N   -0.323283
   112  C    0.075674
   113  C   -0.165451
   114  C    0.001233
   115  C    0.094017
   116  C    0.132001
   117  C    0.040562
   118  O   -0.191555
   119  C    0.001289
   120  C    0.210998
   121  O   -0.252659
   122  O   -0.305435
   123  C    0.152697
   124  H   -0.013471
   125  H   -0.018888
   126  H   -0.042715
   127  H   -0.002098
   128  H   -0.003666
   129  H    0.021393
   130  H    0.015487
   131  H    0.015780
   132  H    0.013225
   133  H    0.036219
   134  H    0.020782
   135  H    0.018359
   136  H    0.015858
   137  H    0.025873
   138  H    0.051833
   139  H    0.039675
   140  H   -0.008836
   141  H    0.053434
   142  H    0.012658
   143  H    0.011022
   144  H    0.022354
   145  H    0.011931
   146  H    0.005254
   147  H    0.004357
   148  H    0.002795
   149  H    0.010430
   150  H    0.016799
   151  H    0.030518
   152  H    0.043762
   153  H    0.006907
   154  H    0.045159
   155  H    0.033868
   156  H    0.043004
   157  H    0.048708
   158  H    0.052200
 Sum of Mulliken charges =  -0.00000

 Dipole moment (field-independent basis, Debye):
    X=              5.4542    Y=              3.6276    Z=              2.5796  Tot=              7.0401
 Quadrupole moment (field-independent basis, Debye-Ang):
   XX=           -551.4593   YY=           -466.9909   ZZ=           -507.9439
   XY=              8.2968   XZ=             40.5791   YZ=             27.9171

 Normal termination of Gaussian 16 at Wed Sep  8 14:57:09 2021.
