 Gaussian 16, Revision A.03,
 Gaussian 16:  ES64L-G16RevA.03 25-Dec-2016

 -----------------------------------
 #p cam-b3lyp/Def2SVP td=(nstates=5)
 -----------------------------------

 --------------------------------
 TDDFT excited states in gaussian
 --------------------------------
 Symbolic Z-matrix:
 Charge =  0 Multiplicity = 1

                         Standard orientation:
 ---------------------------------------------------------------------
 Center     Atomic      Atomic             Coordinates (Angstroms)
 Number     Number       Type             X           Y           Z
 ---------------------------------------------------------------------
      1         12           0        4.943823   -1.101359    0.253611
      2          6           0        5.487038    1.956488   -1.525913
      3          6           0        5.843783    0.564372    3.092357
      4          6           0        4.911464   -3.887211    1.768405
      5          6           0        5.196097   -2.753707   -2.804454
      6          7           0        5.563873    0.993666    0.610059
      7          6           0        5.673642    2.080608   -0.147357
      8          6           0        5.931644    3.380737    0.671467
      9          6           0        6.575841    2.731933    1.977630
     10          6           0        5.929749    1.359328    1.910965
     11          6           0        8.089784    2.566836    1.892647
     12          6           0        4.606889    4.145702    1.005512
     13          6           0        4.790184    5.578971    1.512954
     14          1           0        3.812723    6.587216    1.131693
     15          7           0        4.845405   -1.508885    2.184178
     16          6           0        5.241419   -0.707616    3.202228
     17          6           0        4.962786   -1.459453    4.444720
     18          6           0        4.549032   -2.837369    4.059689
     19          6           0        4.780304   -2.807132    2.638078
     20          6           0        5.050946   -0.852226    5.811195
     21          6           0        4.037837   -4.000650    4.849366
     22          8           0        3.958661   -5.176713    4.354211
     23          6           0        3.711149   -3.742047    6.263382
     24          7           0        5.257493   -3.065671   -0.379415
     25          6           0        5.127198   -4.092716    0.467454
     26          6           0        5.117795   -5.403643   -0.261463
     27          6           0        5.024730   -5.045136   -1.814706
     28          6           0        5.082429   -3.501507   -1.704480
     29          6           0        6.330604   -6.312748   -0.019320
     30          6           0        3.862710   -5.684482   -2.615559
     31          6           0        2.541914   -5.119345   -2.143102
     32          7           0        5.103672   -0.521337   -1.831831
     33          6           0        5.219230   -1.375488   -2.938061
     34          6           0        5.408397   -0.521671   -4.125192
     35          6           0        5.406317    0.777664   -3.621637
     36          6           0        5.253500    0.736852   -2.206266
     37          6           0        5.612690   -0.979284   -5.456841
     38          6           0        5.522335    2.189910   -3.947149
     39          8           0        5.573583    2.837143   -4.994028
     40          6           0        5.701428    3.003809   -2.590196
     41          6           0        4.751583    4.169766   -2.630796
     42          8           0        3.516909    3.990348   -2.603273
     43          8           0        5.438592    5.309113   -2.456304
     44          6           0        4.551314    6.502801   -2.456612
     45          1           0        6.331896    0.917502    4.002843
     46          1           0        4.794879   -4.866483    2.237311
     47          1           0        5.197493   -3.194977   -3.802819
     48          1           0        6.637358    4.073895    0.213293
     49          1           0        6.267999    3.252009    2.884534
     50          1           0        8.461047    2.803794    0.895684
     51          1           0        8.282387    1.520827    2.131946
     52          1           0        8.587059    3.148381    2.669371
     53          1           0        4.143709    3.695802    1.883643
     54          1           0        3.936871    4.150803    0.145061
     55          1           0        5.802633    5.940108    1.330100
     56          1           0        4.697339    5.571269    2.599011
     57          1           0        5.538432    0.121565    5.786031
     58          1           0        5.725193   -1.478515    6.395029
     59          1           0        4.078635   -0.802186    6.301541
     60          1           0        4.600772   -3.377524    6.777427
     61          1           0        3.276847   -4.665258    6.645368
     62          1           0        2.976380   -2.938037    6.314679
     63          1           0        4.251623   -6.001226    0.019723
     64          1           0        5.920153   -5.347056   -2.358523
     65          1           0        6.068297   -7.301539    0.357763
     66          1           0        7.005212   -5.799424    0.665291
     67          1           0        6.972812   -6.458964   -0.887426
     68          1           0        3.830989   -6.759967   -2.444473
     69          1           0        3.940326   -5.521827   -3.690627
     70          1           0        2.314268   -5.729866   -1.270019
     71          1           0        1.779343   -5.239769   -2.913293
     72          1           0        2.648849   -4.089542   -1.801696
     73          1           0        4.992695   -0.349144   -6.094413
     74          1           0        5.345823   -2.030877   -5.559492
     75          1           0        6.683252   -0.807446   -5.567407
     76          1           0        6.741986    3.324603   -2.552081
     77          1           0        4.924187    7.179699   -3.225383
     78          1           0        4.523979    6.868848   -1.430129
     79          1           0        3.528929    6.343376   -2.801072
     80         12           0       -5.594062   -0.186806   -0.206524
     81          6           0       -2.938956    2.089853    0.597407
     82          6           0       -7.742251    2.053597    1.207870
     83          6           0       -7.889877   -2.358189   -0.492525
     84          6           0       -3.178594   -2.681698   -0.500985
     85          7           0       -5.263296    1.782212    0.745230
     86          6           0       -4.219126    2.573850    0.938508
     87          6           0       -4.575215    3.993259    1.456227
     88          6           0       -5.990566    3.653690    2.134708
     89          6           0       -6.381129    2.441423    1.291783
     90          6           0       -5.872525    3.210119    3.583380
     91          6           0       -4.731333    5.032687    0.291232
     92          6           0       -4.772969    6.496185    0.736419
     93          1           0       -4.156715    7.503018   -0.123226
     94          7           0       -7.567665    0.018380   -0.169403
     95          6           0       -8.272581    0.999780    0.431618
     96          6           0       -9.688739    0.686433    0.185711
     97          6           0       -9.767169   -0.648030   -0.468344
     98          6           0       -8.382312   -1.066017   -0.381372
     99          6           0      -10.799894    1.648516    0.490903
    100          6           0      -10.903158   -1.425486   -1.061033
    101          8           0      -10.785870   -2.666035   -1.361229
    102          6           0      -12.184412   -0.716626   -1.192906
    103          7           0       -5.571269   -2.265207   -0.252195
    104          6           0       -6.704055   -2.965054   -0.439081
    105          6           0       -6.407428   -4.420493   -0.711290
    106          6           0       -4.822743   -4.506363   -0.908686
    107          6           0       -4.451149   -3.036251   -0.615313
    108          6           0       -6.838259   -5.402273    0.378153
    109          6           0       -4.311564   -5.148990   -2.227174
    110          6           0       -4.665138   -4.266348   -3.402460
    111          7           0       -3.435375   -0.272710   -0.179439
    112          6           0       -2.626023   -1.424099   -0.294842
    113          6           0       -1.226004   -0.993125   -0.103433
    114          6           0       -1.320679    0.386280    0.134804
    115          6           0       -2.685067    0.783211    0.114734
    116          6           0       -0.084980   -1.844072   -0.112741
    117          6           0       -0.577445    1.594991    0.409241
    118          8           0        0.616313    1.889201    0.455154
    119          6           0       -1.601246    2.729483    0.846445
    120          6           0       -1.267498    3.978019    0.076849
    121          8           0       -1.403892    4.014314   -1.158746
    122          8           0       -1.051994    4.985033    0.942790
    123          6           0       -0.728141    6.247616    0.226669
    124          1           0       -8.470346    2.578278    1.827124
    125          1           0       -8.633970   -3.129840   -0.703114
    126          1           0       -2.359419   -3.382671   -0.674931
    127          1           0       -3.892993    4.390570    2.198185
    128          1           0       -6.701722    4.463022    1.991142
    129          1           0       -4.842940    3.082537    3.883051
    130          1           0       -6.404487    2.269924    3.647419
    131          1           0       -6.409359    3.905142    4.235364
    132          1           0       -5.736269    4.938844   -0.140086
    133          1           0       -3.960951    4.900222   -0.443349
    134          1           0       -4.440183    6.621029    1.774022
    135          1           0       -5.814660    6.826018    0.747537
    136          1           0      -10.452104    2.479033    1.117550
    137          1           0      -11.520070    1.115713    1.121243
    138          1           0      -11.310145    2.001519   -0.407820
    139          1           0      -12.509145   -0.372449   -0.213854
    140          1           0      -12.847595   -1.406895   -1.717879
    141          1           0      -12.027621    0.178495   -1.805121
    142          1           0       -6.893310   -4.750569   -1.621277
    143          1           0       -4.346760   -5.113308   -0.124529
    144          1           0       -7.522768   -6.189742    0.010183
    145          1           0       -7.299893   -4.841404    1.179932
    146          1           0       -6.023092   -5.909990    0.890910
    147          1           0       -4.807673   -6.107465   -2.398514
    148          1           0       -3.242634   -5.334389   -2.231237
    149          1           0       -5.698815   -4.549961   -3.621907
    150          1           0       -4.011261   -4.473205   -4.247271
    151          1           0       -4.667661   -3.208849   -3.113754
    152          1           0        0.676877   -1.336983   -0.689734
    153          1           0       -0.319940   -2.819577   -0.533396
    154          1           0        0.126065   -1.899045    0.958573
    155          1           0       -1.493663    2.870845    1.922556
    156          1           0        0.230950    6.600172    0.618483
    157          1           0       -1.604591    6.906767    0.372026
    158          1           0       -0.512138    6.181414   -0.833238
 ---------------------------------------------------------------------

 SCF Done:  E(RCAM-B3LYP) =  -4069.81120288     A.U. after   19 cycles

 Excitation energies and oscillator strengths:

 Excited State   1:      Singlet-A      1.6716 eV  741.72 nm  f=0.4146  <S**2>=0.000
     309 -> 315        0.16402
     311 -> 313        0.65201
     312 -> 314       -0.21380
 This state for optimization and/or second-order correction.
 Total Energy, E(TD-HF/TD-DFT) =  -4069.74977363
 Copying the excited state density for this state as the 1-particle RhoCI density.

 Excited State   2:      Singlet-A      1.6794 eV  738.26 nm  f=0.3844  <S**2>=0.000
     310 -> 316        0.16459
     311 -> 313        0.21381
     312 -> 314        0.65151

 Excited State   3:      Singlet-A      2.1775 eV  569.40 nm  f=0.0010  <S**2>=0.000
     309 -> 313        0.45659
     310 -> 314       -0.45646
     311 -> 315       -0.18946
     312 -> 316        0.18779

 Excited State   4:      Singlet-A      2.1913 eV  565.80 nm  f=0.1749  <S**2>=0.000
     309 -> 313        0.45260
     310 -> 314        0.45222
     311 -> 315       -0.19552
     312 -> 316       -0.19718

 Excited State   5:      Singlet-A      2.3619 eV  524.93 nm  f=0.0000  <S**2>=0.000
     312 -> 313        0.70529

 The electronic state is 1-A.
 Alpha  occ. eigenvalues --  -46.87553 -46.87201 -19.26128 -19.25667 -19.18843
 Alpha  occ. eigenvalues --  -19.18622 -19.18420 -19.18256 -19.17997 -19.17628
 Alpha  occ. eigenvalues --  -14.42400 -14.41840 -14.41251 -14.40929 -14.39247
 Alpha  occ. eigenvalues --  -14.38834 -14.38488 -14.37999 -10.38811 -10.38342
 Alpha  occ. eigenvalues --  -10.35301 -10.35061 -10.34105 -10.33836 -10.31592
 Alpha  occ. eigenvalues --  -10.31220 -10.31207 -10.30923 -10.30805 -10.30306
 Alpha  occ. eigenvalues --  -10.30290 -10.30252 -10.30041 -10.29998 -10.29982
 Alpha  occ. eigenvalues --  -10.29787 -10.29759 -10.29435 -10.29345 -10.29295
 Alpha  occ. eigenvalues --  -10.29118 -10.28748 -10.28636 -10.28576 -10.28295
 Alpha  occ. eigenvalues --  -10.28104 -10.28068 -10.28033 -10.27912 -10.27789
 Alpha  occ. eigenvalues --  -10.27575 -10.27533 -10.27414 -10.27384 -10.27376
 Alpha  occ. eigenvalues --  -10.27362 -10.27277 -10.27271 -10.27195 -10.27177
 Alpha  occ. eigenvalues --  -10.27128 -10.27076 -10.27053 -10.26919 -10.26827
 Alpha  occ. eigenvalues --  -10.26585 -10.26564 -10.26336 -10.26095 -10.26040
 Alpha  occ. eigenvalues --  -10.26019 -10.25989 -10.25849 -10.25847 -10.25823
 Alpha  occ. eigenvalues --  -10.25745 -10.25534 -10.25406 -10.25305 -10.25145
 Alpha  occ. eigenvalues --  -10.24774 -10.24643 -10.24627 -10.24584 -10.24298
 Alpha  occ. eigenvalues --  -10.24282  -3.16303  -3.15925  -1.91185  -1.90805
 Alpha  occ. eigenvalues --   -1.90774  -1.90610  -1.90394  -1.90238  -1.16401
 Alpha  occ. eigenvalues --   -1.15994  -1.08534  -1.08074  -1.06875  -1.06832
 Alpha  occ. eigenvalues --   -1.06646  -1.05903  -1.04395  -1.03982  -1.03560
 Alpha  occ. eigenvalues --   -1.03227  -1.02933  -1.02691  -1.02005  -1.01867
 Alpha  occ. eigenvalues --   -0.91870  -0.91402  -0.89387  -0.89135  -0.89069
 Alpha  occ. eigenvalues --   -0.88577  -0.88118  -0.87894  -0.87722  -0.87586
 Alpha  occ. eigenvalues --   -0.87362  -0.87115  -0.87026  -0.86809  -0.84908
 Alpha  occ. eigenvalues --   -0.84417  -0.83768  -0.83605  -0.82838  -0.82586
 Alpha  occ. eigenvalues --   -0.82554  -0.82135  -0.81465  -0.81062  -0.80327
 Alpha  occ. eigenvalues --   -0.80075  -0.78546  -0.78309  -0.77061  -0.76792
 Alpha  occ. eigenvalues --   -0.76783  -0.76422  -0.75738  -0.75404  -0.74699
 Alpha  occ. eigenvalues --   -0.74498  -0.72610  -0.72275  -0.71482  -0.71174
 Alpha  occ. eigenvalues --   -0.69656  -0.69623  -0.68734  -0.68346  -0.67495
 Alpha  occ. eigenvalues --   -0.67140  -0.67106  -0.66631  -0.65171  -0.64704
 Alpha  occ. eigenvalues --   -0.64660  -0.64533  -0.64342  -0.64125  -0.64096
 Alpha  occ. eigenvalues --   -0.63830  -0.62121  -0.61765  -0.60241  -0.59988
 Alpha  occ. eigenvalues --   -0.59709  -0.59215  -0.58883  -0.58475  -0.58308
 Alpha  occ. eigenvalues --   -0.57993  -0.57403  -0.57122  -0.57024  -0.56820
 Alpha  occ. eigenvalues --   -0.56106  -0.55816  -0.55737  -0.55426  -0.55345
 Alpha  occ. eigenvalues --   -0.55124  -0.55063  -0.54926  -0.54344  -0.54047
 Alpha  occ. eigenvalues --   -0.53822  -0.53288  -0.53131  -0.53033  -0.52849
 Alpha  occ. eigenvalues --   -0.52755  -0.52711  -0.52580  -0.52420  -0.52309
 Alpha  occ. eigenvalues --   -0.52296  -0.52094  -0.51818  -0.51565  -0.51429
 Alpha  occ. eigenvalues --   -0.51098  -0.51050  -0.50700  -0.50388  -0.50176
 Alpha  occ. eigenvalues --   -0.49892  -0.49778  -0.49701  -0.49447  -0.49391
 Alpha  occ. eigenvalues --   -0.49089  -0.49024  -0.48990  -0.48700  -0.48571
 Alpha  occ. eigenvalues --   -0.48440  -0.48270  -0.48235  -0.48120  -0.48018
 Alpha  occ. eigenvalues --   -0.47972  -0.47488  -0.47229  -0.47012  -0.46832
 Alpha  occ. eigenvalues --   -0.46607  -0.46461  -0.46339  -0.46162  -0.45969
 Alpha  occ. eigenvalues --   -0.45967  -0.45885  -0.45714  -0.45664  -0.45317
 Alpha  occ. eigenvalues --   -0.45105  -0.44816  -0.44415  -0.44398  -0.44111
 Alpha  occ. eigenvalues --   -0.44067  -0.44035  -0.43975  -0.43844  -0.43745
 Alpha  occ. eigenvalues --   -0.43568  -0.43508  -0.43426  -0.43281  -0.42992
 Alpha  occ. eigenvalues --   -0.42876  -0.42806  -0.42732  -0.42546  -0.42453
 Alpha  occ. eigenvalues --   -0.42345  -0.42104  -0.41861  -0.41583  -0.41551
 Alpha  occ. eigenvalues --   -0.41364  -0.41186  -0.40999  -0.40893  -0.40650
 Alpha  occ. eigenvalues --   -0.40632  -0.40610  -0.40425  -0.40395  -0.40393
 Alpha  occ. eigenvalues --   -0.40138  -0.40124  -0.39549  -0.39323  -0.39179
 Alpha  occ. eigenvalues --   -0.38253  -0.38065  -0.37558  -0.37177  -0.37160
 Alpha  occ. eigenvalues --   -0.37099  -0.36872  -0.36669  -0.36552  -0.36147
 Alpha  occ. eigenvalues --   -0.36059  -0.35618  -0.34146  -0.33729  -0.33581
 Alpha  occ. eigenvalues --   -0.33051  -0.33042  -0.32624  -0.31180  -0.30949
 Alpha  occ. eigenvalues --   -0.30864  -0.30486  -0.29848  -0.29478  -0.29225
 Alpha  occ. eigenvalues --   -0.29105  -0.28935  -0.28776  -0.23927  -0.23509
 Alpha  occ. eigenvalues --   -0.21015  -0.20596
 Alpha virt. eigenvalues --   -0.08687  -0.08243  -0.01581  -0.01229   0.00070
 Alpha virt. eigenvalues --    0.00448   0.02318   0.02720   0.03367   0.03844
 Alpha virt. eigenvalues --    0.04813   0.05090   0.05443   0.05791   0.06121

 Mulliken charges:
               1
     1  Mg   0.836814
     2  C    0.005298
     3  C   -0.093057
     4  C   -0.047489
     5  C   -0.065456
     6  N   -0.255887
     7  C   -0.045910
     8  C   -0.017914
     9  C   -0.088314
    10  C    0.050696
    11  C    0.105280
    12  C    0.056619
    13  C   -0.069206
    14  H    0.027855
    15  N   -0.432284
    16  C    0.171015
    17  C   -0.177727
    18  C   -0.005299
    19  C    0.148314
    20  C    0.110803
    21  C    0.010817
    22  O   -0.251779
    23  C    0.062925
    24  N   -0.340223
    25  C    0.040686
    26  C   -0.027751
    27  C   -0.023922
    28  C    0.074120
    29  C    0.076666
    30  C    0.036711
    31  C   -0.007624
    32  N   -0.310678
    33  C    0.080459
    34  C   -0.170355
    35  C    0.007490
    36  C    0.086095
    37  C    0.127281
    38  C    0.048400
    39  O   -0.189280
    40  C   -0.007879
    41  C    0.210414
    42  O   -0.247739
    43  O   -0.306211
    44  C    0.158626
    45  H   -0.019268
    46  H   -0.019189
    47  H   -0.043859
    48  H   -0.001210
    49  H   -0.004942
    50  H    0.024700
    51  H    0.015586
    52  H    0.014938
    53  H    0.017249
    54  H    0.052577
    55  H    0.015682
    56  H    0.016792
    57  H    0.005566
    58  H    0.025218
    59  H    0.038506
    60  H    0.037010
    61  H    0.033852
    62  H    0.031057
    63  H    0.014327
    64  H    0.008915
    65  H    0.021798
    66  H    0.012823
    67  H    0.003933
    68  H    0.005184
    69  H    0.004669
    70  H    0.007177
    71  H    0.015432
    72  H    0.031137
    73  H    0.047675
    74  H    0.007741
    75  H    0.044965
    76  H    0.033402
    77  H    0.041023
    78  H    0.043931
    79  H    0.053600
    80  Mg   0.838312
    81  C   -0.016332
    82  C   -0.087895
    83  C   -0.045616
    84  C   -0.065301
    85  N   -0.254423
    86  C   -0.050097
    87  C   -0.014890
    88  C   -0.090480
    89  C    0.045699
    90  C    0.114597
    91  C    0.062574
    92  C   -0.077571
    93  H    0.035037
    94  N   -0.423378
    95  C    0.162874
    96  C   -0.174825
    97  C   -0.007932
    98  C    0.152092
    99  C    0.099485
   100  C    0.015514
   101  O   -0.253362
   102  C    0.061209
   103  N   -0.350112
   104  C    0.037517
   105  C   -0.019832
   106  C   -0.034841
   107  C    0.088819
   108  C    0.073681
   109  C    0.034659
   110  C   -0.007582
   111  N   -0.324392
   112  C    0.079423
   113  C   -0.162497
   114  C    0.002544
   115  C    0.097290
   116  C    0.119101
   117  C    0.046793
   118  O   -0.183488
   119  C   -0.001073
   120  C    0.214510
   121  O   -0.246310
   122  O   -0.307875
   123  C    0.152191
   124  H   -0.020115
   125  H   -0.015766
   126  H   -0.040020
   127  H   -0.001457
   128  H   -0.004496
   129  H    0.021616
   130  H    0.014353
   131  H    0.015742
   132  H    0.013971
   133  H    0.038987
   134  H    0.019850
   135  H    0.019277
   136  H    0.008497
   137  H    0.025795
   138  H    0.039699
   139  H    0.038043
   140  H    0.036207
   141  H    0.033948
   142  H    0.014292
   143  H    0.012861
   144  H    0.024901
   145  H    0.011428
   146  H    0.005867
   147  H    0.005936
   148  H    0.003651
   149  H    0.010780
   150  H    0.017679
   151  H    0.030676
   152  H    0.053124
   153  H    0.012137
   154  H    0.051102
   155  H    0.032786
   156  H    0.039756
   157  H    0.047881
   158  H    0.057806
 Sum of Mulliken charges =  -0.00000

 Dipole moment (field-independent basis, Debye):
    X=             -1.8365    Y=              2.3489    Z=              6.1689  Tot=              6.8516
 Quadrupole moment (field-independent basis, Debye-Ang):
   XX=           -480.4526   YY=           -478.2165   ZZ=           -512.0823
   XY=            -29.2072   XZ=              6.2124   YZ=             43.5005

 Normal termination of Gaussian 16 at Fri Sep 10 18:33:18 2021.
