 Gaussian 16, Revision A.03,
 Gaussian 16:  ES64L-G16RevA.03 25-Dec-2016

 -----------------------------------
 #p cam-b3lyp/Def2SVP td=(nstates=5)
 -----------------------------------

 --------------------------------
 TDDFT excited states in gaussian
 --------------------------------
 Symbolic Z-matrix:
 Charge =  0 Multiplicity = 1

                         Standard orientation:
 ---------------------------------------------------------------------
 Center     Atomic      Atomic             Coordinates (Angstroms)
 Number     Number       Type             X           Y           Z
 ---------------------------------------------------------------------
      1         12           0        6.710458   -0.589264    0.759393
      2          6           0        7.121346    2.315862   -1.290882
      3          6           0        7.264635    1.421134    3.460181
      4          6           0        6.803420   -3.204682    2.550361
      5          6           0        7.316019   -2.503937   -2.088937
      6          7           0        7.126614    1.577974    0.934157
      7          6           0        7.198702    2.590870    0.076243
      8          6           0        7.288552    3.982965    0.770053
      9          6           0        7.890402    3.526129    2.174003
     10          6           0        7.367506    2.100931    2.210251
     11          6           0        9.415044    3.490773    2.200808
     12          6           0        5.884222    4.654329    0.939931
     13          6           0        5.910782    6.141108    1.306180
     14          1           0        4.882076    7.014789    0.762312
     15          7           0        6.509739   -0.812759    2.711984
     16          6           0        6.764284    0.116909    3.663935
     17          6           0        6.461974   -0.531547    4.958073
     18          6           0        6.193038   -1.972259    4.693274
     19          6           0        6.521213   -2.060803    3.293332
     20          6           0        6.402006    0.212192    6.256921
     21          6           0        5.726024   -3.093869    5.566211
     22          8           0        5.780613   -4.315137    5.191913
     23          6           0        5.279434   -2.728416    6.922693
     24          7           0        7.231108   -2.569823    0.354494
     25          6           0        7.127273   -3.516437    1.293709
     26          6           0        7.279051   -4.887988    0.705705
     27          6           0        7.266773   -4.693359   -0.879136
     28          6           0        7.187450   -3.147481   -0.926444
     29          6           0        8.543279   -5.655818    1.115798
     30          6           0        6.221909   -5.510368   -1.679871
     31          6           0        4.828379   -5.023123   -1.351599
     32          7           0        6.968823   -0.204452   -1.361034
     33          6           0        7.233439   -1.149018   -2.363255
     34          6           0        7.434383   -0.402135   -3.618586
     35          6           0        7.288140    0.934797   -3.253797
     36          6           0        7.039274    1.019327   -1.854079
     37          6           0        7.770085   -0.967793   -4.880240
     38          6           0        7.308656    2.313004   -3.716376
     39          8           0        7.379810    2.856452   -4.819597
     40          6           0        7.322497    3.268844   -2.442797
     41          6           0        6.283916    4.334722   -2.663171
     42          8           0        5.069697    4.048200   -2.693893
     43          8           0        6.859308    5.543005   -2.565620
     44          6           0        5.877746    6.645962   -2.744993
     45          1           0        7.655763    1.904423    4.357617
     46          1           0        6.736029   -4.139768    3.110280
     47          1           0        7.425044   -3.039028   -3.034052
     48          1           0        7.964651    4.688697    0.287086
     49          1           0        7.476682    4.102708    3.001115
     50          1           0        9.834996    3.661372    1.209618
     51          1           0        9.676835    2.494931    2.558939
     52          1           0        9.805698    4.188153    2.942312
     53          1           0        5.399109    4.252743    1.829568
     54          1           0        5.278830    4.514570    0.043664
     55          1           0        6.899961    6.572449    1.150040
     56          1           0        5.742118    6.231577    2.379291
     57          1           0        6.807054    1.218818    6.161086
     58          1           0        7.083072   -0.290436    6.943377
     59          1           0        5.396593    0.222131    6.678084
     60          1           0        6.096820   -2.236475    7.450352
     61          1           0        4.897722   -3.645130    7.370778
     62          1           0        4.478333   -1.992842    6.844485
     63          1           0        6.448034   -5.530828    0.993094
     64          1           0        8.220578   -4.965111   -1.331995
     65          1           0        8.338349   -6.622490    1.576508
     66          1           0        9.122427   -5.019082    1.783964
     67          1           0        9.255393   -5.827896    0.309138
     68          1           0        6.268024   -6.562353   -1.400321
     69          1           0        6.361722   -5.447563   -2.759111
     70          1           0        4.591150   -5.563141   -0.435665
     71          1           0        4.135070   -5.286789   -2.150982
     72          1           0        4.824495   -3.959382   -1.113007
     73          1           0        7.146434   -0.461721   -5.617071
     74          1           0        7.599887   -2.044152   -4.889500
     75          1           0        8.827703   -0.711733   -4.941355
     76          1           0        8.327312    3.684402   -2.373656
     77          1           0        6.246390    7.275096   -3.555256
     78          1           0        5.747223    7.106918   -1.765765
     79          1           0        4.899249    6.361939   -3.133857
     80         12           0       -6.425749   -0.704284   -0.736294
     81          6           0       -8.472358    1.603885    1.097500
     82          6           0       -5.344850    1.952326   -2.582565
     83          6           0       -4.960676   -2.761895   -2.656505
     84          6           0       -8.480240   -3.255773    0.453093
     85          7           0       -6.917521    1.450736   -0.656942
     86          6           0       -7.661932    2.221129    0.121961
     87          6           0       -7.469681    3.744319   -0.107108
     88          6           0       -6.934704    3.694274   -1.620429
     89          6           0       -6.327208    2.292977   -1.618704
     90          6           0       -8.048235    3.730836   -2.653911
     91          6           0       -6.400562    4.363928    0.859888
     92          6           0       -6.383990    5.893456    0.905004
     93          1           0       -6.087716    6.549131    2.175742
     94          7           0       -4.960096   -0.420717   -2.043974
     95          6           0       -4.648133    0.727824   -2.680215
     96          6           0       -3.505818    0.408271   -3.550360
     97          6           0       -3.273802   -1.060839   -3.499295
     98          6           0       -4.427454   -1.483334   -2.730744
     99          6           0       -2.706194    1.460264   -4.262641
    100          6           0       -2.199179   -1.941372   -4.061461
    101          8           0       -2.323761   -3.216533   -4.097405
    102          6           0       -1.037664   -1.261733   -4.653457
    103          7           0       -6.804431   -2.688237   -1.229112
    104          6           0       -5.981734   -3.366172   -2.048554
    105          6           0       -6.296891   -4.842979   -2.038243
    106          6           0       -7.349755   -5.049323   -0.852290
    107          6           0       -7.536940   -3.578073   -0.421241
    108          6           0       -6.874392   -5.409021   -3.335346
    109          6           0       -6.988330   -6.097873    0.235172
    110          6           0       -5.796865   -5.622300    1.034929
    111          7           0       -8.046804   -0.861675    0.683373
    112          6           0       -8.783744   -2.020690    1.011519
    113          6           0       -9.856551   -1.606457    1.938844
    114          6           0       -9.682095   -0.220397    2.068839
    115          6           0       -8.591031    0.202669    1.262560
    116          6           0      -10.849829   -2.460111    2.496334
    117          6           0      -10.179474    0.982659    2.696515
    118          8           0      -11.031672    1.229115    3.549014
    119          6           0       -9.497544    2.236551    1.997137
    120          6           0       -9.006626    3.160908    3.077451
    121          8           0       -8.095078    2.807172    3.845931
    122          8           0       -9.539073    4.381984    2.888115
    123          6           0       -9.073046    5.337067    3.928519
    124          1           0       -5.113789    2.675015   -3.365644
    125          1           0       -4.421868   -3.530638   -3.215252
    126          1           0       -9.101419   -4.007201    0.945208
    127          1           0       -8.379476    4.330138   -0.053532
    128          1           0       -6.165820    4.442974   -1.792534
    129          1           0       -9.024410    3.665051   -2.196857
    130          1           0       -7.875968    2.881610   -3.302122
    131          1           0       -7.947003    4.617793   -3.285885
    132          1           0       -5.398526    4.177107    0.452738
    133          1           0       -6.513730    3.974332    1.852882
    134          1           0       -7.280670    6.329055    0.447670
    135          1           0       -5.563135    6.250233    0.278167
    136          1           0       -3.213382    2.432785   -4.243429
    137          1           0       -2.687447    1.184602   -5.322614
    138          1           0       -1.679393    1.528416   -3.896994
    139          1           0       -1.371432   -0.611246   -5.458382
    140          1           0       -0.338335   -2.056679   -4.919719
    141          1           0       -0.585692   -0.615049   -3.893102
    142          1           0       -5.409402   -5.426326   -1.825716
    143          1           0       -8.324628   -5.393124   -1.228131
    144          1           0       -6.279917   -6.245204   -3.749453
    145          1           0       -6.951266   -4.604382   -4.054488
    146          1           0       -7.903278   -5.758589   -3.268920
    147          1           0       -6.692615   -7.040783   -0.231350
    148          1           0       -7.806588   -6.316685    0.913096
    149          1           0       -4.947394   -5.920256    0.413064
    150          1           0       -5.766626   -6.112883    2.005729
    151          1           0       -5.783680   -4.528671    1.108900
    152          1           0      -10.938801   -2.193462    3.541068
    153          1           0      -10.587041   -3.508787    2.373873
    154          1           0      -11.712822   -2.179310    1.886704
    155          1           0      -10.250593    2.708894    1.365180
    156          1           0       -9.966898    5.758147    4.399065
    157          1           0       -8.399030    6.042028    3.406511
    158          1           0       -8.554297    4.928372    4.787784
 ---------------------------------------------------------------------

 SCF Done:  E(RCAM-B3LYP) =  -4069.81225099     A.U. after   19 cycles

 Excitation energies and oscillator strengths:

 Excited State   1:      Singlet-A      1.6657 eV  744.35 nm  f=0.1138  <S**2>=0.000
     309 -> 315        0.11264
     310 -> 316        0.12985
     311 -> 313       -0.44871
     312 -> 314        0.51969
 This state for optimization and/or second-order correction.
 Total Energy, E(TD-HF/TD-DFT) =  -4069.75103848
 Copying the excited state density for this state as the 1-particle RhoCI density.

 Excited State   2:      Singlet-A      1.6894 eV  733.88 nm  f=0.6453  <S**2>=0.000
     309 -> 315       -0.13489
     310 -> 316        0.11584
     311 -> 313        0.51855
     312 -> 314        0.44789

 Excited State   3:      Singlet-A      2.1873 eV  566.84 nm  f=0.0331  <S**2>=0.000
     309 -> 313       -0.23304
     310 -> 314        0.59904
     312 -> 316       -0.25492

 Excited State   4:      Singlet-A      2.1942 eV  565.05 nm  f=0.1556  <S**2>=0.000
     309 -> 313        0.59698
     310 -> 314        0.23152
     311 -> 315        0.26035
     312 -> 316       -0.10110

 Excited State   5:      Singlet-A      2.6621 eV  465.74 nm  f=0.0000  <S**2>=0.000
     312 -> 313        0.70702

 The electronic state is 1-A.
 Alpha  occ. eigenvalues --  -46.87827 -46.87528 -19.26429 -19.26286 -19.19171
 Alpha  occ. eigenvalues --  -19.19089 -19.18808 -19.18517 -19.18242 -19.17937
 Alpha  occ. eigenvalues --  -14.42484 -14.42367 -14.41471 -14.41230 -14.39429
 Alpha  occ. eigenvalues --  -14.39211 -14.38625 -14.38470 -10.39221 -10.39016
 Alpha  occ. eigenvalues --  -10.35439 -10.35183 -10.34465 -10.34118 -10.31844
 Alpha  occ. eigenvalues --  -10.31713 -10.31450 -10.31188 -10.30946 -10.30882
 Alpha  occ. eigenvalues --  -10.30609 -10.30536 -10.30267 -10.30229 -10.30211
 Alpha  occ. eigenvalues --  -10.29998 -10.29943 -10.29780 -10.29660 -10.29285
 Alpha  occ. eigenvalues --  -10.29274 -10.29249 -10.28810 -10.28633 -10.28608
 Alpha  occ. eigenvalues --  -10.28579 -10.28403 -10.28264 -10.28166 -10.28023
 Alpha  occ. eigenvalues --  -10.27859 -10.27828 -10.27757 -10.27608 -10.27531
 Alpha  occ. eigenvalues --  -10.27480 -10.27477 -10.27445 -10.27434 -10.27407
 Alpha  occ. eigenvalues --  -10.27355 -10.27304 -10.27269 -10.27241 -10.27181
 Alpha  occ. eigenvalues --  -10.26948 -10.26790 -10.26596 -10.26375 -10.26277
 Alpha  occ. eigenvalues --  -10.26122 -10.26106 -10.26038 -10.26037 -10.25914
 Alpha  occ. eigenvalues --  -10.25890 -10.25804 -10.25747 -10.25420 -10.25301
 Alpha  occ. eigenvalues --  -10.24876 -10.24810 -10.24738 -10.24630 -10.24592
 Alpha  occ. eigenvalues --  -10.24561  -3.16570  -3.16278  -1.91452  -1.91161
 Alpha  occ. eigenvalues --   -1.91038  -1.90880  -1.90749  -1.90586  -1.16777
 Alpha  occ. eigenvalues --   -1.16578  -1.08708  -1.08551  -1.07207  -1.06873
 Alpha  occ. eigenvalues --   -1.06790  -1.06769  -1.04618  -1.04364  -1.03785
 Alpha  occ. eigenvalues --   -1.03530  -1.03263  -1.02906  -1.02440  -1.01979
 Alpha  occ. eigenvalues --   -0.92022  -0.91864  -0.89520  -0.89373  -0.89241
 Alpha  occ. eigenvalues --   -0.89037  -0.88284  -0.88105  -0.87911  -0.87707
 Alpha  occ. eigenvalues --   -0.87670  -0.87554  -0.87284  -0.86914  -0.85030
 Alpha  occ. eigenvalues --   -0.84879  -0.83931  -0.83766  -0.82957  -0.82738
 Alpha  occ. eigenvalues --   -0.82689  -0.82496  -0.81664  -0.81496  -0.80644
 Alpha  occ. eigenvalues --   -0.80317  -0.78818  -0.78462  -0.77243  -0.77012
 Alpha  occ. eigenvalues --   -0.76986  -0.76794  -0.75980  -0.75718  -0.74909
 Alpha  occ. eigenvalues --   -0.74688  -0.72803  -0.72567  -0.71706  -0.71460
 Alpha  occ. eigenvalues --   -0.69879  -0.69646  -0.68915  -0.68699  -0.67676
 Alpha  occ. eigenvalues --   -0.67469  -0.67266  -0.67056  -0.65340  -0.65157
 Alpha  occ. eigenvalues --   -0.64902  -0.64660  -0.64650  -0.64539  -0.64274
 Alpha  occ. eigenvalues --   -0.64087  -0.62382  -0.62183  -0.60451  -0.60164
 Alpha  occ. eigenvalues --   -0.59851  -0.59673  -0.59022  -0.58869  -0.58542
 Alpha  occ. eigenvalues --   -0.58301  -0.57668  -0.57452  -0.57332  -0.57099
 Alpha  occ. eigenvalues --   -0.56349  -0.56074  -0.56064  -0.55784  -0.55547
 Alpha  occ. eigenvalues --   -0.55370  -0.55295  -0.55141  -0.54571  -0.54389
 Alpha  occ. eigenvalues --   -0.53950  -0.53796  -0.53322  -0.53262  -0.53092
 Alpha  occ. eigenvalues --   -0.52996  -0.52975  -0.52784  -0.52772  -0.52456
 Alpha  occ. eigenvalues --   -0.52405  -0.52290  -0.51963  -0.51773  -0.51665
 Alpha  occ. eigenvalues --   -0.51514  -0.51238  -0.51085  -0.50562  -0.50244
 Alpha  occ. eigenvalues --   -0.50023  -0.49930  -0.49820  -0.49730  -0.49551
 Alpha  occ. eigenvalues --   -0.49325  -0.49260  -0.49147  -0.49055  -0.48989
 Alpha  occ. eigenvalues --   -0.48656  -0.48487  -0.48458  -0.48443  -0.48266
 Alpha  occ. eigenvalues --   -0.48153  -0.47723  -0.47450  -0.47322  -0.46960
 Alpha  occ. eigenvalues --   -0.46822  -0.46609  -0.46587  -0.46428  -0.46390
 Alpha  occ. eigenvalues --   -0.46200  -0.46132  -0.45971  -0.45890  -0.45722
 Alpha  occ. eigenvalues --   -0.45203  -0.45091  -0.44637  -0.44522  -0.44400
 Alpha  occ. eigenvalues --   -0.44348  -0.44170  -0.44119  -0.44056  -0.44004
 Alpha  occ. eigenvalues --   -0.43945  -0.43758  -0.43567  -0.43459  -0.43416
 Alpha  occ. eigenvalues --   -0.43266  -0.43064  -0.42836  -0.42808  -0.42784
 Alpha  occ. eigenvalues --   -0.42647  -0.42422  -0.42022  -0.41853  -0.41744
 Alpha  occ. eigenvalues --   -0.41577  -0.41549  -0.41342  -0.41175  -0.40901
 Alpha  occ. eigenvalues --   -0.40868  -0.40829  -0.40597  -0.40572  -0.40530
 Alpha  occ. eigenvalues --   -0.40382  -0.40295  -0.40098  -0.39402  -0.39316
 Alpha  occ. eigenvalues --   -0.38473  -0.38239  -0.37811  -0.37548  -0.37329
 Alpha  occ. eigenvalues --   -0.37316  -0.37147  -0.37074  -0.36815  -0.36691
 Alpha  occ. eigenvalues --   -0.36242  -0.36110  -0.34321  -0.34126  -0.33902
 Alpha  occ. eigenvalues --   -0.33779  -0.33224  -0.33045  -0.31340  -0.31083
 Alpha  occ. eigenvalues --   -0.31067  -0.30839  -0.30105  -0.29846  -0.29476
 Alpha  occ. eigenvalues --   -0.29361  -0.29171  -0.29073  -0.24114  -0.23907
 Alpha  occ. eigenvalues --   -0.21156  -0.20980
 Alpha virt. eigenvalues --   -0.08803  -0.08649  -0.01772  -0.01548  -0.00080
 Alpha virt. eigenvalues --    0.00138   0.02154   0.02332   0.03082   0.03352
 Alpha virt. eigenvalues --    0.04675   0.04846   0.04969   0.05245   0.06101

 Mulliken charges:
               1
     1  Mg   0.838464
     2  C   -0.003517
     3  C   -0.094142
     4  C   -0.045530
     5  C   -0.063691
     6  N   -0.256840
     7  C   -0.052696
     8  C   -0.013993
     9  C   -0.087049
    10  C    0.046358
    11  C    0.104773
    12  C    0.053481
    13  C   -0.071609
    14  H    0.035095
    15  N   -0.433240
    16  C    0.168629
    17  C   -0.176912
    18  C   -0.003643
    19  C    0.148833
    20  C    0.110099
    21  C    0.012650
    22  O   -0.249185
    23  C    0.062295
    24  N   -0.341175
    25  C    0.041430
    26  C   -0.028268
    27  C   -0.023981
    28  C    0.074872
    29  C    0.076134
    30  C    0.035006
    31  C   -0.004715
    32  N   -0.310233
    33  C    0.079967
    34  C   -0.170175
    35  C    0.007927
    36  C    0.082425
    37  C    0.127467
    38  C    0.045336
    39  O   -0.189287
    40  C   -0.005076
    41  C    0.212989
    42  O   -0.258658
    43  O   -0.304366
    44  C    0.158061
    45  H   -0.017436
    46  H   -0.016407
    47  H   -0.041277
    48  H    0.000790
    49  H   -0.003933
    50  H    0.025429
    51  H    0.016653
    52  H    0.016788
    53  H    0.011476
    54  H    0.043178
    55  H    0.018061
    56  H    0.018379
    57  H    0.005876
    58  H    0.027059
    59  H    0.040214
    60  H    0.037293
    61  H    0.036138
    62  H    0.032019
    63  H    0.017094
    64  H    0.009391
    65  H    0.023481
    66  H    0.012397
    67  H    0.004806
    68  H    0.006653
    69  H    0.004721
    70  H    0.009169
    71  H    0.020045
    72  H    0.028090
    73  H    0.046735
    74  H    0.009483
    75  H    0.046055
    76  H    0.035282
    77  H    0.042960
    78  H    0.046666
    79  H    0.052361
    80  Mg   0.837581
    81  C   -0.016906
    82  C   -0.087298
    83  C   -0.045533
    84  C   -0.064962
    85  N   -0.254531
    86  C   -0.050260
    87  C   -0.015082
    88  C   -0.090540
    89  C    0.045688
    90  C    0.114371
    91  C    0.062439
    92  C   -0.077623
    93  H    0.033903
    94  N   -0.423635
    95  C    0.163013
    96  C   -0.173960
    97  C   -0.007415
    98  C    0.152137
    99  C    0.098842
   100  C    0.015489
   101  O   -0.254039
   102  C    0.061191
   103  N   -0.350037
   104  C    0.037669
   105  C   -0.019847
   106  C   -0.034631
   107  C    0.088622
   108  C    0.073757
   109  C    0.034807
   110  C   -0.007598
   111  N   -0.323944
   112  C    0.078001
   113  C   -0.163563
   114  C    0.002000
   115  C    0.095885
   116  C    0.131591
   117  C    0.042016
   118  O   -0.188673
   119  C    0.000992
   120  C    0.211211
   121  O   -0.251319
   122  O   -0.305576
   123  C    0.152205
   124  H   -0.019178
   125  H   -0.015673
   126  H   -0.040882
   127  H   -0.000975
   128  H   -0.004034
   129  H    0.022231
   130  H    0.014537
   131  H    0.016288
   132  H    0.014345
   133  H    0.037326
   134  H    0.020667
   135  H    0.019851
   136  H    0.008769
   137  H    0.026518
   138  H    0.043927
   139  H    0.038918
   140  H    0.036021
   141  H    0.036800
   142  H    0.014303
   143  H    0.012109
   144  H    0.024915
   145  H    0.011714
   146  H    0.005457
   147  H    0.005966
   148  H    0.003390
   149  H    0.010958
   150  H    0.017695
   151  H    0.030230
   152  H    0.045529
   153  H    0.008237
   154  H    0.046586
   155  H    0.034777
   156  H    0.043621
   157  H    0.049423
   158  H    0.053191
 Sum of Mulliken charges =  -0.00000

 Dipole moment (field-independent basis, Debye):
    X=              3.2082    Y=              3.0536    Z=              0.5542  Tot=              4.4636
 Quadrupole moment (field-independent basis, Debye-Ang):
   XX=           -523.1524   YY=           -463.4741   ZZ=           -524.4717
   XY=              8.5947   XZ=             62.6932   YZ=             18.7126

 Normal termination of Gaussian 16 at Sat Sep 11 04:45:25 2021.
