 Gaussian 16, Revision A.03,
 Gaussian 16:  ES64L-G16RevA.03 25-Dec-2016

 -----------------------------------
 #p cam-b3lyp/Def2SVP td=(nstates=5)
 -----------------------------------

 --------------------------------
 TDDFT excited states in gaussian
 --------------------------------
 Symbolic Z-matrix:
 Charge =  0 Multiplicity = 1

                         Standard orientation:
 ---------------------------------------------------------------------
 Center     Atomic      Atomic             Coordinates (Angstroms)
 Number     Number       Type             X           Y           Z
 ---------------------------------------------------------------------
      1         12           0        3.599537    1.461639    0.487573
      2          6           0        4.951618   -1.219139   -1.461149
      3          6           0        3.756648    3.387338   -2.324910
      4          6           0        2.838466    3.959659    2.286820
      5          6           0        4.602541   -0.292774    3.326882
      6          7           0        4.284199    1.025318   -1.571919
      7          6           0        4.723588   -0.058534   -2.203877
      8          6           0        4.847457    0.132586   -3.745144
      9          6           0        4.999688    1.719014   -3.790649
     10          6           0        4.273223    2.069739   -2.504117
     11          6           0        6.444669    2.195717   -3.684418
     12          6           0        3.565085   -0.342001   -4.508047
     13          6           0        3.725334   -0.494786   -6.023412
     14          1           0        3.012411   -1.568897   -6.698228
     15          7           0        2.882337    3.232226   -0.015913
     16          6           0        3.028058    3.855301   -1.209994
     17          6           0        2.314538    5.144630   -1.086703
     18          6           0        1.904158    5.303329    0.336145
     19          6           0        2.556487    4.169107    0.938960
     20          6           0        2.044011    6.049773   -2.249149
     21          6           0        1.066954    6.322267    1.042535
     22          8           0        1.026825    6.403844    2.317803
     23          6           0        0.354668    7.291978    0.190860
     24          7           0        3.896597    1.900577    2.506663
     25          6           0        3.416533    3.026493    3.045954
     26          6           0        3.500109    2.993592    4.543242
     27          6           0        3.916816    1.501450    4.930052
     28          6           0        4.088940    0.926862    3.502294
     29          6           0        4.487942    3.980719    5.180250
     30          6           0        2.994933    0.748608    5.921909
     31          6           0        1.654921    0.480150    5.274301
     32          7           0        4.438686   -0.496258    0.904123
     33          6           0        4.799509   -1.009456    2.158359
     34          6           0        5.421415   -2.325638    1.923915
     35          6           0        5.394002   -2.480364    0.539302
     36          6           0        4.816913   -1.322084   -0.055380
     37          6           0        5.973299   -3.176251    2.922071
     38          6           0        5.740418   -3.344111   -0.577745
     39          8           0        6.168952   -4.494111   -0.684285
     40          6           0        5.579172   -2.510186   -1.924740
     41          6           0        4.804771   -3.359687   -2.895286
     42          8           0        3.608306   -3.644119   -2.683309
     43          8           0        5.514626   -3.503528   -4.024869
     44          6           0        4.790064   -4.311897   -5.041581
     45          1           0        3.978463    4.147930   -3.076069
     46          1           0        2.490418    4.751401    2.953488
     47          1           0        4.862816   -0.934504    4.170620
     48          1           0        5.722877   -0.338398   -4.192622
     49          1           0        4.484233    2.152890   -4.647258
     50          1           0        7.121441    1.370088   -3.464787
     51          1           0        6.452716    2.921303   -2.870813
     52          1           0        6.737950    2.745507   -4.579122
     53          1           0        2.816318    0.449578   -4.479542
     54          1           0        3.190652   -1.276651   -4.089054
     55          1           0        4.775849   -0.491092   -6.315497
     56          1           0        3.307971    0.391172   -6.502041
     57          1           0        2.608929    5.749260   -3.130684
     58          1           0        2.445470    7.029295   -1.990155
     59          1           0        0.978682    6.134261   -2.464245
     60          1           0        1.078216    7.840641   -0.412461
     61          1           0       -0.262840    7.886240    0.863456
     62          1           0       -0.278970    6.747728   -0.510028
     63          1           0        2.535438    3.223267    4.993892
     64          1           0        4.900822    1.459775    5.397671
     65          1           0        4.028583    4.653912    5.904477
     66          1           0        4.970560    4.539081    4.378624
     67          1           0        5.345191    3.518309    5.668838
     68          1           0        2.808053    1.359675    6.804302
     69          1           0        3.409666   -0.201684    6.258350
     70          1           0        1.115308    1.412651    5.435835
     71          1           0        1.153171   -0.352039    5.769194
     72          1           0        1.753599    0.343142    4.197279
     73          1           0        5.639912   -4.185578    2.681072
     74          1           0        5.648624   -2.879308    3.919074
     75          1           0        7.038552   -3.009625    2.762925
     76          1           0        6.585544   -2.294284   -2.282126
     77          1           0        5.442293   -5.140759   -5.316933
     78          1           0        4.489341   -3.621308   -5.829653
     79          1           0        3.909367   -4.850882   -4.690571
     80         12           0       -3.731423   -1.600589    0.453504
     81          6           0       -4.567868    0.960236   -1.917486
     82          6           0       -3.803955    0.813933    2.861704
     83          6           0       -2.558940   -3.734399    2.488099
     84          6           0       -2.620806   -3.527896   -2.229356
     85          7           0       -4.145648    0.570119    0.360365
     86          6           0       -4.512266    1.421505   -0.585729
     87          6           0       -4.915365    2.827173   -0.065019
     88          6           0       -4.094529    2.816833    1.315201
     89          6           0       -4.036626    1.309396    1.553846
     90          6           0       -2.672258    3.332948    1.173431
     91          6           0       -6.459275    2.951589    0.185780
     92          6           0       -6.963242    4.380877    0.397700
     93          1           0       -8.282391    4.737309   -0.117344
     94          7           0       -3.719629   -1.611522    2.438025
     95          6           0       -3.778663   -0.541292    3.258019
     96          6           0       -3.717536   -1.078769    4.626058
     97          6           0       -3.451691   -2.540735    4.544214
     98          6           0       -3.207093   -2.685029    3.123151
     99          6           0       -3.982124   -0.239875    5.842481
    100          6           0       -3.410239   -3.626727    5.576260
    101          8           0       -2.925178   -4.784340    5.316480
    102          6           0       -3.868233   -3.266265    6.925994
    103          7           0       -2.541534   -3.286294    0.198733
    104          6           0       -2.219352   -4.069376    1.243204
    105          6           0       -1.594186   -5.364224    0.781783
    106          6           0       -1.785197   -5.391764   -0.805782
    107          6           0       -2.436902   -4.005961   -1.006329
    108          6           0       -0.114512   -5.545923    1.119313
    109          6           0       -2.493836   -6.635941   -1.407887
    110          6           0       -3.943076   -6.662617   -0.978522
    111          7           0       -3.771670   -1.437807   -1.700548
    112          6           0       -3.226667   -2.345582   -2.634890
    113          6           0       -3.400312   -1.748031   -3.974739
    114          6           0       -4.018469   -0.513917   -3.723040
    115          6           0       -4.197830   -0.344748   -2.323502
    116          6           0       -2.964712   -2.319711   -5.203382
    117          6           0       -4.550418    0.688836   -4.322283
    118          8           0       -4.749640    1.070269   -5.474918
    119          6           0       -4.815135    1.752478   -3.171210
    120          6           0       -6.189808    2.327274   -3.377094
    121          8           0       -7.198959    1.610180   -3.258756
    122          8           0       -6.098772    3.666859   -3.464253
    123          6           0       -7.438171    4.283596   -3.657812
    124          1           0       -3.577287    1.527685    3.654200
    125          1           0       -2.233741   -4.550135    3.137949
    126          1           0       -2.389556   -4.109452   -3.124337
    127          1           0       -4.588357    3.652591   -0.685925
    128          1           0       -4.651097    3.307518    2.109437
    129          1           0       -2.409409    3.511379    0.141336
    130          1           0       -2.037454    2.566514    1.598451
    131          1           0       -2.529863    4.221322    1.795405
    132          1           0       -6.698588    2.520635    1.166467
    133          1           0       -7.012704    2.487115   -0.607064
    134          1           0       -6.218970    5.128954    0.098755
    135          1           0       -7.094714    4.547104    1.469667
    136          1           0       -3.986403    0.830002    5.600125
    137          1           0       -3.122216   -0.363823    6.509600
    138          1           0       -4.887614   -0.541486    6.373327
    139          1           0       -3.266314   -2.443208    7.303797
    140          1           0       -3.848463   -4.195256    7.499112
    141          1           0       -4.898159   -2.898245    6.859314
    142          1           0       -2.106472   -6.215942    1.212193
    143          1           0       -0.820147   -5.364422   -1.332818
    144          1           0        0.090214   -6.461650    1.705494
    145          1           0        0.223815   -4.668451    1.654216
    146          1           0        0.555688   -5.566340    0.261626
    147          1           0       -2.039634   -7.552950   -1.024563
    148          1           0       -2.443428   -6.679848   -2.490728
    149          1           0       -3.898204   -7.122486    0.013249
    150          1           0       -4.535228   -7.263516   -1.665782
    151          1           0       -4.335230   -5.646643   -0.853339
    152          1           0       -3.768667   -2.180530   -5.913868
    153          1           0       -2.714826   -3.372080   -5.085723
    154          1           0       -2.080707   -1.707477   -5.400789
    155          1           0       -4.037838    2.514128   -3.243879
    156          1           0       -7.381100    4.893302   -4.564833
    157          1           0       -7.664751    4.809061   -2.711080
    158          1           0       -8.263733    3.623895   -3.898026
 ---------------------------------------------------------------------

 SCF Done:  E(RCAM-B3LYP) =  -4069.81295976     A.U. after   19 cycles

 Excitation energies and oscillator strengths:

 Excited State   1:      Singlet-A      1.6608 eV  746.55 nm  f=0.2298  <S**2>=0.000
     309 -> 315        0.10182
     310 -> 316        0.13624
     311 -> 313       -0.41323
     312 -> 314        0.54826
 This state for optimization and/or second-order correction.
 Total Energy, E(TD-HF/TD-DFT) =  -4069.75192770
 Copying the excited state density for this state as the 1-particle RhoCI density.

 Excited State   2:      Singlet-A      1.6786 eV  738.64 nm  f=0.4189  <S**2>=0.000
     309 -> 315       -0.13926
     310 -> 316        0.10448
     311 -> 313        0.54686
     312 -> 314        0.41228

 Excited State   3:      Singlet-A      2.1810 eV  568.48 nm  f=0.0836  <S**2>=0.000
     309 -> 313        0.24823
     310 -> 314        0.59419
     311 -> 315        0.10364
     312 -> 316       -0.24779

 Excited State   4:      Singlet-A      2.1919 eV  565.66 nm  f=0.1113  <S**2>=0.000
     309 -> 313        0.59088
     310 -> 314       -0.24614
     311 -> 315        0.25593
     312 -> 316        0.10761

 Excited State   5:      Singlet-A      2.2260 eV  556.99 nm  f=0.0000  <S**2>=0.000
     312 -> 313        0.70695

 The electronic state is 1-A.
 Alpha  occ. eigenvalues --  -46.87946 -46.87397 -19.26478 -19.26307 -19.19246
 Alpha  occ. eigenvalues --  -19.19082 -19.19077 -19.18521 -19.18341 -19.17914
 Alpha  occ. eigenvalues --  -14.42588 -14.42240 -14.41607 -14.41048 -14.39562
 Alpha  occ. eigenvalues --  -14.39102 -14.38737 -14.38351 -10.39293 -10.39008
 Alpha  occ. eigenvalues --  -10.35708 -10.35203 -10.34560 -10.34093 -10.31865
 Alpha  occ. eigenvalues --  -10.31745 -10.31530 -10.31066 -10.31053 -10.30796
 Alpha  occ. eigenvalues --  -10.30711 -10.30679 -10.30373 -10.30144 -10.30123
 Alpha  occ. eigenvalues --  -10.30089 -10.29797 -10.29789 -10.29564 -10.29413
 Alpha  occ. eigenvalues --  -10.29175 -10.29169 -10.28846 -10.28573 -10.28547
 Alpha  occ. eigenvalues --  -10.28539 -10.28523 -10.28204 -10.28181 -10.27950
 Alpha  occ. eigenvalues --  -10.27897 -10.27858 -10.27780 -10.27759 -10.27681
 Alpha  occ. eigenvalues --  -10.27650 -10.27599 -10.27558 -10.27403 -10.27327
 Alpha  occ. eigenvalues --  -10.27283 -10.27247 -10.27245 -10.26972 -10.26931
 Alpha  occ. eigenvalues --  -10.26850 -10.26775 -10.26681 -10.26543 -10.26376
 Alpha  occ. eigenvalues --  -10.26315 -10.26276 -10.26167 -10.25960 -10.25717
 Alpha  occ. eigenvalues --  -10.25697 -10.25671 -10.25623 -10.25610 -10.24992
 Alpha  occ. eigenvalues --  -10.24963 -10.24904 -10.24663 -10.24626 -10.24400
 Alpha  occ. eigenvalues --  -10.24372  -3.16688  -3.16148  -1.91569  -1.91156
 Alpha  occ. eigenvalues --   -1.91030  -1.90998  -1.90618  -1.90456  -1.16831
 Alpha  occ. eigenvalues --   -1.16592  -1.08802  -1.08535  -1.07483  -1.06869
 Alpha  occ. eigenvalues --   -1.06859  -1.06775  -1.04722  -1.04250  -1.03917
 Alpha  occ. eigenvalues --   -1.03396  -1.03392  -1.02748  -1.02568  -1.01837
 Alpha  occ. eigenvalues --   -0.92129  -0.91773  -0.89693  -0.89287  -0.89160
 Alpha  occ. eigenvalues --   -0.88918  -0.88464  -0.88011  -0.87816  -0.87807
 Alpha  occ. eigenvalues --   -0.87577  -0.87451  -0.87406  -0.86915  -0.85104
 Alpha  occ. eigenvalues --   -0.84771  -0.84121  -0.83488  -0.83179  -0.82798
 Alpha  occ. eigenvalues --   -0.82692  -0.82421  -0.81748  -0.81432  -0.80760
 Alpha  occ. eigenvalues --   -0.80243  -0.78955  -0.78416  -0.77366  -0.77066
 Alpha  occ. eigenvalues --   -0.76905  -0.76638  -0.76058  -0.75626  -0.75068
 Alpha  occ. eigenvalues --   -0.74380  -0.72923  -0.72441  -0.71822  -0.71264
 Alpha  occ. eigenvalues --   -0.70090  -0.69340  -0.69007  -0.68605  -0.67811
 Alpha  occ. eigenvalues --   -0.67359  -0.67344  -0.67019  -0.65410  -0.65070
 Alpha  occ. eigenvalues --   -0.65012  -0.64775  -0.64533  -0.64440  -0.64419
 Alpha  occ. eigenvalues --   -0.63836  -0.62474  -0.62097  -0.60620  -0.60081
 Alpha  occ. eigenvalues --   -0.59922  -0.59576  -0.59145  -0.58723  -0.58666
 Alpha  occ. eigenvalues --   -0.58179  -0.57757  -0.57489  -0.57412  -0.56948
 Alpha  occ. eigenvalues --   -0.56465  -0.56144  -0.55996  -0.55733  -0.55695
 Alpha  occ. eigenvalues --   -0.55522  -0.55282  -0.54946  -0.54710  -0.54172
 Alpha  occ. eigenvalues --   -0.54002  -0.53692  -0.53475  -0.53375  -0.53091
 Alpha  occ. eigenvalues --   -0.52994  -0.52931  -0.52914  -0.52701  -0.52631
 Alpha  occ. eigenvalues --   -0.52481  -0.52055  -0.52025  -0.51749  -0.51687
 Alpha  occ. eigenvalues --   -0.51476  -0.51352  -0.50977  -0.50757  -0.50269
 Alpha  occ. eigenvalues --   -0.50202  -0.50098  -0.49752  -0.49670  -0.49465
 Alpha  occ. eigenvalues --   -0.49377  -0.49279  -0.49217  -0.49009  -0.48893
 Alpha  occ. eigenvalues --   -0.48746  -0.48659  -0.48630  -0.48366  -0.48157
 Alpha  occ. eigenvalues --   -0.47974  -0.47850  -0.47457  -0.47345  -0.46945
 Alpha  occ. eigenvalues --   -0.46836  -0.46674  -0.46518  -0.46437  -0.46325
 Alpha  occ. eigenvalues --   -0.46293  -0.46016  -0.45969  -0.45772  -0.45615
 Alpha  occ. eigenvalues --   -0.45376  -0.44784  -0.44739  -0.44673  -0.44317
 Alpha  occ. eigenvalues --   -0.44309  -0.44234  -0.44212  -0.44185  -0.43918
 Alpha  occ. eigenvalues --   -0.43791  -0.43761  -0.43660  -0.43525  -0.43381
 Alpha  occ. eigenvalues --   -0.43182  -0.43117  -0.42888  -0.42843  -0.42805
 Alpha  occ. eigenvalues --   -0.42629  -0.42202  -0.42171  -0.41867  -0.41676
 Alpha  occ. eigenvalues --   -0.41651  -0.41428  -0.41287  -0.41206  -0.41053
 Alpha  occ. eigenvalues --   -0.40991  -0.40734  -0.40700  -0.40531  -0.40452
 Alpha  occ. eigenvalues --   -0.40324  -0.40096  -0.40064  -0.39633  -0.39013
 Alpha  occ. eigenvalues --   -0.38633  -0.37957  -0.37856  -0.37484  -0.37452
 Alpha  occ. eigenvalues --   -0.37386  -0.36999  -0.36907  -0.36902  -0.36627
 Alpha  occ. eigenvalues --   -0.36366  -0.35885  -0.34438  -0.33996  -0.33986
 Alpha  occ. eigenvalues --   -0.33746  -0.33347  -0.32909  -0.31598  -0.31197
 Alpha  occ. eigenvalues --   -0.31072  -0.30712  -0.30199  -0.29823  -0.29624
 Alpha  occ. eigenvalues --   -0.29480  -0.29110  -0.28997  -0.24233  -0.23770
 Alpha  occ. eigenvalues --   -0.21280  -0.20849
 Alpha virt. eigenvalues --   -0.08937  -0.08550  -0.01916  -0.01400  -0.00248
 Alpha virt. eigenvalues --    0.00174   0.02024   0.02332   0.02547   0.03604
 Alpha virt. eigenvalues --    0.04593   0.04896   0.05016   0.05262   0.06060

 Mulliken charges:
               1
     1  Mg   0.839031
     2  C   -0.002949
     3  C   -0.092816
     4  C   -0.047149
     5  C   -0.063423
     6  N   -0.256819
     7  C   -0.051891
     8  C   -0.014270
     9  C   -0.087232
    10  C    0.046430
    11  C    0.104675
    12  C    0.053073
    13  C   -0.072281
    14  H    0.035918
    15  N   -0.433198
    16  C    0.168400
    17  C   -0.177080
    18  C   -0.004941
    19  C    0.148791
    20  C    0.109984
    21  C    0.011065
    22  O   -0.251701
    23  C    0.062688
    24  N   -0.341167
    25  C    0.041756
    26  C   -0.027921
    27  C   -0.023918
    28  C    0.074812
    29  C    0.076184
    30  C    0.035142
    31  C   -0.004548
    32  N   -0.310603
    33  C    0.080731
    34  C   -0.169389
    35  C    0.007981
    36  C    0.083023
    37  C    0.127400
    38  C    0.045376
    39  O   -0.188487
    40  C   -0.005230
    41  C    0.213345
    42  O   -0.259253
    43  O   -0.304142
    44  C    0.158051
    45  H   -0.016892
    46  H   -0.017931
    47  H   -0.040994
    48  H    0.001030
    49  H   -0.002840
    50  H    0.025418
    51  H    0.016328
    52  H    0.017316
    53  H    0.012749
    54  H    0.043067
    55  H    0.017890
    56  H    0.019794
    57  H    0.007194
    58  H    0.026900
    59  H    0.040028
    60  H    0.038808
    61  H    0.034219
    62  H    0.030744
    63  H    0.014620
    64  H    0.009904
    65  H    0.022597
    66  H    0.012982
    67  H    0.005215
    68  H    0.005325
    69  H    0.006125
    70  H    0.004636
    71  H    0.019805
    72  H    0.030737
    73  H    0.047677
    74  H    0.009911
    75  H    0.046229
    76  H    0.035734
    77  H    0.043420
    78  H    0.047351
    79  H    0.051818
    80  Mg   0.836981
    81  C   -0.017569
    82  C   -0.088816
    83  C   -0.045633
    84  C   -0.060414
    85  N   -0.254918
    86  C   -0.050153
    87  C   -0.014816
    88  C   -0.090590
    89  C    0.045243
    90  C    0.112360
    91  C    0.062695
    92  C   -0.077341
    93  H    0.033879
    94  N   -0.423586
    95  C    0.163107
    96  C   -0.174847
    97  C   -0.008316
    98  C    0.152373
    99  C    0.099565
   100  C    0.014697
   101  O   -0.252948
   102  C    0.061518
   103  N   -0.350370
   104  C    0.039155
   105  C   -0.021291
   106  C   -0.035959
   107  C    0.089494
   108  C    0.069946
   109  C    0.034369
   110  C   -0.007368
   111  N   -0.324073
   112  C    0.077784
   113  C   -0.163117
   114  C    0.001082
   115  C    0.096488
   116  C    0.132152
   117  C    0.041278
   118  O   -0.190196
   119  C    0.001339
   120  C    0.211254
   121  O   -0.250771
   122  O   -0.306448
   123  C    0.152111
   124  H   -0.018592
   125  H   -0.015203
   126  H   -0.039407
   127  H   -0.003337
   128  H   -0.004235
   129  H    0.018483
   130  H    0.016233
   131  H    0.022637
   132  H    0.014149
   133  H    0.037257
   134  H    0.019717
   135  H    0.020084
   136  H    0.009202
   137  H    0.024891
   138  H    0.039200
   139  H    0.037034
   140  H    0.035917
   141  H    0.033898
   142  H    0.012858
   143  H    0.021896
   144  H    0.022927
   145  H    0.011617
   146  H    0.019463
   147  H    0.006935
   148  H    0.002977
   149  H    0.010503
   150  H    0.016520
   151  H    0.029004
   152  H    0.044715
   153  H    0.009106
   154  H    0.045673
   155  H    0.032159
   156  H    0.042783
   157  H    0.049559
   158  H    0.053687
 Sum of Mulliken charges =  -0.00000

 Dipole moment (field-independent basis, Debye):
    X=              2.3500    Y=              5.5422    Z=              1.2507  Tot=              6.1484
 Quadrupole moment (field-independent basis, Debye-Ang):
   XX=           -523.1254   YY=           -510.4848   ZZ=           -486.6326
   XY=              4.6938   XZ=            -33.5992   YZ=              5.1010

 Normal termination of Gaussian 16 at Wed Sep  8 23:38:03 2021.
