 Gaussian 16, Revision A.03,
 Gaussian 16:  ES64L-G16RevA.03 25-Dec-2016

 -----------------------------------
 #p cam-b3lyp/Def2SVP td=(nstates=5)
 -----------------------------------

 --------------------------------
 TDDFT excited states in gaussian
 --------------------------------
 Symbolic Z-matrix:
 Charge =  0 Multiplicity = 1

                         Standard orientation:
 ---------------------------------------------------------------------
 Center     Atomic      Atomic             Coordinates (Angstroms)
 Number     Number       Type             X           Y           Z
 ---------------------------------------------------------------------
      1         12           0       -3.931638   -0.469635   -0.118239
      2          6           0       -3.928586    2.974436    0.856738
      3          6           0       -4.570372    0.585674   -3.299655
      4          6           0       -4.388995   -3.504359   -0.916926
      5          6           0       -4.423586   -1.266666    3.238603
      6          7           0       -4.192493    1.550040   -0.986291
      7          6           0       -4.107814    2.790577   -0.516113
      8          6           0       -4.151821    3.878132   -1.630860
      9          6           0       -4.911919    3.049451   -2.761142
     10          6           0       -4.506612    1.645773   -2.347207
     11          6           0       -6.430855    3.165026   -2.683840
     12          6           0       -2.720796    4.307215   -2.099675
     13          6           0       -2.664965    5.584913   -2.942127
     14          1           0       -1.526574    6.477640   -2.785755
     15          7           0       -3.926454   -1.342835   -1.890341
     16          6           0       -4.193229   -0.757260   -3.082490
     17          6           0       -4.060541   -1.823107   -4.098878
     18          6           0       -3.881336   -3.116009   -3.381672
     19          6           0       -4.087307   -2.704417   -2.016555
     20          6           0       -4.060876   -1.558731   -5.573278
     21          6           0       -3.583701   -4.504350   -3.852898
     22          8           0       -3.698773   -5.521801   -3.087309
     23          6           0       -3.234740   -4.653967   -5.277286
     24          7           0       -4.565589   -2.141519    0.959048
     25          6           0       -4.620965   -3.349884    0.388284
     26          6           0       -4.824848   -4.428007    1.411036
     27          6           0       -4.654085   -3.724959    2.834523
     28          6           0       -4.451103   -2.266614    2.354627
     29          6           0       -6.176757   -5.153007    1.358819
     30          6           0       -3.607577   -4.336249    3.799699
     31          6           0       -2.215899   -4.130998    3.244539
     32          7           0       -3.966347    0.616177    1.760817
     33          6           0       -4.211636    0.086824    3.036079
     34          6           0       -4.239556    1.221805    3.976881
     35          6           0       -4.023649    2.341475    3.175902
     36          6           0       -3.896711    1.934387    1.817057
     37          6           0       -4.502539    1.140836    5.372846
     38          6           0       -3.895209    3.789445    3.148628
     39          8           0       -3.823819    4.669999    4.007127
     40          6           0       -3.950082    4.268845    1.631067
     41          6           0       -2.816260    5.234473    1.418184
     42          8           0       -1.630151    4.850153    1.471212
     43          8           0       -3.302629    6.395940    0.954523
     44          6           0       -2.226253    7.388769    0.694026
     45          1           0       -5.002455    0.784335   -4.282396
     46          1           0       -4.445324   -4.573295   -1.132886
     47          1           0       -4.487792   -1.446560    4.313298
     48          1           0       -4.724619    4.769382   -1.373955
     49          1           0       -4.531289    3.275632   -3.756976
     50          1           0       -6.744845    3.694800   -1.784579
     51          1           0       -6.800465    2.139505   -2.670146
     52          1           0       -6.831739    3.615910   -3.592011
     53          1           0       -2.350838    3.587326   -2.829710
     54          1           0       -2.049430    4.408463   -1.246245
     55          1           0       -3.599486    6.143404   -2.881574
     56          1           0       -2.587630    5.299189   -3.991213
     57          1           0       -4.376257   -0.540497   -5.797506
     58          1           0       -4.838226   -2.186049   -6.009064
     59          1           0       -3.099991   -1.791943   -6.032237
     60          1           0       -4.055894   -4.281419   -5.890037
     61          1           0       -2.967441   -5.701338   -5.412987
     62          1           0       -2.375201   -4.020611   -5.498651
     63          1           0       -4.075651   -5.211866    1.307613
     64          1           0       -5.581175   -3.732388    3.408215
     65          1           0       -6.089998   -6.233152    1.238551
     66          1           0       -6.762857   -4.715424    0.551169
     67          1           0       -6.824118   -4.975412    2.217190
     68          1           0       -3.760292   -5.410894    3.893308
     69          1           0       -3.643819   -3.907626    4.801308
     70          1           0       -2.105178   -4.963855    2.551053
     71          1           0       -1.475628   -4.187027    4.043331
     72          1           0       -2.151108   -3.211496    2.662471
     73          1           0       -3.777368    1.793900    5.858235
     74          1           0       -4.416229    0.116014    5.733254
     75          1           0       -5.527212    1.510605    5.407070
     76          1           0       -4.921746    4.739990    1.486107
     77          1           0       -2.470104    8.284072    1.266042
     78          1           0       -2.149543    7.485629   -0.389089
     79          1           0       -1.241571    7.149038    1.096853
     80         12           0        3.981745   -1.056422    0.276047
     81          6           0        4.067987    2.481046   -0.322228
     82          6           0        3.240033   -1.446560   -3.030350
     83          6           0        3.455517   -4.130643    0.858894
     84          6           0        3.595038   -0.333753    3.663356
     85          7           0        3.715895    0.404620   -1.363151
     86          6           0        3.833634    1.718231   -1.485248
     87          6           0        3.772141    2.236380   -2.947196
     88          6           0        2.952027    1.019410   -3.599343
     89          6           0        3.350006   -0.091139   -2.629310
     90          6           0        1.445090    1.201044   -3.525173
     91          6           0        5.195900    2.379822   -3.590898
     92          6           0        5.232599    3.169091   -4.901418
     93          1           0        6.394918    4.009575   -5.175431
     94          7           0        3.913402   -2.605142   -0.963059
     95          6           0        3.617772   -2.581484   -2.279613
     96          6           0        3.682058   -3.979958   -2.731586
     97          6           0        3.878012   -4.849536   -1.539878
     98          6           0        3.732569   -3.875948   -0.476373
     99          6           0        3.640636   -4.369489   -4.180719
    100          6           0        4.138770   -6.317046   -1.382938
    101          8           0        4.038557   -6.900966   -0.246358
    102          6           0        4.423466   -7.067708   -2.614578
    103          7           0        3.371838   -2.084801    1.976871
    104          6           0        3.272541   -3.425722    1.975548
    105          6           0        3.087042   -3.960333    3.375611
    106          6           0        3.325602   -2.712558    4.347073
    107          6           0        3.528759   -1.604484    3.290534
    108          6           0        1.723976   -4.584218    3.674296
    109          6           0        4.398349   -2.880411    5.457807
    110          6           0        5.772714   -2.983404    4.836606
    111          7           0        4.035957    0.720927    1.503302
    112          6           0        3.822943    0.802030    2.896907
    113          6           0        3.846542    2.234251    3.258305
    114          6           0        4.050303    2.893532    2.036697
    115          6           0        4.126709    1.940662    0.985172
    116          6           0        3.643982    2.766469    4.562851
    117          6           0        4.207518    4.179489    1.396155
    118          8           0        4.315759    5.339509    1.791609
    119          6           0        4.099569    3.977185   -0.176672
    120          6           0        5.238631    4.719802   -0.819767
    121          8           0        6.414474    4.364048   -0.626217
    122          8           0        4.745547    5.585517   -1.724074
    123          6           0        5.837856    6.338039   -2.396682
    124          1           0        2.782184   -1.666641   -3.995149
    125          1           0        3.375332   -5.185661    1.130885
    126          1           0        3.579812   -0.031714    4.712746
    127          1           0        3.227744    3.163922   -3.077882
    128          1           0        3.307684    0.795685   -4.601744
    129          1           0        1.171888    2.065660   -2.938717
    130          1           0        1.062048    0.297788   -3.068602
    131          1           0        1.019322    1.233677   -4.532140
    132          1           0        5.525406    1.397733   -3.953753
    133          1           0        5.888622    2.807122   -2.892203
    134          1           0        4.304888    3.728858   -5.071591
    135          1           0        5.274304    2.460514   -5.732201
    136          1           0        3.325349   -3.530918   -4.813796
    137          1           0        2.839746   -5.108694   -4.290352
    138          1           0        4.578355   -4.810663   -4.525268
    139          1           0        3.587734   -6.963386   -3.302417
    140          1           0        4.670896   -8.080032   -2.289221
    141          1           0        5.293326   -6.617324   -3.105627
    142          1           0        3.821592   -4.724512    3.598245
    143          1           0        2.414835   -2.451046    4.905595
    144          1           0        1.790939   -5.630075    4.028950
    145          1           0        1.117709   -4.523950    2.780236
    146          1           0        1.118486   -4.044978    4.400798
    147          1           0        4.234433   -3.812049    6.004921
    148          1           0        4.396774   -2.075327    6.185011
    149          1           0        5.840226   -4.039973    4.560598
    150          1           0        6.540731   -2.714308    5.558954
    151          1           0        5.831863   -2.396844    3.912431
    152          1           0        4.388265    3.539070    4.702935
    153          1           0        3.723952    1.993547    5.324404
    154          1           0        2.621672    3.141171    4.464054
    155          1           0        3.129395    4.363973   -0.490895
    156          1           0        5.624974    7.402510   -2.257886
    157          1           0        5.864190    5.960985   -3.436337
    158          1           0        6.832362    6.264180   -1.972456
 ---------------------------------------------------------------------

 SCF Done:  E(RCAM-B3LYP) =  -4069.81139843     A.U. after   19 cycles

 Excitation energies and oscillator strengths:

 Excited State   1:      Singlet-A      1.6402 eV  755.92 nm  f=0.0339  <S**2>=0.000
     309 -> 315       -0.11513
     310 -> 316        0.11786
     311 -> 313        0.47896
     312 -> 314        0.49385
 This state for optimization and/or second-order correction.
 Total Energy, E(TD-HF/TD-DFT) =  -4069.75112270
 Copying the excited state density for this state as the 1-particle RhoCI density.

 Excited State   2:      Singlet-A      1.7077 eV  726.03 nm  f=0.6349  <S**2>=0.000
     309 -> 315       -0.13120
     310 -> 316       -0.12704
     311 -> 313        0.49072
     312 -> 314       -0.47614

 Excited State   3:      Singlet-A      2.1800 eV  568.72 nm  f=0.0148  <S**2>=0.000
     309 -> 313       -0.40050
     310 -> 314        0.50605
     311 -> 315       -0.16550
     312 -> 316       -0.21037

 Excited State   4:      Singlet-A      2.1956 eV  564.68 nm  f=0.1594  <S**2>=0.000
     309 -> 313        0.50087
     310 -> 314        0.39506
     311 -> 315        0.22151
     312 -> 316       -0.17614

 Excited State   5:      Singlet-A      2.2348 eV  554.78 nm  f=0.0000  <S**2>=0.000
     312 -> 313        0.70707

 The electronic state is 1-A.
 Alpha  occ. eigenvalues --  -46.87905 -46.87397 -19.26219 -19.26179 -19.18979
 Alpha  occ. eigenvalues --  -19.18961 -19.18955 -19.18453 -19.18237 -19.17703
 Alpha  occ. eigenvalues --  -14.42565 -14.42251 -14.41554 -14.41103 -14.39519
 Alpha  occ. eigenvalues --  -14.39086 -14.38691 -14.38304 -10.39049 -10.38873
 Alpha  occ. eigenvalues --  -10.35600 -10.35135 -10.34453 -10.33879 -10.31648
 Alpha  occ. eigenvalues --  -10.31535 -10.31515 -10.31049 -10.31027 -10.30799
 Alpha  occ. eigenvalues --  -10.30683 -10.30613 -10.30326 -10.30098 -10.30062
 Alpha  occ. eigenvalues --  -10.30011 -10.29912 -10.29751 -10.29615 -10.29380
 Alpha  occ. eigenvalues --  -10.29173 -10.29100 -10.28873 -10.28669 -10.28600
 Alpha  occ. eigenvalues --  -10.28561 -10.28474 -10.28240 -10.28122 -10.27995
 Alpha  occ. eigenvalues --  -10.27909 -10.27850 -10.27715 -10.27691 -10.27691
 Alpha  occ. eigenvalues --  -10.27598 -10.27523 -10.27504 -10.27435 -10.27326
 Alpha  occ. eigenvalues --  -10.27278 -10.27215 -10.27203 -10.27179 -10.27176
 Alpha  occ. eigenvalues --  -10.26869 -10.26722 -10.26642 -10.26574 -10.26339
 Alpha  occ. eigenvalues --  -10.26287 -10.26192 -10.26135 -10.25968 -10.25956
 Alpha  occ. eigenvalues --  -10.25927 -10.25668 -10.25499 -10.25368 -10.25250
 Alpha  occ. eigenvalues --  -10.24940 -10.24886 -10.24800 -10.24562 -10.24541
 Alpha  occ. eigenvalues --  -10.24422  -3.16647  -3.16147  -1.91529  -1.91116
 Alpha  occ. eigenvalues --   -1.91029  -1.90958  -1.90618  -1.90454  -1.16575
 Alpha  occ. eigenvalues --   -1.16463  -1.08685  -1.08306  -1.07361  -1.06737
 Alpha  occ. eigenvalues --   -1.06707  -1.06602  -1.04695  -1.04245  -1.03869
 Alpha  occ. eigenvalues --   -1.03400  -1.03344  -1.02766  -1.02519  -1.01833
 Alpha  occ. eigenvalues --   -0.92062  -0.91698  -0.89620  -0.89311  -0.89256
 Alpha  occ. eigenvalues --   -0.88987  -0.88382  -0.88003  -0.87984  -0.87793
 Alpha  occ. eigenvalues --   -0.87477  -0.87431  -0.87407  -0.86864  -0.85104
 Alpha  occ. eigenvalues --   -0.84811  -0.84024  -0.83666  -0.83132  -0.82754
 Alpha  occ. eigenvalues --   -0.82703  -0.82455  -0.81620  -0.81366  -0.80677
 Alpha  occ. eigenvalues --   -0.80203  -0.78938  -0.78359  -0.77336  -0.77014
 Alpha  occ. eigenvalues --   -0.76930  -0.76708  -0.75998  -0.75627  -0.74981
 Alpha  occ. eigenvalues --   -0.74597  -0.72886  -0.72417  -0.71765  -0.71360
 Alpha  occ. eigenvalues --   -0.70011  -0.69560  -0.68992  -0.68626  -0.67746
 Alpha  occ. eigenvalues --   -0.67362  -0.67345  -0.67008  -0.65396  -0.65072
 Alpha  occ. eigenvalues --   -0.64937  -0.64699  -0.64527  -0.64441  -0.64365
 Alpha  occ. eigenvalues --   -0.63979  -0.62304  -0.62065  -0.60576  -0.60089
 Alpha  occ. eigenvalues --   -0.59923  -0.59587  -0.59084  -0.58740  -0.58596
 Alpha  occ. eigenvalues --   -0.58171  -0.57635  -0.57391  -0.57262  -0.56984
 Alpha  occ. eigenvalues --   -0.56426  -0.55992  -0.55934  -0.55694  -0.55638
 Alpha  occ. eigenvalues --   -0.55404  -0.55211  -0.55027  -0.54568  -0.54286
 Alpha  occ. eigenvalues --   -0.54015  -0.53744  -0.53426  -0.53342  -0.52993
 Alpha  occ. eigenvalues --   -0.52973  -0.52925  -0.52897  -0.52695  -0.52536
 Alpha  occ. eigenvalues --   -0.52453  -0.52202  -0.52018  -0.51744  -0.51486
 Alpha  occ. eigenvalues --   -0.51444  -0.51279  -0.50943  -0.50767  -0.50262
 Alpha  occ. eigenvalues --   -0.50152  -0.50064  -0.49784  -0.49658  -0.49639
 Alpha  occ. eigenvalues --   -0.49316  -0.49264  -0.49202  -0.48977  -0.48857
 Alpha  occ. eigenvalues --   -0.48661  -0.48588  -0.48520  -0.48323  -0.48157
 Alpha  occ. eigenvalues --   -0.48092  -0.47806  -0.47401  -0.47388  -0.46924
 Alpha  occ. eigenvalues --   -0.46886  -0.46672  -0.46487  -0.46465  -0.46374
 Alpha  occ. eigenvalues --   -0.46233  -0.46033  -0.45883  -0.45826  -0.45551
 Alpha  occ. eigenvalues --   -0.45293  -0.44989  -0.44672  -0.44629  -0.44327
 Alpha  occ. eigenvalues --   -0.44263  -0.44220  -0.44208  -0.44103  -0.43905
 Alpha  occ. eigenvalues --   -0.43851  -0.43685  -0.43538  -0.43497  -0.43349
 Alpha  occ. eigenvalues --   -0.43183  -0.43113  -0.42802  -0.42708  -0.42648
 Alpha  occ. eigenvalues --   -0.42601  -0.42335  -0.42089  -0.41796  -0.41763
 Alpha  occ. eigenvalues --   -0.41649  -0.41396  -0.41271  -0.41239  -0.40994
 Alpha  occ. eigenvalues --   -0.40964  -0.40775  -0.40664  -0.40532  -0.40501
 Alpha  occ. eigenvalues --   -0.40380  -0.40288  -0.40071  -0.39515  -0.39228
 Alpha  occ. eigenvalues --   -0.38567  -0.38156  -0.37867  -0.37503  -0.37422
 Alpha  occ. eigenvalues --   -0.37380  -0.37042  -0.36975  -0.36722  -0.36579
 Alpha  occ. eigenvalues --   -0.36236  -0.36003  -0.34392  -0.33988  -0.33759
 Alpha  occ. eigenvalues --   -0.33640  -0.33280  -0.32907  -0.31486  -0.31138
 Alpha  occ. eigenvalues --   -0.31016  -0.30712  -0.30091  -0.29611  -0.29577
 Alpha  occ. eigenvalues --   -0.29429  -0.29043  -0.28867  -0.24186  -0.23764
 Alpha  occ. eigenvalues --   -0.21243  -0.20846
 Alpha virt. eigenvalues --   -0.08892  -0.08504  -0.01862  -0.01426  -0.00190
 Alpha virt. eigenvalues --    0.00236   0.02101   0.02403   0.02630   0.03596
 Alpha virt. eigenvalues --    0.04608   0.04962   0.05108   0.05392   0.06045

 Mulliken charges:
               1
     1  Mg   0.838573
     2  C   -0.002627
     3  C   -0.095182
     4  C   -0.044995
     5  C   -0.064279
     6  N   -0.256692
     7  C   -0.052729
     8  C   -0.013716
     9  C   -0.086862
    10  C    0.046060
    11  C    0.104813
    12  C    0.052467
    13  C   -0.072289
    14  H    0.037675
    15  N   -0.433232
    16  C    0.168084
    17  C   -0.178453
    18  C   -0.004418
    19  C    0.149174
    20  C    0.110400
    21  C    0.012184
    22  O   -0.248534
    23  C    0.063002
    24  N   -0.341133
    25  C    0.041067
    26  C   -0.028768
    27  C   -0.023966
    28  C    0.075125
    29  C    0.076028
    30  C    0.038564
    31  C   -0.013484
    32  N   -0.310698
    33  C    0.081001
    34  C   -0.170077
    35  C    0.008583
    36  C    0.083501
    37  C    0.127371
    38  C    0.046337
    39  O   -0.187196
    40  C   -0.005422
    41  C    0.213032
    42  O   -0.256335
    43  O   -0.305392
    44  C    0.156035
    45  H   -0.017933
    46  H   -0.016362
    47  H   -0.041680
    48  H    0.001729
    49  H   -0.004809
    50  H    0.025846
    51  H    0.016559
    52  H    0.016667
    53  H    0.009639
    54  H    0.044536
    55  H    0.018734
    56  H    0.016572
    57  H    0.005676
    58  H    0.027232
    59  H    0.036694
    60  H    0.037761
    61  H    0.035483
    62  H    0.028464
    63  H    0.017718
    64  H    0.009715
    65  H    0.023742
    66  H    0.012463
    67  H    0.004822
    68  H    0.006784
    69  H    0.003033
    70  H    0.013642
    71  H    0.018607
    72  H    0.029997
    73  H    0.047503
    74  H    0.008757
    75  H    0.046534
    76  H    0.035294
    77  H    0.043663
    78  H    0.045563
    79  H    0.057865
    80  Mg   0.837071
    81  C   -0.015277
    82  C   -0.087980
    83  C   -0.044965
    84  C   -0.063811
    85  N   -0.254361
    86  C   -0.049188
    87  C   -0.014863
    88  C   -0.091252
    89  C    0.045364
    90  C    0.113032
    91  C    0.062803
    92  C   -0.077189
    93  H    0.034347
    94  N   -0.423448
    95  C    0.162448
    96  C   -0.174901
    97  C   -0.007531
    98  C    0.151283
    99  C    0.099446
   100  C    0.015896
   101  O   -0.253779
   102  C    0.061216
   103  N   -0.349934
   104  C    0.036631
   105  C   -0.016333
   106  C   -0.036767
   107  C    0.089489
   108  C    0.064047
   109  C    0.034547
   110  C   -0.006907
   111  N   -0.325109
   112  C    0.079385
   113  C   -0.159579
   114  C    0.005694
   115  C    0.096089
   116  C    0.129342
   117  C    0.047090
   118  O   -0.187405
   119  C   -0.000764
   120  C    0.210528
   121  O   -0.251577
   122  O   -0.305790
   123  C    0.152294
   124  H   -0.022373
   125  H   -0.016088
   126  H   -0.039992
   127  H   -0.001229
   128  H   -0.005944
   129  H    0.025592
   130  H    0.015890
   131  H    0.011965
   132  H    0.013815
   133  H    0.037880
   134  H    0.019546
   135  H    0.018802
   136  H    0.006512
   137  H    0.025777
   138  H    0.038891
   139  H    0.038634
   140  H    0.035803
   141  H    0.033064
   142  H    0.013247
   143  H    0.012419
   144  H    0.023437
   145  H    0.017035
   146  H    0.009349
   147  H    0.005268
   148  H    0.003819
   149  H    0.010565
   150  H    0.017602
   151  H    0.030391
   152  H    0.044756
   153  H    0.006877
   154  H    0.055993
   155  H    0.039242
   156  H    0.042929
   157  H    0.048616
   158  H    0.053469
 Sum of Mulliken charges =  -0.00000

 Dipole moment (field-independent basis, Debye):
    X=             -3.9002    Y=             -1.5813    Z=             -7.1309  Tot=              8.2802
 Quadrupole moment (field-independent basis, Debye-Ang):
   XX=           -519.8884   YY=           -544.6817   ZZ=           -454.0120
   XY=            -10.8104   XZ=             -3.7827   YZ=            -42.6440

 Normal termination of Gaussian 16 at Fri Sep  3 17:02:21 2021.
