 Gaussian 16, Revision A.03,
 Gaussian 16:  ES64L-G16RevA.03 25-Dec-2016

 -----------------------------------
 #p cam-b3lyp/Def2SVP td=(nstates=5)
 -----------------------------------

 --------------------------------
 TDDFT excited states in gaussian
 --------------------------------
 Symbolic Z-matrix:
 Charge =  0 Multiplicity = 1

                         Standard orientation:
 ---------------------------------------------------------------------
 Center     Atomic      Atomic             Coordinates (Angstroms)
 Number     Number       Type             X           Y           Z
 ---------------------------------------------------------------------
      1         12           0        3.954047    0.435475    1.375546
      2          6           0        4.772159   -2.527885   -0.457866
      3          6           0        5.693943    2.191775   -0.976312
      4          6           0        3.632968    3.001356    3.211244
      5          6           0        3.282392   -1.618962    4.109376
      6          7           0        5.048092   -0.200036   -0.440999
      7          6           0        5.235461   -1.358654   -1.065233
      8          6           0        5.904701   -1.205749   -2.463844
      9          6           0        6.634630    0.194235   -2.241929
     10          6           0        5.718778    0.780343   -1.181921
     11          6           0        8.038669    0.063872   -1.660395
     12          6           0        4.852673   -1.126276   -3.620845
     13          6           0        5.419208   -1.304351   -5.032469
     14          1           0        4.616718   -2.001143   -6.026369
     15          7           0        4.137574    2.353622    0.939795
     16          6           0        4.873925    2.889400   -0.063208
     17          6           0        4.684394    4.353046    0.028989
     18          6           0        3.930886    4.636253    1.282031
     19          6           0        3.892648    3.327133    1.882131
     20          6           0        5.150433    5.311029   -1.024019
     21          6           0        3.348307    5.890026    1.853685
     22          8           0        2.937071    5.959492    3.062251
     23          6           0        3.353001    7.075537    0.977566
     24          7           0        3.731821    0.688855    3.435655
     25          6           0        3.553857    1.903664    3.966268
     26          6           0        3.138006    1.815602    5.404758
     27          6           0        2.831234    0.273384    5.682620
     28          6           0        3.225401   -0.298726    4.298570
     29          6           0        4.160866    2.325161    6.429510
     30          6           0        1.433304   -0.073803    6.253297
     31          6           0        0.369856    0.215929    5.217810
     32          7           0        3.836022   -1.701331    1.737726
     33          6           0        3.563554   -2.335826    2.958321
     34          6           0        3.698556   -3.786363    2.730758
     35          6           0        4.058730   -3.894771    1.388980
     36          6           0        4.168967   -2.593185    0.821519
     37          6           0        3.550751   -4.801853    3.716338
     38          6           0        4.400124   -4.806385    0.309041
     39          8           0        4.386400   -6.030352    0.170450
     40          6           0        4.994297   -3.953695   -0.897486
     41          6           0        4.314709   -4.414863   -2.157959
     42          8           0        3.097115   -4.210507   -2.339809
     43          8           0        5.242012   -4.806813   -3.045104
     44          6           0        4.635783   -5.248939   -4.329302
     45          1           0        6.406231    2.816763   -1.518508
     46          1           0        3.407139    3.854913    3.853801
     47          1           0        3.005588   -2.325350    4.894137
     48          1           0        6.639387   -1.974916   -2.702677
     49          1           0        6.616209    0.809815   -3.141064
     50          1           0        8.257107   -0.964641   -1.373399
     51          1           0        8.052976    0.714409   -0.785701
     52          1           0        8.781740    0.469352   -2.347569
     53          1           0        4.479795   -0.104972   -3.698056
     54          1           0        4.048883   -1.845904   -3.461525
     55          1           0        6.431695   -1.708281   -5.007572
     56          1           0        5.532112   -0.317818   -5.482141
     57          1           0        5.814559    4.827722   -1.739488
     58          1           0        5.778410    6.049993   -0.526738
     59          1           0        4.318885    5.810340   -1.521560
     60          1           0        4.378907    7.306283    0.689778
     61          1           0        2.817288    7.853115    1.520920
     62          1           0        2.822622    6.835355    0.055634
     63          1           0        2.235721    2.397817    5.587329
     64          1           0        3.527009   -0.158863    6.402157
     65          1           0        3.775905    3.112411    7.078161
     66          1           0        5.042918    2.662677    5.886041
     67          1           0        4.584726    1.555373    7.073859
     68          1           0        1.213305    0.546754    7.121315
     69          1           0        1.339765   -1.116093    6.558472
     70          1           0        0.189142    1.282540    5.346321
     71          1           0       -0.531761   -0.360781    5.426861
     72          1           0        0.748781    0.069201    4.206191
     73          1           0        2.965595   -5.595238    3.251471
     74          1           0        3.058507   -4.418026    4.609633
     75          1           0        4.593597   -5.063946    3.894197
     76          1           0        6.066902   -4.144056   -0.917523
     77          1           0        4.989213   -6.262527   -4.518935
     78          1           0        4.877447   -4.482676   -5.066081
     79          1           0        3.556436   -5.404907   -4.324360
     80         12           0       -3.560864    0.495323   -1.178973
     81          6           0       -6.136931   -1.589071    0.198788
     82          6           0       -5.894618    2.972430   -1.407301
     83          6           0       -1.440650    2.206751   -2.804754
     84          6           0       -1.782598   -2.414808   -1.896356
     85          7           0       -5.705179    0.562167   -0.640741
     86          6           0       -6.561078   -0.270548   -0.067691
     87          6           0       -7.924516    0.367953    0.310330
     88          6           0       -7.921767    1.581274   -0.741676
     89          6           0       -6.413975    1.746294   -0.920523
     90          6           0       -8.524813    1.212736   -2.086980
     91          6           0       -7.950210    0.890395    1.789652
     92          6           0       -9.340399    1.243766    2.322821
     93          1           0       -9.633518    0.982607    3.729354
     94          7           0       -3.491951    2.444999   -1.543116
     95          6           0       -4.532111    3.304290   -1.574014
     96          6           0       -3.958937    4.618065   -1.905106
     97          6           0       -2.518260    4.433131   -2.229061
     98          6           0       -2.430732    2.986620   -2.225012
     99          6           0       -4.744428    5.894226   -1.816533
    100          6           0       -1.406545    5.398160   -2.510199
    101          8           0       -0.287738    5.011766   -3.001935
    102          6           0       -1.699293    6.820482   -2.280468
    103          7           0       -1.956526   -0.030657   -2.392152
    104          6           0       -1.163253    0.909326   -2.935366
    105          6           0        0.078272    0.294582   -3.536282
    106          6           0        0.070050   -1.234681   -3.068454
    107          6           0       -1.280243   -1.262869   -2.319243
    108          6           0        0.182311    0.359882   -5.059858
    109          6           0        1.335482   -1.751855   -2.330966
    110          6           0        1.460259   -1.076322   -0.984313
    111          7           0       -3.784636   -1.610120   -0.748773
    112          6           0       -2.938609   -2.660717   -1.166595
    113          6           0       -3.564261   -3.924649   -0.726750
    114          6           0       -4.751789   -3.519836   -0.098739
    115          6           0       -4.868615   -2.104958   -0.161761
    116          6           0       -3.055852   -5.232278   -0.967098
    117          6           0       -5.938284   -3.968469    0.593834
    118          8           0       -6.341232   -5.052289    1.014189
    119          6           0       -6.949956   -2.747673    0.705994
    120          6           0       -7.448533   -2.686352    2.123793
    121          8           0       -6.670000   -2.421266    3.056652
    122          8           0       -8.793150   -2.735100    2.120533
    123          6           0       -9.335295   -2.666183    3.503707
    124          1           0       -6.596740    3.740468   -1.732926
    125          1           0       -0.626640    2.756712   -3.282670
    126          1           0       -1.242419   -3.358746   -1.995585
    127          1           0       -8.785786   -0.267568    0.142686
    128          1           0       -8.355072    2.479599   -0.309680
    129          1           0       -8.748880    0.158405   -2.152808
    130          1           0       -7.784901    1.489175   -2.826675
    131          1           0       -9.401245    1.834706   -2.290315
    132          1           0       -7.477076    1.880048    1.828144
    133          1           0       -7.477574    0.189206    2.449622
    134          1           0      -10.139575    0.848704    1.683925
    135          1           0       -9.466809    2.327891    2.270678
    136          1           0       -5.818888    5.698856   -1.712844
    137          1           0       -4.651716    6.394741   -2.786466
    138          1           0       -4.374383    6.563335   -1.036773
    139          1           0       -2.544864    7.119076   -2.895532
    140          1           0       -0.756538    7.344069   -2.450601
    141          1           0       -2.007758    6.950095   -1.237077
    142          1           0        0.971069    0.774172   -3.154160
    143          1           0       -0.029718   -1.921326   -3.921917
    144          1           0        1.101305    0.864394   -5.413374
    145          1           0       -0.697371    0.861401   -5.440879
    146          1           0        0.137800   -0.602189   -5.567439
    147          1           0        2.235062   -1.490697   -2.893749
    148          1           0        1.344299   -2.827615   -2.190767
    149          1           0        1.945808   -0.126766   -1.228614
    150          1           0        2.074426   -1.672259   -0.312238
    151          1           0        0.473326   -0.844228   -0.567489
    152          1           0       -3.168345   -5.784651   -0.043670
    153          1           0       -2.017027   -5.201971   -1.289121
    154          1           0       -3.724707   -5.557332   -1.768489
    155          1           0       -7.757924   -2.925399   -0.004769
    156          1           0       -9.973863   -3.544335    3.640694
    157          1           0       -9.818250   -1.674365    3.586205
    158          1           0       -8.635460   -2.783749    4.322764
 ---------------------------------------------------------------------

 SCF Done:  E(RCAM-B3LYP) =  -4069.81498173     A.U. after   19 cycles

 Excitation energies and oscillator strengths:

 Excited State   1:      Singlet-A      1.6299 eV  760.67 nm  f=0.0040  <S**2>=0.000
     309 -> 315       -0.11050
     310 -> 316        0.11922
     311 -> 313       -0.46382
     312 -> 314        0.50765
 This state for optimization and/or second-order correction.
 Total Energy, E(TD-HF/TD-DFT) =  -4069.75508290
 Copying the excited state density for this state as the 1-particle RhoCI density.

 Excited State   2:      Singlet-A      1.7089 eV  725.53 nm  f=0.6724  <S**2>=0.000
     309 -> 315        0.13600
     310 -> 316        0.12238
     311 -> 313        0.50459
     312 -> 314        0.46125

 Excited State   3:      Singlet-A      2.1774 eV  569.41 nm  f=0.0690  <S**2>=0.000
     309 -> 313        0.22455
     310 -> 314        0.60515
     312 -> 316       -0.24873

 Excited State   4:      Singlet-A      2.1963 eV  564.50 nm  f=0.1184  <S**2>=0.000
     309 -> 313        0.59418
     310 -> 314       -0.21960
     311 -> 315       -0.26173
     312 -> 316        0.10038

 Excited State   5:      Singlet-A      2.2473 eV  551.70 nm  f=0.0018  <S**2>=0.000
     312 -> 313        0.69946

 The electronic state is 1-A.
 Alpha  occ. eigenvalues --  -46.87676 -46.87231 -19.26942 -19.26116 -19.19931
 Alpha  occ. eigenvalues --  -19.18910 -19.18717 -19.18518 -19.18303 -19.17722
 Alpha  occ. eigenvalues --  -14.42431 -14.42089 -14.41399 -14.40861 -14.39333
 Alpha  occ. eigenvalues --  -14.38946 -14.38524 -14.38172 -10.39848 -10.38830
 Alpha  occ. eigenvalues --  -10.35342 -10.35204 -10.34553 -10.33897 -10.32202
 Alpha  occ. eigenvalues --  -10.31562 -10.31469 -10.30958 -10.30888 -10.30682
 Alpha  occ. eigenvalues --  -10.30588 -10.30493 -10.30098 -10.29957 -10.29910
 Alpha  occ. eigenvalues --  -10.29909 -10.29615 -10.29566 -10.29368 -10.29164
 Alpha  occ. eigenvalues --  -10.29026 -10.28982 -10.28955 -10.28867 -10.28442
 Alpha  occ. eigenvalues --  -10.28422 -10.28360 -10.28233 -10.28043 -10.27821
 Alpha  occ. eigenvalues --  -10.27745 -10.27717 -10.27614 -10.27533 -10.27490
 Alpha  occ. eigenvalues --  -10.27461 -10.27358 -10.27351 -10.27259 -10.27237
 Alpha  occ. eigenvalues --  -10.27172 -10.27087 -10.27086 -10.27078 -10.26732
 Alpha  occ. eigenvalues --  -10.26685 -10.26461 -10.26436 -10.26330 -10.26312
 Alpha  occ. eigenvalues --  -10.26205 -10.25954 -10.25943 -10.25758 -10.25736
 Alpha  occ. eigenvalues --  -10.25353 -10.25324 -10.25284 -10.24986 -10.24849
 Alpha  occ. eigenvalues --  -10.24767 -10.24493 -10.24385 -10.24257 -10.24043
 Alpha  occ. eigenvalues --  -10.23514  -3.16405  -3.15983  -1.91283  -1.90876
 Alpha  occ. eigenvalues --   -1.90865  -1.90719  -1.90452  -1.90291  -1.17323
 Alpha  occ. eigenvalues --   -1.16404  -1.08823  -1.08335  -1.07508  -1.07115
 Alpha  occ. eigenvalues --   -1.06785  -1.06693  -1.04598  -1.04100  -1.03727
 Alpha  occ. eigenvalues --   -1.03227  -1.03199  -1.02567  -1.02384  -1.01664
 Alpha  occ. eigenvalues --   -0.92087  -0.91596  -0.89459  -0.89329  -0.88899
 Alpha  occ. eigenvalues --   -0.88723  -0.88209  -0.87849  -0.87696  -0.87442
 Alpha  occ. eigenvalues --   -0.87347  -0.87236  -0.87157  -0.86799  -0.85114
 Alpha  occ. eigenvalues --   -0.84648  -0.83886  -0.83170  -0.82872  -0.82709
 Alpha  occ. eigenvalues --   -0.82590  -0.82193  -0.81803  -0.81216  -0.80670
 Alpha  occ. eigenvalues --   -0.80066  -0.78722  -0.78253  -0.77239  -0.77064
 Alpha  occ. eigenvalues --   -0.76756  -0.76409  -0.76030  -0.75469  -0.74869
 Alpha  occ. eigenvalues --   -0.74277  -0.72753  -0.72236  -0.71710  -0.71167
 Alpha  occ. eigenvalues --   -0.69767  -0.69021  -0.68849  -0.68431  -0.67703
 Alpha  occ. eigenvalues --   -0.67345  -0.67203  -0.66911  -0.65455  -0.65026
 Alpha  occ. eigenvalues --   -0.64913  -0.64684  -0.64335  -0.64232  -0.64195
 Alpha  occ. eigenvalues --   -0.63450  -0.62574  -0.61858  -0.60352  -0.59943
 Alpha  occ. eigenvalues --   -0.59885  -0.59442  -0.59034  -0.58589  -0.58536
 Alpha  occ. eigenvalues --   -0.57995  -0.57920  -0.57292  -0.57215  -0.56803
 Alpha  occ. eigenvalues --   -0.56466  -0.56180  -0.55836  -0.55665  -0.55503
 Alpha  occ. eigenvalues --   -0.55407  -0.55149  -0.54832  -0.54678  -0.54128
 Alpha  occ. eigenvalues --   -0.53963  -0.53589  -0.53362  -0.53279  -0.53158
 Alpha  occ. eigenvalues --   -0.52886  -0.52735  -0.52663  -0.52510  -0.52419
 Alpha  occ. eigenvalues --   -0.52277  -0.51976  -0.51821  -0.51449  -0.51352
 Alpha  occ. eigenvalues --   -0.51307  -0.51159  -0.50696  -0.50388  -0.50215
 Alpha  occ. eigenvalues --   -0.50042  -0.49846  -0.49659  -0.49641  -0.49355
 Alpha  occ. eigenvalues --   -0.49214  -0.49200  -0.49070  -0.48879  -0.48785
 Alpha  occ. eigenvalues --   -0.48615  -0.48420  -0.48360  -0.48227  -0.48085
 Alpha  occ. eigenvalues --   -0.47865  -0.47710  -0.47259  -0.47184  -0.46833
 Alpha  occ. eigenvalues --   -0.46773  -0.46697  -0.46462  -0.46291  -0.46191
 Alpha  occ. eigenvalues --   -0.46104  -0.46017  -0.45746  -0.45592  -0.45415
 Alpha  occ. eigenvalues --   -0.45163  -0.44809  -0.44564  -0.44509  -0.44252
 Alpha  occ. eigenvalues --   -0.44207  -0.44079  -0.44045  -0.44013  -0.43824
 Alpha  occ. eigenvalues --   -0.43697  -0.43640  -0.43619  -0.43399  -0.43212
 Alpha  occ. eigenvalues --   -0.43085  -0.43035  -0.42879  -0.42600  -0.42545
 Alpha  occ. eigenvalues --   -0.42478  -0.42021  -0.41982  -0.41814  -0.41599
 Alpha  occ. eigenvalues --   -0.41315  -0.41257  -0.41170  -0.40981  -0.40938
 Alpha  occ. eigenvalues --   -0.40737  -0.40597  -0.40497  -0.40492  -0.40442
 Alpha  occ. eigenvalues --   -0.40186  -0.39968  -0.39406  -0.39258  -0.38577
 Alpha  occ. eigenvalues --   -0.38348  -0.37857  -0.37681  -0.37377  -0.37330
 Alpha  occ. eigenvalues --   -0.37254  -0.37096  -0.36845  -0.36523  -0.36429
 Alpha  occ. eigenvalues --   -0.36173  -0.35509  -0.34583  -0.34215  -0.33797
 Alpha  occ. eigenvalues --   -0.33571  -0.33189  -0.32732  -0.31259  -0.31077
 Alpha  occ. eigenvalues --   -0.31046  -0.30548  -0.30182  -0.29622  -0.29378
 Alpha  occ. eigenvalues --   -0.29275  -0.28964  -0.28815  -0.24099  -0.23599
 Alpha  occ. eigenvalues --   -0.21114  -0.20675
 Alpha virt. eigenvalues --   -0.08751  -0.08388  -0.01737  -0.01250  -0.00040
 Alpha virt. eigenvalues --    0.00271   0.02149   0.02609   0.03051   0.04411
 Alpha virt. eigenvalues --    0.04586   0.04749   0.05128   0.05438   0.05918

 Mulliken charges:
               1
     1  Mg   0.806508
     2  C   -0.010459
     3  C   -0.092125
     4  C   -0.044431
     5  C   -0.062707
     6  N   -0.253671
     7  C   -0.054584
     8  C   -0.006173
     9  C   -0.086468
    10  C    0.045589
    11  C    0.104812
    12  C    0.009295
    13  C   -0.066703
    14  H    0.035003
    15  N   -0.429589
    16  C    0.169376
    17  C   -0.172328
    18  C   -0.001850
    19  C    0.149490
    20  C    0.108893
    21  C    0.013879
    22  O   -0.250133
    23  C    0.059383
    24  N   -0.337796
    25  C    0.041399
    26  C   -0.028317
    27  C   -0.023702
    28  C    0.074299
    29  C    0.076250
    30  C    0.034884
    31  C   -0.005761
    32  N   -0.305963
    33  C    0.083077
    34  C   -0.170557
    35  C    0.011103
    36  C    0.061472
    37  C    0.127487
    38  C    0.043597
    39  O   -0.188540
    40  C   -0.006153
    41  C    0.225409
    42  O   -0.255308
    43  O   -0.302885
    44  C    0.156009
    45  H   -0.017736
    46  H   -0.016697
    47  H   -0.040755
    48  H   -0.002597
    49  H   -0.003303
    50  H    0.025503
    51  H    0.017783
    52  H    0.017068
    53  H    0.015783
    54  H    0.081402
    55  H    0.018160
    56  H    0.020288
    57  H    0.005456
    58  H    0.025651
    59  H    0.048525
    60  H    0.036833
    61  H    0.033872
    62  H    0.038697
    63  H    0.017098
    64  H    0.009260
    65  H    0.023255
    66  H    0.012170
    67  H    0.004970
    68  H    0.006179
    69  H    0.005779
    70  H    0.007711
    71  H    0.022832
    72  H    0.029403
    73  H    0.047137
    74  H    0.010772
    75  H    0.045590
    76  H    0.036360
    77  H    0.045824
    78  H    0.048554
    79  H    0.052275
    80  Mg   0.836216
    81  C   -0.018237
    82  C   -0.088759
    83  C   -0.046890
    84  C   -0.066408
    85  N   -0.254742
    86  C   -0.049802
    87  C   -0.015084
    88  C   -0.090309
    89  C    0.045304
    90  C    0.114722
    91  C    0.062663
    92  C   -0.077322
    93  H    0.033692
    94  N   -0.423114
    95  C    0.162327
    96  C   -0.175543
    97  C   -0.009026
    98  C    0.152146
    99  C    0.099503
   100  C    0.014442
   101  O   -0.257904
   102  C    0.061761
   103  N   -0.350299
   104  C    0.037625
   105  C   -0.019304
   106  C   -0.034281
   107  C    0.089630
   108  C    0.076134
   109  C    0.040168
   110  C   -0.062829
   111  N   -0.324277
   112  C    0.078423
   113  C   -0.161217
   114  C    0.001456
   115  C    0.096759
   116  C    0.129705
   117  C    0.042200
   118  O   -0.188550
   119  C    0.001072
   120  C    0.211175
   121  O   -0.251751
   122  O   -0.305597
   123  C    0.152353
   124  H   -0.021218
   125  H   -0.018284
   126  H   -0.030797
   127  H   -0.001309
   128  H   -0.005196
   129  H    0.021936
   130  H    0.014300
   131  H    0.015163
   132  H    0.014012
   133  H    0.037240
   134  H    0.020490
   135  H    0.019285
   136  H    0.008209
   137  H    0.024348
   138  H    0.038776
   139  H    0.038544
   140  H    0.030953
   141  H    0.035229
   142  H    0.012736
   143  H    0.010105
   144  H    0.018876
   145  H    0.009315
   146  H    0.004619
   147  H   -0.015122
   148  H    0.033873
   149  H    0.027746
   150  H    0.067972
   151  H    0.022538
   152  H    0.045549
   153  H    0.016549
   154  H    0.045431
   155  H    0.034234
   156  H    0.043407
   157  H    0.049224
   158  H    0.052929
 Sum of Mulliken charges =  -0.00000

 Dipole moment (field-independent basis, Debye):
    X=              1.5004    Y=              6.3685    Z=             -3.0986  Tot=              7.2395
 Quadrupole moment (field-independent basis, Debye-Ang):
   XX=           -453.3193   YY=           -537.8750   ZZ=           -485.5712
   XY=            -24.6956   XZ=            -12.8687   YZ=              0.3729

 Normal termination of Gaussian 16 at Wed Sep  8 15:41:52 2021.
