 Gaussian 16, Revision A.03,
 Gaussian 16:  ES64L-G16RevA.03 25-Dec-2016

 -----------------------------------
 #p cam-b3lyp/Def2SVP td=(nstates=5)
 -----------------------------------

 --------------------------------
 TDDFT excited states in gaussian
 --------------------------------
 Symbolic Z-matrix:
 Charge =  0 Multiplicity = 1

                         Standard orientation:
 ---------------------------------------------------------------------
 Center     Atomic      Atomic             Coordinates (Angstroms)
 Number     Number       Type             X           Y           Z
 ---------------------------------------------------------------------
      1         12           0      -15.794197   -0.762773   -0.010142
      2          6           0      -15.998078    2.748856    0.652512
      3          6           0      -16.650957   -0.052671   -3.235786
      4          6           0      -16.064819   -3.882551   -0.510511
      5          6           0      -16.074864   -1.277461    3.425260
      6          7           0      -16.240378    1.145273   -1.040155
      7          6           0      -16.225176    2.426880   -0.687414
      8          6           0      -16.398528    3.401010   -1.890906
      9          6           0      -17.146443    2.421195   -2.902135
     10          6           0      -16.621700    1.092904   -2.386179
     11          6           0      -18.664726    2.439199   -2.757249
     12          6           0      -15.025170    3.881789   -2.469241
     13          6           0      -15.100622    5.076835   -3.423980
     14          1           0      -14.024399    6.056015   -3.406692
     15          7           0      -15.805350   -1.793841   -1.695260
     16          6           0      -16.167574   -1.340764   -2.919516
     17          6           0      -16.003572   -2.484522   -3.842338
     18          6           0      -15.698489   -3.690178   -3.022941
     19          6           0      -15.872115   -3.169063   -1.691149
     20          6           0      -16.089668   -2.358399   -5.332449
     21          6           0      -15.322064   -5.092536   -3.383256
     22          8           0      -15.328061   -6.040235   -2.525115
     23          6           0      -15.027733   -5.349118   -4.804726
     24          7           0      -16.255431   -2.367215    1.243119
     25          6           0      -16.248319   -3.624168    0.785950
     26          6           0      -16.326780   -4.614411    1.909873
     27          6           0      -16.143656   -3.772589    3.254326
     28          6           0      -16.069305   -2.354467    2.636530
     29          6           0      -17.623258   -5.431951    1.992243
     30          6           0      -15.012931   -4.218853    4.214914
     31          6           0      -13.666364   -3.971104    3.572671
     32          7           0      -15.823126    0.487373    1.763933
     33          6           0      -15.971429    0.062791    3.092244
     34          6           0      -16.039494    1.275397    3.928320
     35          6           0      -15.942076    2.328262    3.020668
     36          6           0      -15.847240    1.806792    1.698788
     37          6           0      -16.232647    1.306180    5.337638
     38          6           0      -15.920822    3.772871    2.857855
     39          8           0      -15.875120    4.731921    3.629625
     40          6           0      -16.078866    4.104862    1.308458
     41          6           0      -15.029161    5.121966    0.952190
     42          8           0      -13.817026    4.826289    0.978052
     43          8           0      -15.619267    6.199506    0.412539
     44          6           0      -14.630926    7.235292    0.009448
     45          1           0      -17.140249    0.024133   -4.208738
     46          1           0      -16.052811   -4.968227   -0.627142
     47          1           0      -16.077255   -1.361079    4.513586
     48          1           0      -17.022559    4.270911   -1.685281
     49          1           0      -16.828607    2.579748   -3.932457
     50          1           0      -18.975594    3.027198   -1.893802
     51          1           0      -18.957651    1.396466   -2.633167
     52          1           0      -19.137945    2.775586   -3.680116
     53          1           0      -14.637057    3.124433   -3.150300
     54          1           0      -14.325155    4.107307   -1.663979
     55          1           0      -16.069661    5.573258   -3.365356
     56          1           0      -15.050075    4.701198   -4.446009
     57          1           0      -16.488180   -1.389274   -5.629987
     58          1           0      -16.838115   -3.075087   -5.669933
     59          1           0      -15.136028   -2.566778   -5.817713
     60          1           0      -15.900645   -5.091965   -5.405098
     61          1           0      -14.691237   -6.383793   -4.860128
     62          1           0      -14.227479   -4.681635   -5.125675
     63          1           0      -15.527900   -5.351355    1.838249
     64          1           0      -17.040920   -3.790319    3.873420
     65          1           0      -17.463555   -6.510110    1.964420
     66          1           0      -18.275508   -5.112148    1.180094
     67          1           0      -18.242459   -5.220392    2.863592
     68          1           0      -15.082575   -5.288141    4.411684
     69          1           0      -15.035088   -3.702849    5.174862
     70          1           0      -13.526656   -4.855036    2.951399
     71          1           0      -12.888703   -3.902157    4.334052
     72          1           0      -13.695049   -3.107157    2.908398
     73          1           0      -15.535825    2.049463    5.724857
     74          1           0      -16.055741    0.327438    5.783028
     75          1           0      -17.278946    1.606528    5.391542
     76          1           0      -17.087818    4.492954    1.172361
     77          1           0      -14.913302    8.160900    0.511192
     78          1           0      -14.610408    7.236504   -1.080498
     79          1           0      -13.614231    7.101834    0.380743
     80         12           0       15.963161   -0.781862    0.159409
     81          6           0       15.760728    2.792935   -0.083293
     82          6           0       15.104347   -0.905076   -3.139354
     83          6           0       15.692338   -3.929834    0.449796
     84          6           0       15.676867   -0.424597    3.614276
     85          7           0       15.516603    0.806540   -1.313612
     86          6           0       15.531321    2.130961   -1.307467
     87          6           0       15.365994    2.782524   -2.706644
     88          6           0       14.609573    1.574557   -3.446566
     89          6           0       15.131770    0.409319   -2.608585
     90          6           0       13.098202    1.630005   -3.298164
     91          6           0       16.744862    3.098548   -3.385532
     92          6           0       16.664145    4.012036   -4.610588
     93          1           0       17.747668    4.963277   -4.842110
     94          7           0       15.953804   -2.203249   -1.225559
     95          6           0       15.598305   -2.074721   -2.521077
     96          6           0       15.745383   -3.413284   -3.113335
     97          6           0       16.058476   -4.376747   -2.023184
     98          6           0       15.889467   -3.525592   -0.862554
     99          6           0       15.667724   -3.661990   -4.591698
    100          6           0       16.433774   -5.827727   -2.024317
    101          8           0       16.428225   -6.525504   -0.949185
    102          6           0       16.717482   -6.430487   -3.334929
    103          7           0       15.508059   -2.015285    1.769972
    104          6           0       15.508171   -3.353350    1.637686
    105          6           0       15.425862   -4.034494    2.982918
    106          6           0       15.615006   -2.872390    4.065182
    107          6           0       15.687972   -1.654303    3.118436
    108          6           0       14.127450   -4.788894    3.268241
    109          6           0       16.746090   -3.063337    5.112497
    110          6           0       18.094976   -2.997877    4.433081
    111          7           0       15.941015    0.866419    1.556097
    112          6           0       15.785495    0.794673    2.957796
    113          6           0       15.719408    2.182382    3.460099
    114          6           0       15.818735    2.971278    2.304134
    115          6           0       15.917979    2.134139    1.160090
    116          6           0       15.536953    2.567712    4.818174
    117          6           0       15.851511    4.321790    1.790570
    118          8           0       15.891390    5.442720    2.296212
    119          6           0       15.688166    4.265692    0.210519
    120          6           0       16.739149    5.153935   -0.396917
    121          8           0       17.945577    4.873837   -0.284240
    122          8           0       16.143254    6.062435   -1.190592
    123          6           0       17.145593    6.959722   -1.824624
    124          1           0       14.621077   -1.065260   -4.103552
    125          1           0       15.702659   -5.009348    0.617249
    126          1           0       15.686576   -0.228225    4.688533
    127          1           0       14.749216    3.673082   -2.723021
    128          1           0       14.935335    1.477859   -4.478991
    129          1           0       12.788491    2.409504   -2.618014
    130          1           0       12.803881    0.659495   -2.920623
    131          1           0       12.626322    1.727165   -4.280114
    132          1           0       17.129396    2.185128   -3.857276
    133          1           0       17.434836    3.508559   -2.673872
    134          1           0       15.690884    4.511633   -4.688815
    135          1           0       16.720699    3.393091   -5.509319
    136          1           0       15.263163   -2.792959   -5.125093
    137          1           0       14.919539   -4.447228   -4.744971
    138          1           0       16.619029   -3.993052   -5.013677
    139          1           0       15.846232   -6.325228   -3.977035
    140          1           0       17.053444   -7.447267   -3.122395
    141          1           0       17.528698   -5.867985   -3.810466
    142          1           0       16.224156   -4.757077    3.100004
    143          1           0       14.713449   -2.738299    4.680851
    144          1           0       14.287415   -5.855866    3.513287
    145          1           0       13.478786   -4.689386    2.408087
    146          1           0       13.517064   -4.371781    4.067395
    147          1           0       16.676255   -4.053724    5.569017
    148          1           0       16.717738   -2.335419    5.916435
    149          1           0       18.227915   -4.014079    4.049994
    150          1           0       18.872716   -2.741259    5.149538
    151          1           0       18.068981   -2.321357    3.570929
    152          1           0       16.227660    3.378693    5.007188
    153          1           0       15.708006    1.732955    5.494703
    154          1           0       14.486350    2.869360    4.795863
    155          1           0       14.678904    4.604375   -0.026718
    156          1           0       16.861084    7.985780   -1.571736
    157          1           0       17.152923    6.688836   -2.897147
    158          1           0       18.160909    6.922735   -1.447495
 ---------------------------------------------------------------------

 SCF Done:  E(RCAM-B3LYP) =  -4069.81176252     A.U. after   19 cycles

 Excitation energies and oscillator strengths:

 Excited State   1:      Singlet-A      1.6753 eV  740.06 nm  f=0.2227  <S**2>=0.000
     310 -> 316        0.16882
     311 -> 314       -0.15889
     312 -> 313        0.66740
     310 <- 316        0.10178
 This state for optimization and/or second-order correction.
 Total Energy, E(TD-HF/TD-DFT) =  -4069.75019551
 Copying the excited state density for this state as the 1-particle RhoCI density.

 Excited State   2:      Singlet-A      1.6801 eV  737.96 nm  f=0.5546  <S**2>=0.000
     309 -> 315        0.17082
     311 -> 314        0.66703
     312 -> 313        0.15884
     309 <- 315        0.10228

 Excited State   3:      Singlet-A      2.1861 eV  567.15 nm  f=0.0957  <S**2>=0.000
     310 -> 313        0.64213
     312 -> 316       -0.27297

 Excited State   4:      Singlet-A      2.1925 eV  565.49 nm  f=0.1045  <S**2>=0.000
     309 -> 314        0.64036
     311 -> 315       -0.27814

 Excited State   5:      Singlet-A      3.0658 eV  404.41 nm  f=0.0000  <S**2>=0.000
     311 -> 313        0.70711

 The electronic state is 1-A.
 Alpha  occ. eigenvalues --  -46.87796 -46.87660 -19.26349 -19.26281 -19.19161
 Alpha  occ. eigenvalues --  -19.19017 -19.18816 -19.18715 -19.18168 -19.18050
 Alpha  occ. eigenvalues --  -14.42498 -14.42449 -14.41449 -14.41359 -14.39402
 Alpha  occ. eigenvalues --  -14.39352 -14.38600 -14.38586 -10.39090 -10.39077
 Alpha  occ. eigenvalues --  -10.35450 -10.35392 -10.34388 -10.34228 -10.31756
 Alpha  occ. eigenvalues --  -10.31675 -10.31404 -10.31309 -10.31024 -10.30908
 Alpha  occ. eigenvalues --  -10.30569 -10.30507 -10.30398 -10.30361 -10.30207
 Alpha  occ. eigenvalues --  -10.30141 -10.29920 -10.29894 -10.29630 -10.29437
 Alpha  occ. eigenvalues --  -10.29401 -10.29254 -10.28748 -10.28720 -10.28656
 Alpha  occ. eigenvalues --  -10.28538 -10.28405 -10.28364 -10.28141 -10.28116
 Alpha  occ. eigenvalues --  -10.28001 -10.27792 -10.27727 -10.27669 -10.27584
 Alpha  occ. eigenvalues --  -10.27517 -10.27500 -10.27484 -10.27483 -10.27469
 Alpha  occ. eigenvalues --  -10.27465 -10.27449 -10.27403 -10.27375 -10.27156
 Alpha  occ. eigenvalues --  -10.27050 -10.26704 -10.26694 -10.26417 -10.26413
 Alpha  occ. eigenvalues --  -10.26233 -10.26183 -10.26137 -10.26025 -10.26019
 Alpha  occ. eigenvalues --  -10.25934 -10.25848 -10.25841 -10.25435 -10.25395
 Alpha  occ. eigenvalues --  -10.24872 -10.24832 -10.24787 -10.24731 -10.24690
 Alpha  occ. eigenvalues --  -10.24686  -3.16539  -3.16410  -1.91421  -1.91293
 Alpha  occ. eigenvalues --   -1.91007  -1.90881  -1.90849  -1.90718  -1.16643
 Alpha  occ. eigenvalues --   -1.16630  -1.08657  -1.08625  -1.07217  -1.06967
 Alpha  occ. eigenvalues --   -1.06945  -1.06640  -1.04580  -1.04495  -1.03760
 Alpha  occ. eigenvalues --   -1.03663  -1.03233  -1.03039  -1.02410  -1.02111
 Alpha  occ. eigenvalues --   -0.91987  -0.91971  -0.89519  -0.89494  -0.89187
 Alpha  occ. eigenvalues --   -0.89152  -0.88286  -0.88220  -0.87869  -0.87793
 Alpha  occ. eigenvalues --   -0.87684  -0.87672  -0.87274  -0.87121  -0.85000
 Alpha  occ. eigenvalues --   -0.84981  -0.83936  -0.83875  -0.82968  -0.82932
 Alpha  occ. eigenvalues --   -0.82653  -0.82648  -0.81596  -0.81584  -0.80595
 Alpha  occ. eigenvalues --   -0.80443  -0.78797  -0.78636  -0.77218  -0.77145
 Alpha  occ. eigenvalues --   -0.76933  -0.76898  -0.75922  -0.75839  -0.74897
 Alpha  occ. eigenvalues --   -0.74802  -0.72773  -0.72699  -0.71671  -0.71581
 Alpha  occ. eigenvalues --   -0.69906  -0.69757  -0.68872  -0.68828  -0.67641
 Alpha  occ. eigenvalues --   -0.67602  -0.67219  -0.67201  -0.65285  -0.65272
 Alpha  occ. eigenvalues --   -0.64853  -0.64770  -0.64654  -0.64620  -0.64269
 Alpha  occ. eigenvalues --   -0.64203  -0.62296  -0.62278  -0.60442  -0.60340
 Alpha  occ. eigenvalues --   -0.59803  -0.59797  -0.58993  -0.58986  -0.58503
 Alpha  occ. eigenvalues --   -0.58425  -0.57583  -0.57554  -0.57308  -0.57236
 Alpha  occ. eigenvalues --   -0.56309  -0.56204  -0.55976  -0.55887  -0.55520
 Alpha  occ. eigenvalues --   -0.55452  -0.55338  -0.55247  -0.54522  -0.54487
 Alpha  occ. eigenvalues --   -0.53913  -0.53894  -0.53298  -0.53228  -0.53221
 Alpha  occ. eigenvalues --   -0.53142  -0.52913  -0.52902  -0.52756  -0.52669
 Alpha  occ. eigenvalues --   -0.52437  -0.52401  -0.51913  -0.51884  -0.51659
 Alpha  occ. eigenvalues --   -0.51616  -0.51201  -0.51195  -0.50574  -0.50476
 Alpha  occ. eigenvalues --   -0.50031  -0.49980  -0.49919  -0.49867  -0.49514
 Alpha  occ. eigenvalues --   -0.49488  -0.49214  -0.49202  -0.49104  -0.49095
 Alpha  occ. eigenvalues --   -0.48591  -0.48558  -0.48461  -0.48445  -0.48375
 Alpha  occ. eigenvalues --   -0.48339  -0.47694  -0.47595  -0.47296  -0.47118
 Alpha  occ. eigenvalues --   -0.46796  -0.46709  -0.46554  -0.46554  -0.46358
 Alpha  occ. eigenvalues --   -0.46270  -0.46161  -0.46085  -0.45822  -0.45820
 Alpha  occ. eigenvalues --   -0.45208  -0.45201  -0.44576  -0.44514  -0.44507
 Alpha  occ. eigenvalues --   -0.44476  -0.44144  -0.44127  -0.44087  -0.44078
 Alpha  occ. eigenvalues --   -0.44019  -0.43939  -0.43553  -0.43493  -0.43386
 Alpha  occ. eigenvalues --   -0.43385  -0.43026  -0.42930  -0.42901  -0.42697
 Alpha  occ. eigenvalues --   -0.42653  -0.42553  -0.42008  -0.41964  -0.41703
 Alpha  occ. eigenvalues --   -0.41669  -0.41533  -0.41459  -0.41140  -0.40989
 Alpha  occ. eigenvalues --   -0.40869  -0.40824  -0.40723  -0.40699  -0.40570
 Alpha  occ. eigenvalues --   -0.40493  -0.40234  -0.40228  -0.39440  -0.39425
 Alpha  occ. eigenvalues --   -0.38468  -0.38350  -0.37747  -0.37655  -0.37320
 Alpha  occ. eigenvalues --   -0.37266  -0.37263  -0.37200  -0.36771  -0.36711
 Alpha  occ. eigenvalues --   -0.36217  -0.36191  -0.34285  -0.34253  -0.33862
 Alpha  occ. eigenvalues --   -0.33768  -0.33185  -0.33176  -0.31346  -0.31274
 Alpha  occ. eigenvalues --   -0.31035  -0.30973  -0.30027  -0.29955  -0.29449
 Alpha  occ. eigenvalues --   -0.29327  -0.29321  -0.29211  -0.24080  -0.24036
 Alpha  occ. eigenvalues --   -0.21127  -0.21117
 Alpha virt. eigenvalues --   -0.08792  -0.08774  -0.01749  -0.01684  -0.00058
 Alpha virt. eigenvalues --   -0.00029   0.02201   0.02208   0.03122   0.03226
 Alpha virt. eigenvalues --    0.04719   0.04729   0.05101   0.05165   0.06178

 Mulliken charges:
               1
     1  Mg   0.838755
     2  C   -0.002957
     3  C   -0.094135
     4  C   -0.045879
     5  C   -0.063949
     6  N   -0.256793
     7  C   -0.052451
     8  C   -0.014026
     9  C   -0.086990
    10  C    0.046323
    11  C    0.104814
    12  C    0.053481
    13  C   -0.071814
    14  H    0.036141
    15  N   -0.433142
    16  C    0.168412
    17  C   -0.177163
    18  C   -0.004025
    19  C    0.148711
    20  C    0.110185
    21  C    0.012284
    22  O   -0.249634
    23  C    0.062478
    24  N   -0.341121
    25  C    0.041255
    26  C   -0.028190
    27  C   -0.023960
    28  C    0.074811
    29  C    0.076180
    30  C    0.035134
    31  C   -0.004503
    32  N   -0.310476
    33  C    0.080405
    34  C   -0.169703
    35  C    0.008372
    36  C    0.082991
    37  C    0.127309
    38  C    0.046129
    39  O   -0.188399
    40  C   -0.005341
    41  C    0.212881
    42  O   -0.257099
    43  O   -0.304797
    44  C    0.157679
    45  H   -0.017613
    46  H   -0.016847
    47  H   -0.041478
    48  H    0.000950
    49  H   -0.004045
    50  H    0.025482
    51  H    0.016444
    52  H    0.016652
    53  H    0.011186
    54  H    0.044132
    55  H    0.017882
    56  H    0.017932
    57  H    0.005869
    58  H    0.026813
    59  H    0.039519
    60  H    0.037345
    61  H    0.035627
    62  H    0.031480
    63  H    0.016545
    64  H    0.009467
    65  H    0.023205
    66  H    0.012542
    67  H    0.004757
    68  H    0.006363
    69  H    0.004745
    70  H    0.008766
    71  H    0.018156
    72  H    0.028981
    73  H    0.047597
    74  H    0.009119
    75  H    0.046018
    76  H    0.035159
    77  H    0.042972
    78  H    0.046392
    79  H    0.053705
    80  Mg   0.837843
    81  C   -0.016835
    82  C   -0.087809
    83  C   -0.045520
    84  C   -0.064842
    85  N   -0.254573
    86  C   -0.049810
    87  C   -0.015096
    88  C   -0.090501
    89  C    0.045761
    90  C    0.114364
    91  C    0.062525
    92  C   -0.077901
    93  H    0.034893
    94  N   -0.423502
    95  C    0.162944
    96  C   -0.174635
    97  C   -0.007795
    98  C    0.152124
    99  C    0.099376
   100  C    0.015566
   101  O   -0.253172
   102  C    0.061191
   103  N   -0.350071
   104  C    0.037538
   105  C   -0.019853
   106  C   -0.034821
   107  C    0.088894
   108  C    0.073652
   109  C    0.034755
   110  C   -0.007694
   111  N   -0.324119
   112  C    0.078459
   113  C   -0.163120
   114  C    0.002278
   115  C    0.096205
   116  C    0.131494
   117  C    0.042390
   118  O   -0.187838
   119  C    0.000905
   120  C    0.211268
   121  O   -0.251031
   122  O   -0.305620
   123  C    0.152020
   124  H   -0.019665
   125  H   -0.015553
   126  H   -0.040419
   127  H   -0.000632
   128  H   -0.004342
   129  H    0.022499
   130  H    0.014453
   131  H    0.016273
   132  H    0.013909
   133  H    0.037681
   134  H    0.020799
   135  H    0.019578
   136  H    0.008750
   137  H    0.026144
   138  H    0.039780
   139  H    0.038251
   140  H    0.036400
   141  H    0.033888
   142  H    0.014399
   143  H    0.012470
   144  H    0.025147
   145  H    0.011656
   146  H    0.005726
   147  H    0.006279
   148  H    0.003671
   149  H    0.010929
   150  H    0.017937
   151  H    0.030091
   152  H    0.046014
   153  H    0.008527
   154  H    0.047012
   155  H    0.035071
   156  H    0.043932
   157  H    0.049480
   158  H    0.053578
 Sum of Mulliken charges =  -0.00000

 Dipole moment (field-independent basis, Debye):
    X=             -3.9588    Y=             -2.4137    Z=             -7.7398  Tot=              9.0223
 Quadrupole moment (field-independent basis, Debye-Ang):
   XX=           -516.2903   YY=           -550.0992   ZZ=           -448.7907
   XY=            -19.0321   XZ=              5.7824   YZ=            -47.0238

 Normal termination of Gaussian 16 at Sun Sep 12 19:36:33 2021.
