 Gaussian 16, Revision A.03,
 Gaussian 16:  ES64L-G16RevA.03 25-Dec-2016

 -----------------------------------
 #p cam-b3lyp/Def2SVP td=(nstates=5)
 -----------------------------------

 --------------------------------
 TDDFT excited states in gaussian
 --------------------------------
 Symbolic Z-matrix:
 Charge =  0 Multiplicity = 1

                         Standard orientation:
 ---------------------------------------------------------------------
 Center     Atomic      Atomic             Coordinates (Angstroms)
 Number     Number       Type             X           Y           Z
 ---------------------------------------------------------------------
      1         12           0        6.737146   -0.395397   -0.155298
      2          6           0        6.717273    3.002556   -1.280347
      3          6           0        7.661123    0.781562    2.911312
      4          6           0        7.202549   -3.402377    0.738060
      5          6           0        6.929770   -1.347536   -3.502235
      6          7           0        7.108286    1.653453    0.596442
      7          6           0        7.007849    2.874133    0.079697
      8          6           0        7.166059    4.007527    1.136939
      9          6           0        8.002728    3.211434    2.236128
     10          6           0        7.537539    1.800723    1.920822
     11          6           0        9.511692    3.289174    2.027590
     12          6           0        5.787927    4.488714    1.703457
     13          6           0        5.827363    5.802528    2.489391
     14          1           0        4.696955    6.713196    2.388348
     15          7           0        6.864537   -1.190933    1.648515
     16          6           0        7.241695   -0.560619    2.786822
     17          6           0        7.174834   -1.578316    3.857570
     18          6           0        6.911487   -2.896592    3.216563
     19          6           0        7.009637   -2.549087    1.821936
     20          6           0        7.304211   -1.250608    5.313462
     21          6           0        6.628324   -4.256206    3.772802
     22          8           0        6.659302   -5.308103    3.046768
     23          6           0        6.397663   -4.336254    5.226566
     24          7           0        7.246459   -2.126145   -1.205415
     25          6           0        7.326774   -3.309685   -0.587542
     26          6           0        7.423448   -4.435295   -1.574251
     27          6           0        7.146873   -3.790676   -3.008729
     28          6           0        7.012624   -2.308754   -2.579596
     29          6           0        8.760992   -5.187762   -1.602198
     30          6           0        6.011494   -4.419236   -3.855042
     31          6           0        4.675590   -4.158778   -3.195785
     32          7           0        6.634197    0.607214   -2.077593
     33          6           0        6.761267    0.017884   -3.343775
     34          6           0        6.731418    1.110265   -4.333664
     35          6           0        6.604894    2.268071   -3.568599
     36          6           0        6.585041    1.923005   -2.186996
     37          6           0        6.874449    0.963174   -5.741620
     38          6           0        6.506634    3.718403   -3.595797
     39          8           0        6.379954    4.562460   -4.484060
     40          6           0        6.698047    4.261510   -2.111135
     41          6           0        5.604635    5.260831   -1.848231
     42          8           0        4.411210    4.901511   -1.785063
     43          8           0        6.150185    6.429932   -1.479288
     44          6           0        5.118526    7.457178   -1.174986
     45          1           0        8.178033    1.012641    3.844772
     46          1           0        7.256603   -4.461994    0.996379
     47          1           0        6.899920   -1.575068   -4.569377
     48          1           0        7.731980    4.873668    0.793490
     49          1           0        7.711576    3.488951    3.249013
     50          1           0        9.758887    3.772390    1.082435
     51          1           0        9.859361    2.255918    2.029264
     52          1           0        9.996020    3.769661    2.878081
     53          1           0        5.467137    3.809568    2.493340
     54          1           0        5.049181    4.568183    0.905168
     55          1           0        6.763880    6.336600    2.326261
     56          1           0        5.833165    5.564186    3.553045
     57          1           0        7.656554   -0.231037    5.464706
     58          1           0        8.103452   -1.875950    5.710787
     59          1           0        6.381102   -1.441990    5.860795
     60          1           0        7.274359   -3.956271    5.751508
     61          1           0        6.122950   -5.370475    5.430944
     62          1           0        5.571936   -3.674649    5.490013
     63          1           0        6.670906   -5.196808   -1.373743
     64          1           0        8.022106   -3.843838   -3.656661
     65          1           0        8.664228   -6.259468   -1.426734
     66          1           0        9.421137   -4.729088   -0.866591
     67          1           0        9.337089   -5.062082   -2.518567
     68          1           0        6.135424   -5.500100   -3.912670
     69          1           0        5.971451   -4.035185   -4.874431
     70          1           0        4.607859   -4.958199   -2.458785
     71          1           0        3.869814   -4.232480   -3.926883
     72          1           0        4.677413   -3.213772   -2.652235
     73          1           0        6.123505    1.610911   -6.193825
     74          1           0        6.738741   -0.074037   -6.047200
     75          1           0        7.899425    1.307846   -5.877564
     76          1           0        7.687205    4.716372   -2.068840
     77          1           0        5.330292    8.321205   -1.804944
     78          1           0        5.135056    7.602421   -0.094692
     79          1           0        4.099085    7.222617   -1.483303
     80         12           0       -6.466789   -1.101353    0.328875
     81          6           0       -8.328765    1.929148   -0.148806
     82          6           0       -4.203002    0.743554    2.091313
     83          6           0       -4.580647   -3.652187    0.384929
     84          6           0       -8.220675   -2.440304   -2.368681
     85          7           0       -6.386625    1.049626    0.837913
     86          6           0       -7.181304    2.093324    0.654821
     87          6           0       -6.762973    3.365718    1.439417
     88          6           0       -5.200558    3.037990    1.613604
     89          6           0       -5.261660    1.513373    1.546576
     90          6           0       -4.349118    3.533203    0.456387
     91          6           0       -7.485039    3.476003    2.828114
     92          6           0       -7.361970    4.840226    3.510389
     93          1           0       -8.495253    5.334637    4.287350
     94          7           0       -4.930042   -1.536623    1.506801
     95          6           0       -4.133939   -0.665236    2.161151
     96          6           0       -3.140959   -1.484236    2.873467
     97          6           0       -3.314510   -2.901638    2.454468
     98          6           0       -4.289379   -2.745455    1.393660
     99          6           0       -2.206929   -0.917845    3.903140
    100          6           0       -2.694872   -4.183880    2.921493
    101          8           0       -2.815824   -5.272068    2.255119
    102          6           0       -1.864591   -4.107872    4.132418
    103          7           0       -6.253570   -2.725653   -0.951179
    104          6           0       -5.397287   -3.722471   -0.666493
    105          6           0       -5.614207   -4.905422   -1.579713
    106          6           0       -6.960715   -4.587656   -2.381910
    107          6           0       -7.253906   -3.173652   -1.834168
    108          6           0       -4.487790   -5.195648   -2.571344
    109          6           0       -8.087825   -5.654387   -2.315603
    110          6           0       -8.642625   -5.732418   -0.911512
    111          7           0       -8.123428   -0.480783   -0.911493
    112          6           0       -8.682054   -1.182434   -2.002224
    113          6           0       -9.710524   -0.307705   -2.601832
    114          6           0       -9.662496    0.860558   -1.826377
    115          6           0       -8.659937    0.731480   -0.827522
    116          6           0      -10.500272   -0.615243   -3.745440
    117          6           0      -10.224624    2.177773   -1.632341
    118          8           0      -11.164365    2.802125   -2.123061
    119          6           0       -9.299289    2.977604   -0.617246
    120          6           0      -10.187115    3.620664    0.412687
    121          8           0      -10.842835    2.922843    1.206210
    122          8           0       -9.949764    4.944893    0.433993
    123          6           0      -10.798811    5.625307    1.447879
    124          1           0       -3.320731    1.264872    2.463728
    125          1           0       -4.033167   -4.596611    0.427336
    126          1           0       -8.879006   -2.823201   -3.151415
    127          1           0       -6.889746    4.295486    0.897913
    128          1           0       -4.834694    3.362631    2.584225
    129          1           0       -4.952639    3.920867   -0.350844
    130          1           0       -3.777710    2.676474    0.123880
    131          1           0       -3.617193    4.263815    0.812547
    132          1           0       -6.953882    2.852083    3.558420
    133          1           0       -8.519890    3.207148    2.741873
    134          1           0       -7.000922    5.614186    2.822214
    135          1           0       -6.583658    4.776985    4.274751
    136          1           0       -2.197498    0.178812    3.877784
    137          1           0       -1.192255   -1.205118    3.606904
    138          1           0       -2.403944   -1.300983    4.906669
    139          1           0       -1.053857   -3.401467    3.970647
    140          1           0       -1.583113   -5.138091    4.358890
    141          1           0       -2.473825   -3.705952    4.949680
    142          1           0       -5.752006   -5.815055   -1.008160
    143          1           0       -6.775581   -4.474802   -3.460247
    144          1           0       -4.081300   -6.220796   -2.482346
    145          1           0       -3.705964   -4.462459   -2.423975
    146          1           0       -4.746016   -5.050644   -3.618958
    147          1           0       -7.686433   -6.644274   -2.546173
    148          1           0       -8.901054   -5.467159   -3.008856
    149          1           0       -7.935484   -6.394742   -0.403203
    150          1           0       -9.644915   -6.155997   -0.918640
    151          1           0       -8.595413   -4.756323   -0.414869
    152          1           0      -11.511558   -0.305359   -3.517919
    153          1           0      -10.453343   -1.674895   -3.987740
    154          1           0      -10.001178    0.000511   -4.498448
    155          1           0       -8.741014    3.715518   -1.194627
    156          1           0      -11.350680    6.413026    0.925737
    157          1           0      -10.108143    5.942244    2.251786
    158          1           0      -11.608948    5.055159    1.887264
 ---------------------------------------------------------------------

 SCF Done:  E(RCAM-B3LYP) =  -4069.81170806     A.U. after   19 cycles

 Excitation energies and oscillator strengths:

 Excited State   1:      Singlet-A      1.6663 eV  744.06 nm  f=0.1396  <S**2>=0.000
     309 -> 315       -0.10884
     310 -> 316        0.13269
     311 -> 313       -0.43393
     312 -> 314        0.53207
 This state for optimization and/or second-order correction.
 Total Energy, E(TD-HF/TD-DFT) =  -4069.75047172
 Copying the excited state density for this state as the 1-particle RhoCI density.

 Excited State   2:      Singlet-A      1.6873 eV  734.79 nm  f=0.6229  <S**2>=0.000
     309 -> 315        0.13792
     310 -> 316        0.11145
     311 -> 313        0.53096
     312 -> 314        0.43311

 Excited State   3:      Singlet-A      2.1845 eV  567.56 nm  f=0.0394  <S**2>=0.000
     309 -> 313        0.20402
     310 -> 314        0.61004
     312 -> 316       -0.25775

 Excited State   4:      Singlet-A      2.1936 eV  565.21 nm  f=0.1491  <S**2>=0.000
     309 -> 313        0.60749
     310 -> 314       -0.20223
     311 -> 315       -0.26491

 Excited State   5:      Singlet-A      2.6161 eV  473.92 nm  f=0.0000  <S**2>=0.000
     312 -> 313        0.70698

 The electronic state is 1-A.
 Alpha  occ. eigenvalues --  -46.87937 -46.87554 -19.26464 -19.26268 -19.19204
 Alpha  occ. eigenvalues --  -19.19078 -19.18936 -19.18624 -19.18309 -19.17954
 Alpha  occ. eigenvalues --  -14.42595 -14.42387 -14.41578 -14.41255 -14.39544
 Alpha  occ. eigenvalues --  -14.39247 -14.38725 -14.38496 -10.39259 -10.39006
 Alpha  occ. eigenvalues --  -10.35569 -10.35303 -10.34531 -10.34131 -10.31868
 Alpha  occ. eigenvalues --  -10.31686 -10.31551 -10.31195 -10.31062 -10.30915
 Alpha  occ. eigenvalues --  -10.30711 -10.30638 -10.30329 -10.30296 -10.30258
 Alpha  occ. eigenvalues --  -10.30039 -10.30038 -10.29793 -10.29765 -10.29390
 Alpha  occ. eigenvalues --  -10.29333 -10.29306 -10.28926 -10.28771 -10.28605
 Alpha  occ. eigenvalues --  -10.28585 -10.28509 -10.28300 -10.28280 -10.28005
 Alpha  occ. eigenvalues --  -10.27930 -10.27899 -10.27870 -10.27722 -10.27642
 Alpha  occ. eigenvalues --  -10.27584 -10.27555 -10.27547 -10.27529 -10.27426
 Alpha  occ. eigenvalues --  -10.27400 -10.27379 -10.27371 -10.27310 -10.27282
 Alpha  occ. eigenvalues --  -10.26950 -10.26928 -10.26606 -10.26546 -10.26378
 Alpha  occ. eigenvalues --  -10.26349 -10.26238 -10.26144 -10.26060 -10.25956
 Alpha  occ. eigenvalues --  -10.25833 -10.25826 -10.25757 -10.25506 -10.25300
 Alpha  occ. eigenvalues --  -10.24970 -10.24913 -10.24771 -10.24722 -10.24659
 Alpha  occ. eigenvalues --  -10.24586  -3.16680  -3.16304  -1.91562  -1.91186
 Alpha  occ. eigenvalues --   -1.91148  -1.90990  -1.90775  -1.90612  -1.16813
 Alpha  occ. eigenvalues --   -1.16562  -1.08769  -1.08562  -1.07334  -1.06875
 Alpha  occ. eigenvalues --   -1.06863  -1.06824  -1.04727  -1.04386  -1.03893
 Alpha  occ. eigenvalues --   -1.03558  -1.03369  -1.02936  -1.02545  -1.02007
 Alpha  occ. eigenvalues --   -0.92115  -0.91883  -0.89626  -0.89399  -0.89355
 Alpha  occ. eigenvalues --   -0.89029  -0.88388  -0.88126  -0.88001  -0.87819
 Alpha  occ. eigenvalues --   -0.87694  -0.87579  -0.87415  -0.87034  -0.85144
 Alpha  occ. eigenvalues --   -0.84891  -0.84031  -0.83786  -0.83092  -0.82850
 Alpha  occ. eigenvalues --   -0.82800  -0.82550  -0.81740  -0.81504  -0.80742
 Alpha  occ. eigenvalues --   -0.80347  -0.78936  -0.78543  -0.77355  -0.77083
 Alpha  occ. eigenvalues --   -0.77044  -0.76799  -0.76074  -0.75728  -0.75006
 Alpha  occ. eigenvalues --   -0.74706  -0.72905  -0.72597  -0.71805  -0.71471
 Alpha  occ. eigenvalues --   -0.69989  -0.69669  -0.69028  -0.68723  -0.67779
 Alpha  occ. eigenvalues --   -0.67505  -0.67393  -0.67110  -0.65448  -0.65166
 Alpha  occ. eigenvalues --   -0.64994  -0.64761  -0.64670  -0.64554  -0.64378
 Alpha  occ. eigenvalues --   -0.64109  -0.62451  -0.62188  -0.60572  -0.60249
 Alpha  occ. eigenvalues --   -0.59961  -0.59683  -0.59120  -0.58891  -0.58639
 Alpha  occ. eigenvalues --   -0.58327  -0.57736  -0.57459  -0.57433  -0.57143
 Alpha  occ. eigenvalues --   -0.56449  -0.56146  -0.56108  -0.55798  -0.55659
 Alpha  occ. eigenvalues --   -0.55455  -0.55361  -0.55155  -0.54651  -0.54399
 Alpha  occ. eigenvalues --   -0.54064  -0.53797  -0.53431  -0.53376  -0.53133
 Alpha  occ. eigenvalues --   -0.53063  -0.53044  -0.52906  -0.52806  -0.52576
 Alpha  occ. eigenvalues --   -0.52516  -0.52318  -0.52039  -0.51789  -0.51782
 Alpha  occ. eigenvalues --   -0.51561  -0.51330  -0.51104  -0.50714  -0.50397
 Alpha  occ. eigenvalues --   -0.50138  -0.50052  -0.49875  -0.49773  -0.49664
 Alpha  occ. eigenvalues --   -0.49388  -0.49359  -0.49248  -0.49100  -0.48991
 Alpha  occ. eigenvalues --   -0.48740  -0.48582  -0.48569  -0.48454  -0.48282
 Alpha  occ. eigenvalues --   -0.48248  -0.47834  -0.47498  -0.47431  -0.47025
 Alpha  occ. eigenvalues --   -0.46927  -0.46720  -0.46610  -0.46490  -0.46446
 Alpha  occ. eigenvalues --   -0.46289  -0.46175  -0.45991  -0.45965  -0.45726
 Alpha  occ. eigenvalues --   -0.45305  -0.45111  -0.44720  -0.44645  -0.44417
 Alpha  occ. eigenvalues --   -0.44371  -0.44269  -0.44234  -0.44161  -0.44016
 Alpha  occ. eigenvalues --   -0.43990  -0.43848  -0.43642  -0.43526  -0.43463
 Alpha  occ. eigenvalues --   -0.43282  -0.43161  -0.42858  -0.42842  -0.42803
 Alpha  occ. eigenvalues --   -0.42755  -0.42461  -0.42128  -0.41872  -0.41840
 Alpha  occ. eigenvalues --   -0.41691  -0.41568  -0.41359  -0.41277  -0.41016
 Alpha  occ. eigenvalues --   -0.40961  -0.40875  -0.40676  -0.40630  -0.40599
 Alpha  occ. eigenvalues --   -0.40426  -0.40395  -0.40135  -0.39517  -0.39339
 Alpha  occ. eigenvalues --   -0.38580  -0.38253  -0.37931  -0.37561  -0.37435
 Alpha  occ. eigenvalues --   -0.37427  -0.37168  -0.37095  -0.36870  -0.36686
 Alpha  occ. eigenvalues --   -0.36331  -0.36121  -0.34423  -0.34150  -0.33946
 Alpha  occ. eigenvalues --   -0.33775  -0.33325  -0.33072  -0.31464  -0.31182
 Alpha  occ. eigenvalues --   -0.31172  -0.30868  -0.30169  -0.29858  -0.29588
 Alpha  occ. eigenvalues --   -0.29459  -0.29229  -0.29110  -0.24218  -0.23930
 Alpha  occ. eigenvalues --   -0.21263  -0.21013
 Alpha virt. eigenvalues --   -0.08911  -0.08690  -0.01882  -0.01580  -0.00197
 Alpha virt. eigenvalues --    0.00071   0.02068   0.02306   0.02951   0.03317
 Alpha virt. eigenvalues --    0.04562   0.04838   0.04923   0.05252   0.05984

 Mulliken charges:
               1
     1  Mg   0.838029
     2  C   -0.003371
     3  C   -0.094812
     4  C   -0.045434
     5  C   -0.063623
     6  N   -0.256788
     7  C   -0.052730
     8  C   -0.013879
     9  C   -0.086871
    10  C    0.046024
    11  C    0.104751
    12  C    0.053673
    13  C   -0.071494
    14  H    0.035026
    15  N   -0.433154
    16  C    0.168075
    17  C   -0.177706
    18  C   -0.004130
    19  C    0.148559
    20  C    0.110259
    21  C    0.012189
    22  O   -0.248671
    23  C    0.062721
    24  N   -0.341136
    25  C    0.041218
    26  C   -0.028311
    27  C   -0.024087
    28  C    0.074990
    29  C    0.076042
    30  C    0.034966
    31  C   -0.004537
    32  N   -0.310503
    33  C    0.080458
    34  C   -0.169475
    35  C    0.008412
    36  C    0.082918
    37  C    0.127286
    38  C    0.046116
    39  O   -0.188219
    40  C   -0.005347
    41  C    0.213016
    42  O   -0.257841
    43  O   -0.304548
    44  C    0.157735
    45  H   -0.017595
    46  H   -0.016233
    47  H   -0.041054
    48  H    0.001175
    49  H   -0.004435
    50  H    0.025658
    51  H    0.016740
    52  H    0.016777
    53  H    0.010200
    54  H    0.043490
    55  H    0.018568
    56  H    0.017723
    57  H    0.005723
    58  H    0.027268
    59  H    0.038478
    60  H    0.037501
    61  H    0.036357
    62  H    0.030128
    63  H    0.017277
    64  H    0.009634
    65  H    0.023698
    66  H    0.012443
    67  H    0.004916
    68  H    0.006859
    69  H    0.004704
    70  H    0.009735
    71  H    0.018583
    72  H    0.028379
    73  H    0.047693
    74  H    0.009437
    75  H    0.046249
    76  H    0.035390
    77  H    0.043413
    78  H    0.046146
    79  H    0.053178
    80  Mg   0.838087
    81  C   -0.016862
    82  C   -0.087574
    83  C   -0.045373
    84  C   -0.064800
    85  N   -0.254616
    86  C   -0.049583
    87  C   -0.015128
    88  C   -0.090524
    89  C    0.045780
    90  C    0.114182
    91  C    0.062599
    92  C   -0.077620
    93  H    0.034317
    94  N   -0.423564
    95  C    0.162955
    96  C   -0.174253
    97  C   -0.007849
    98  C    0.152258
    99  C    0.099341
   100  C    0.015757
   101  O   -0.252927
   102  C    0.061241
   103  N   -0.349947
   104  C    0.037610
   105  C   -0.019864
   106  C   -0.034775
   107  C    0.088899
   108  C    0.073591
   109  C    0.034778
   110  C   -0.007628
   111  N   -0.324113
   112  C    0.078471
   113  C   -0.163176
   114  C    0.002301
   115  C    0.096184
   116  C    0.131482
   117  C    0.042338
   118  O   -0.188070
   119  C    0.000941
   120  C    0.211188
   121  O   -0.251233
   122  O   -0.305485
   123  C    0.152132
   124  H   -0.019058
   125  H   -0.015565
   126  H   -0.040622
   127  H   -0.000503
   128  H   -0.004899
   129  H    0.022680
   130  H    0.015847
   131  H    0.017027
   132  H    0.013604
   133  H    0.037486
   134  H    0.020982
   135  H    0.019231
   136  H    0.008681
   137  H    0.026157
   138  H    0.038844
   139  H    0.038015
   140  H    0.036529
   141  H    0.033252
   142  H    0.014211
   143  H    0.012447
   144  H    0.024867
   145  H    0.012158
   146  H    0.005602
   147  H    0.006075
   148  H    0.003540
   149  H    0.010848
   150  H    0.017699
   151  H    0.030153
   152  H    0.045775
   153  H    0.008337
   154  H    0.047148
   155  H    0.035401
   156  H    0.043815
   157  H    0.049391
   158  H    0.053376
 Sum of Mulliken charges =  -0.00000

 Dipole moment (field-independent basis, Debye):
    X=              6.3289    Y=              0.9834    Z=              5.3811  Tot=              8.3654
 Quadrupole moment (field-independent basis, Debye-Ang):
   XX=           -553.4393   YY=           -508.7058   ZZ=           -482.4777
   XY=             16.7265   XZ=             20.6176   YZ=             58.6758

 Normal termination of Gaussian 16 at Sat Sep 11 16:01:17 2021.
