 Gaussian 16, Revision A.03,
 Gaussian 16:  ES64L-G16RevA.03 25-Dec-2016

 -----------------------------------
 #p cam-b3lyp/Def2SVP td=(nstates=5)
 -----------------------------------

 --------------------------------
 TDDFT excited states in gaussian
 --------------------------------
 Symbolic Z-matrix:
 Charge =  0 Multiplicity = 1

                         Standard orientation:
 ---------------------------------------------------------------------
 Center     Atomic      Atomic             Coordinates (Angstroms)
 Number     Number       Type             X           Y           Z
 ---------------------------------------------------------------------
      1         12           0        5.458105   -0.286871   -0.120403
      2          6           0        5.327677    3.013816   -1.499049
      3          6           0        6.347517    1.147719    2.845059
      4          6           0        6.020986   -3.201207    0.996035
      5          6           0        5.677150   -1.482940   -3.386455
      6          7           0        5.764128    1.823806    0.472927
      7          6           0        5.623886    2.998042   -0.134258
      8          6           0        5.746880    4.212674    0.833686
      9          6           0        6.610038    3.529193    1.986859
     10          6           0        6.190039    2.084524    1.780809
     11          6           0        8.115469    3.639100    1.767540
     12          6           0        4.354687    4.691077    1.367224
     13          6           0        4.352840    6.061191    2.051431
     14          1           0        3.193629    6.925016    1.885949
     15          7           0        5.613191   -0.939132    1.737917
     16          6           0        5.971286   -0.212749    2.823929
     17          6           0        5.938468   -1.148107    3.968791
     18          6           0        5.716839   -2.518853    3.430249
     19          6           0        5.802072   -2.274934    2.012992
     20          6           0        6.059020   -0.707187    5.395258
     21          6           0        5.478193   -3.840822    4.088717
     22          8           0        5.542073   -4.943122    3.444180
     23          6           0        5.251993   -3.817946    5.545203
     24          7           0        6.021494   -2.074971   -1.038513
     25          6           0        6.140553   -3.205182   -0.333226
     26          6           0        6.272147   -4.398575   -1.232356
     27          6           0        5.973253   -3.873535   -2.710446
     28          6           0        5.791974   -2.368434   -2.394093
     29          6           0        7.633146   -5.107878   -1.208210
     30          6           0        4.857630   -4.600298   -3.502671
     31          6           0        3.514850   -4.333510   -2.860126
     32          7           0        5.320649    0.563579   -2.112609
     33          6           0        5.465049   -0.115526   -3.331067
     34          6           0        5.398906    0.897293   -4.400594
     35          6           0        5.236172    2.105044   -3.724798
     36          6           0        5.229101    1.865072   -2.320997
     37          6           0        5.544874    0.648712   -5.793912
     38          6           0        5.091323    3.545276   -3.861210
     39          8           0        4.936502    4.315207   -4.810277
     40          6           0        5.266992    4.205026   -2.422565
     41          6           0        4.142352    5.185930   -2.231982
     42          8           0        2.961168    4.794474   -2.137478
     43          8           0        4.650500    6.396433   -1.954474
     44          6           0        3.586734    7.410274   -1.724948
     45          1           0        6.857870    1.465178    3.756486
     46          1           0        6.109378   -4.235965    1.333526
     47          1           0        5.653327   -1.791419   -4.433225
     48          1           0        6.284256    5.067977    0.423676
     49          1           0        6.311352    3.873126    2.976919
     50          1           0        8.345856    4.057051    0.787662
     51          1           0        8.496165    2.620573    1.846060
     52          1           0        8.585142    4.197805    2.577499
     53          1           0        4.056851    4.063756    2.207357
     54          1           0        3.612797    4.686258    0.567910
     55          1           0        5.271512    6.611035    1.844976
     56          1           0        4.367594    5.904339    3.130031
     57          1           0        6.378601    0.331641    5.467701
     58          1           0        6.878428   -1.274809    5.835809
     59          1           0        5.143205   -0.885994    5.958857
     60          1           0        6.116665   -3.371507    6.036715
     61          1           0        5.010907   -4.841981    5.828188
     62          1           0        4.405754   -3.165022    5.760886
     63          1           0        5.544710   -5.166384   -0.972106
     64          1           0        6.848953   -3.947590   -3.355691
     65          1           0        7.571086   -6.165774   -0.951871
     66          1           0        8.279106   -4.573990   -0.511798
     67          1           0        8.203791   -5.033568   -2.133553
     68          1           0        5.016159   -5.677910   -3.478868
     69          1           0        4.804024   -4.295974   -4.548024
     70          1           0        3.473741   -5.076616   -2.064554
     71          1           0        2.710969   -4.488039   -3.580617
     72          1           0        3.486965   -3.350504   -2.389587
     73          1           0        4.772953    1.236043   -6.291054
     74          1           0        5.442196   -0.412456   -6.019704
     75          1           0        6.558079    1.014680   -5.959262
     76          1           0        6.241073    4.693155   -2.418387
     77          1           0        3.769858    8.230470   -2.419194
     78          1           0        3.599904    7.637312   -0.658793
     79          1           0        2.574982    7.120599   -2.010930
     80         12           0       -5.079853   -1.157221    0.349198
     81          6           0       -7.329036    1.616227   -0.008913
     82          6           0       -2.772930    1.059008    1.532858
     83          6           0       -2.933835   -3.492363    0.253786
     84          6           0       -7.105476   -2.908862   -1.881118
     85          7           0       -5.159305    1.029165    0.674242
     86          6           0       -6.087238    1.967423    0.560340
     87          6           0       -5.688499    3.342547    1.159988
     88          6           0       -4.092322    3.188810    1.073635
     89          6           0       -3.989904    1.666067    1.132162
     90          6           0       -3.513561    3.655863   -0.251605
     91          6           0       -6.170001    3.509768    2.643968
     92          6           0       -6.088183    4.937108    3.189646
     93          1           0       -7.120594    5.387145    4.119208
     94          7           0       -3.324731   -1.326461    1.259950
     95          6           0       -2.532901   -0.323342    1.693561
     96          6           0       -1.345907   -0.970006    2.274125
     97          6           0       -1.426008   -2.430481    1.999726
     98          6           0       -2.579415   -2.471176    1.123331
     99          6           0       -0.320117   -0.220405    3.073669
    100          6           0       -0.593601   -3.595915    2.441385
    101          8           0       -0.702071   -4.748092    1.890422
    102          6           0        0.417558   -3.325512    3.473827
    103          7           0       -4.905263   -2.864645   -0.824071
    104          6           0       -3.904978   -3.740869   -0.625095
    105          6           0       -4.138819   -5.019445   -1.393837
    106          6           0       -5.630074   -4.912751   -1.961617
    107          6           0       -5.984323   -3.489849   -1.476580
    108          6           0       -3.173140   -5.287888   -2.547875
    109          6           0       -6.600230   -6.074993   -1.614252
    110          6           0       -6.893948   -6.076345   -0.131305
    111          7           0       -6.984098   -0.822073   -0.614958
    112          6           0       -7.637563   -1.674206   -1.531984
    113          6           0       -8.846336   -0.965342   -1.999748
    114          6           0       -8.799682    0.269111   -1.334596
    115          6           0       -7.632875    0.333620   -0.525965
    116          6           0       -9.779917   -1.454840   -2.956266
    117          6           0       -9.466649    1.536523   -1.140832
    118          8           0      -10.541430    2.016272   -1.499183
    119          6           0       -8.478446    2.515166   -0.371358
    120          6           0       -9.244268    3.160358    0.751030
    121          8           0       -9.670661    2.478072    1.699340
    122          8           0       -9.159194    4.497777    0.630799
    123          6           0       -9.894070    5.182315    1.727684
    124          1           0       -1.905148    1.697565    1.700420
    125          1           0       -2.283191   -4.369853    0.266881
    126          1           0       -7.840094   -3.426361   -2.501764
    127          1           0       -6.011169    4.200652    0.582649
    128          1           0       -3.605114    3.637151    1.935596
    129          1           0       -4.286516    3.904915   -0.963391
    130          1           0       -2.913683    2.832674   -0.617057
    131          1           0       -2.819545    4.485357   -0.088436
    132          1           0       -5.454108    3.012330    3.310901
    133          1           0       -7.166874    3.132912    2.765838
    134          1           0       -5.940819    5.675478    2.392120
    135          1           0       -5.188470    5.022787    3.803806
    136          1           0       -0.440153    0.864638    2.965635
    137          1           0        0.654905   -0.432158    2.621614
    138          1           0       -0.297506   -0.525931    4.121910
    139          1           0        1.102803   -2.560476    3.116581
    140          1           0        0.849144   -4.297183    3.721758
    141          1           0       -0.084557   -2.911471    4.355332
    142          1           0       -4.072221   -5.880991   -0.740846
    143          1           0       -5.646334   -4.883131   -3.061021
    144          1           0       -2.643321   -6.254960   -2.457685
    145          1           0       -2.466324   -4.470351   -2.598676
    146          1           0       -3.621692   -5.267450   -3.539634
    147          1           0       -6.134107   -7.037429   -1.839194
    148          1           0       -7.536069   -6.034654   -2.161562
    149          1           0       -6.039469   -6.615094    0.289017
    150          1           0       -7.827789   -6.595880    0.073768
    151          1           0       -6.873933   -5.058332    0.274793
    152          1           0      -10.765958   -1.226750   -2.573894
    153          1           0       -9.654758   -2.522582   -3.123667
    154          1           0       -9.490528   -0.865582   -3.830509
    155          1           0       -8.114991    3.247691   -1.093086
    156          1           0      -10.613257    5.859393    1.256499
    157          1           0       -9.116655    5.639645    2.368184
    158          1           0      -10.546739    4.578200    2.346977
 ---------------------------------------------------------------------

 SCF Done:  E(RCAM-B3LYP) =  -4069.81176457     A.U. after   19 cycles

 Excitation energies and oscillator strengths:

 Excited State   1:      Singlet-A      1.6564 eV  748.52 nm  f=0.2063  <S**2>=0.000
     309 -> 315       -0.11467
     310 -> 316        0.12440
     311 -> 313       -0.46446
     312 -> 314        0.50642
 This state for optimization and/or second-order correction.
 Total Energy, E(TD-HF/TD-DFT) =  -4069.75089334
 Copying the excited state density for this state as the 1-particle RhoCI density.

 Excited State   2:      Singlet-A      1.6924 eV  732.61 nm  f=0.5569  <S**2>=0.000
     309 -> 315        0.13269
     310 -> 316        0.11983
     311 -> 313        0.50461
     312 -> 314        0.46294

 Excited State   3:      Singlet-A      2.1823 eV  568.14 nm  f=0.0186  <S**2>=0.000
     309 -> 313        0.29379
     310 -> 314        0.57355
     311 -> 315       -0.12236
     312 -> 316       -0.24037

 Excited State   4:      Singlet-A      2.1950 eV  564.84 nm  f=0.1613  <S**2>=0.000
     309 -> 313        0.56971
     310 -> 314       -0.29052
     311 -> 315       -0.25009
     312 -> 316        0.12703

 Excited State   5:      Singlet-A      2.4112 eV  514.20 nm  f=0.0000  <S**2>=0.000
     312 -> 313        0.70670

 The electronic state is 1-A.
 Alpha  occ. eigenvalues --  -46.88043 -46.87487 -19.26591 -19.26225 -19.19338
 Alpha  occ. eigenvalues --  -19.19033 -19.18999 -19.18536 -19.18408 -19.17896
 Alpha  occ. eigenvalues --  -14.42701 -14.42312 -14.41660 -14.41192 -14.39656
 Alpha  occ. eigenvalues --  -14.39179 -14.38823 -14.38431 -10.39389 -10.38958
 Alpha  occ. eigenvalues --  -10.35633 -10.35219 -10.34631 -10.34073 -10.31995
 Alpha  occ. eigenvalues --  -10.31653 -10.31652 -10.31178 -10.31115 -10.30842
 Alpha  occ. eigenvalues --  -10.30810 -10.30729 -10.30404 -10.30233 -10.30191
 Alpha  occ. eigenvalues --  -10.30099 -10.29977 -10.29855 -10.29736 -10.29488
 Alpha  occ. eigenvalues --  -10.29265 -10.29243 -10.29057 -10.28931 -10.28615
 Alpha  occ. eigenvalues --  -10.28546 -10.28523 -10.28394 -10.28232 -10.28029
 Alpha  occ. eigenvalues --  -10.27969 -10.27895 -10.27834 -10.27824 -10.27745
 Alpha  occ. eigenvalues --  -10.27648 -10.27595 -10.27531 -10.27469 -10.27418
 Alpha  occ. eigenvalues --  -10.27384 -10.27356 -10.27311 -10.27307 -10.27244
 Alpha  occ. eigenvalues --  -10.27105 -10.26891 -10.26621 -10.26551 -10.26472
 Alpha  occ. eigenvalues --  -10.26244 -10.26222 -10.26195 -10.26028 -10.26024
 Alpha  occ. eigenvalues --  -10.25772 -10.25706 -10.25642 -10.25511 -10.25282
 Alpha  occ. eigenvalues --  -10.25069 -10.24987 -10.24707 -10.24623 -10.24610
 Alpha  occ. eigenvalues --  -10.24524  -3.16787  -3.16237  -1.91669  -1.91255
 Alpha  occ. eigenvalues --   -1.91119  -1.91097  -1.90707  -1.90544  -1.16941
 Alpha  occ. eigenvalues --   -1.16518  -1.08868  -1.08506  -1.07394  -1.06956
 Alpha  occ. eigenvalues --   -1.06817  -1.06785  -1.04834  -1.04311  -1.03982
 Alpha  occ. eigenvalues --   -1.03490  -1.03465  -1.02872  -1.02636  -1.01942
 Alpha  occ. eigenvalues --   -0.92216  -0.91818  -0.89673  -0.89474  -0.89344
 Alpha  occ. eigenvalues --   -0.88937  -0.88421  -0.88091  -0.88077  -0.87917
 Alpha  occ. eigenvalues --   -0.87634  -0.87510  -0.87509  -0.86967  -0.85257
 Alpha  occ. eigenvalues --   -0.84814  -0.84054  -0.83742  -0.83154  -0.82894
 Alpha  occ. eigenvalues --   -0.82778  -0.82471  -0.81843  -0.81449  -0.80839
 Alpha  occ. eigenvalues --   -0.80284  -0.79030  -0.78478  -0.77442  -0.77167
 Alpha  occ. eigenvalues --   -0.76978  -0.76736  -0.76174  -0.75648  -0.75048
 Alpha  occ. eigenvalues --   -0.74658  -0.72990  -0.72532  -0.71887  -0.71400
 Alpha  occ. eigenvalues --   -0.69983  -0.69624  -0.69131  -0.68648  -0.67871
 Alpha  occ. eigenvalues --   -0.67514  -0.67441  -0.67044  -0.65561  -0.65094
 Alpha  occ. eigenvalues --   -0.65086  -0.64848  -0.64606  -0.64489  -0.64417
 Alpha  occ. eigenvalues --   -0.64055  -0.62549  -0.62135  -0.60651  -0.60186
 Alpha  occ. eigenvalues --   -0.60073  -0.59601  -0.59205  -0.58828  -0.58724
 Alpha  occ. eigenvalues --   -0.58266  -0.57843  -0.57497  -0.57403  -0.57086
 Alpha  occ. eigenvalues --   -0.56540  -0.56259  -0.56043  -0.55748  -0.55743
 Alpha  occ. eigenvalues --   -0.55510  -0.55290  -0.55107  -0.54710  -0.54352
 Alpha  occ. eigenvalues --   -0.54185  -0.53711  -0.53514  -0.53480  -0.53159
 Alpha  occ. eigenvalues --   -0.53068  -0.53007  -0.52976  -0.52742  -0.52498
 Alpha  occ. eigenvalues --   -0.52492  -0.52273  -0.52120  -0.51898  -0.51733
 Alpha  occ. eigenvalues --   -0.51486  -0.51409  -0.51043  -0.50801  -0.50330
 Alpha  occ. eigenvalues --   -0.50208  -0.50099  -0.49807  -0.49761  -0.49707
 Alpha  occ. eigenvalues --   -0.49458  -0.49345  -0.49302  -0.49026  -0.48905
 Alpha  occ. eigenvalues --   -0.48840  -0.48664  -0.48614  -0.48383  -0.48236
 Alpha  occ. eigenvalues --   -0.48171  -0.47918  -0.47512  -0.47429  -0.47004
 Alpha  occ. eigenvalues --   -0.46964  -0.46831  -0.46572  -0.46547  -0.46366
 Alpha  occ. eigenvalues --   -0.46359  -0.46117  -0.46060  -0.45939  -0.45668
 Alpha  occ. eigenvalues --   -0.45344  -0.45065  -0.44814  -0.44724  -0.44360
 Alpha  occ. eigenvalues --   -0.44358  -0.44303  -0.44287  -0.44241  -0.43937
 Alpha  occ. eigenvalues --   -0.43929  -0.43771  -0.43737  -0.43611  -0.43410
 Alpha  occ. eigenvalues --   -0.43243  -0.43215  -0.42971  -0.42791  -0.42772
 Alpha  occ. eigenvalues --   -0.42742  -0.42408  -0.42173  -0.41928  -0.41818
 Alpha  occ. eigenvalues --   -0.41783  -0.41503  -0.41364  -0.41292  -0.41110
 Alpha  occ. eigenvalues --   -0.41045  -0.40796  -0.40701  -0.40563  -0.40553
 Alpha  occ. eigenvalues --   -0.40524  -0.40337  -0.40067  -0.39496  -0.39295
 Alpha  occ. eigenvalues --   -0.38627  -0.38202  -0.38061  -0.37545  -0.37500
 Alpha  occ. eigenvalues --   -0.37487  -0.37109  -0.37023  -0.36975  -0.36640
 Alpha  occ. eigenvalues --   -0.36408  -0.36065  -0.34517  -0.34084  -0.34075
 Alpha  occ. eigenvalues --   -0.33725  -0.33419  -0.33004  -0.31525  -0.31260
 Alpha  occ. eigenvalues --   -0.31092  -0.30798  -0.30268  -0.29801  -0.29693
 Alpha  occ. eigenvalues --   -0.29557  -0.29165  -0.29047  -0.24313  -0.23861
 Alpha  occ. eigenvalues --   -0.21357  -0.20946
 Alpha virt. eigenvalues --   -0.09008  -0.08623  -0.01974  -0.01512  -0.00293
 Alpha virt. eigenvalues --    0.00146   0.01973   0.02354   0.02475   0.03377
 Alpha virt. eigenvalues --    0.04452   0.04797   0.04910   0.05301   0.05846

 Mulliken charges:
               1
     1  Mg   0.835436
     2  C   -0.003869
     3  C   -0.095263
     4  C   -0.044012
     5  C   -0.063115
     6  N   -0.256896
     7  C   -0.053116
     8  C   -0.013652
     9  C   -0.086671
    10  C    0.045373
    11  C    0.104690
    12  C    0.053733
    13  C   -0.071485
    14  H    0.034497
    15  N   -0.433489
    16  C    0.166896
    17  C   -0.178909
    18  C   -0.005537
    19  C    0.147491
    20  C    0.110440
    21  C    0.011940
    22  O   -0.247015
    23  C    0.062892
    24  N   -0.341251
    25  C    0.041274
    26  C   -0.028589
    27  C   -0.024216
    28  C    0.075498
    29  C    0.075908
    30  C    0.034719
    31  C   -0.004571
    32  N   -0.310710
    33  C    0.080808
    34  C   -0.169126
    35  C    0.008495
    36  C    0.083036
    37  C    0.127227
    38  C    0.046196
    39  O   -0.187932
    40  C   -0.005347
    41  C    0.213196
    42  O   -0.258639
    43  O   -0.304319
    44  C    0.157692
    45  H   -0.017487
    46  H   -0.015195
    47  H   -0.040554
    48  H    0.001484
    49  H   -0.004568
    50  H    0.025788
    51  H    0.017006
    52  H    0.017002
    53  H    0.008967
    54  H    0.042516
    55  H    0.019277
    56  H    0.017924
    57  H    0.005795
    58  H    0.027784
    59  H    0.037610
    60  H    0.037727
    61  H    0.037306
    62  H    0.028697
    63  H    0.019050
    64  H    0.009581
    65  H    0.024219
    66  H    0.012171
    67  H    0.004892
    68  H    0.007094
    69  H    0.004186
    70  H    0.012744
    71  H    0.018468
    72  H    0.028093
    73  H    0.047876
    74  H    0.009823
    75  H    0.046443
    76  H    0.035624
    77  H    0.043902
    78  H    0.046053
    79  H    0.052776
    80  Mg   0.838177
    81  C   -0.016885
    82  C   -0.087389
    83  C   -0.045507
    84  C   -0.064918
    85  N   -0.254657
    86  C   -0.049382
    87  C   -0.015169
    88  C   -0.090468
    89  C    0.045536
    90  C    0.113981
    91  C    0.062675
    92  C   -0.077348
    93  H    0.033829
    94  N   -0.423654
    95  C    0.163004
    96  C   -0.174907
    97  C   -0.008273
    98  C    0.152391
    99  C    0.099445
   100  C    0.015375
   101  O   -0.252261
   102  C    0.059301
   103  N   -0.349948
   104  C    0.037700
   105  C   -0.019844
   106  C   -0.034781
   107  C    0.088900
   108  C    0.073685
   109  C    0.034843
   110  C   -0.007595
   111  N   -0.324070
   112  C    0.078411
   113  C   -0.163319
   114  C    0.002242
   115  C    0.096138
   116  C    0.131496
   117  C    0.042238
   118  O   -0.188341
   119  C    0.000959
   120  C    0.211160
   121  O   -0.251368
   122  O   -0.305435
   123  C    0.152213
   124  H   -0.017361
   125  H   -0.015692
   126  H   -0.040861
   127  H   -0.000572
   128  H   -0.005369
   129  H    0.022073
   130  H    0.017923
   131  H    0.018330
   132  H    0.013331
   133  H    0.037287
   134  H    0.021026
   135  H    0.018929
   136  H    0.009073
   137  H    0.027356
   138  H    0.037248
   139  H    0.039840
   140  H    0.039487
   141  H    0.031146
   142  H    0.014183
   143  H    0.012277
   144  H    0.024405
   145  H    0.012079
   146  H    0.005374
   147  H    0.005848
   148  H    0.003452
   149  H    0.010821
   150  H    0.017561
   151  H    0.030258
   152  H    0.045605
   153  H    0.008176
   154  H    0.047058
   155  H    0.035486
   156  H    0.043685
   157  H    0.049325
   158  H    0.053254
 Sum of Mulliken charges =  -0.00000

 Dipole moment (field-independent basis, Debye):
    X=              6.5124    Y=              1.7604    Z=              4.3608  Tot=              8.0329
 Quadrupole moment (field-independent basis, Debye-Ang):
   XX=           -552.6483   YY=           -494.1271   ZZ=           -494.0077
   XY=             18.0648   XZ=             20.2822   YZ=             56.3893

 Normal termination of Gaussian 16 at Sat Sep 11 00:43:42 2021.
