 Gaussian 16, Revision A.03,
 Gaussian 16:  ES64L-G16RevA.03 25-Dec-2016

 -----------------------------------
 #p cam-b3lyp/Def2SVP td=(nstates=5)
 -----------------------------------

 --------------------------------
 TDDFT excited states in gaussian
 --------------------------------
 Symbolic Z-matrix:
 Charge =  0 Multiplicity = 1

                         Standard orientation:
 ---------------------------------------------------------------------
 Center     Atomic      Atomic             Coordinates (Angstroms)
 Number     Number       Type             X           Y           Z
 ---------------------------------------------------------------------
      1         12           0       -7.900895   -0.661201   -0.394303
      2          6           0       -8.231175    1.921194    2.062191
      3          6           0       -8.664384    1.686948   -2.749371
      4          6           0       -8.061852   -3.006076   -2.523217
      5          6           0       -8.286757   -2.966089    2.191092
      6          7           0       -8.366590    1.497452   -0.239420
      7          6           0       -8.401506    2.380000    0.754090
      8          6           0       -8.561082    3.851580    0.267918
      9          6           0       -9.243867    3.576796   -1.146400
     10          6           0       -8.698704    2.184795   -1.412957
     11          6           0      -10.766174    3.504526   -1.084268
     12          6           0       -7.183007    4.577446    0.107427
     13          6           0       -7.260022    6.099280   -0.045692
     14          1           0       -6.214352    6.916895    0.550486
     15          7           0       -7.822520   -0.607709   -2.367586
     16          6           0       -8.154707    0.437222   -3.163235
     17          6           0       -7.924813   -0.018138   -4.551211
     18          6           0       -7.613343   -1.473855   -4.506811
     19          6           0       -7.848888   -1.763471   -3.115402
     20          6           0       -7.962203    0.899016   -5.734925
     21          6           0       -7.183391   -2.451355   -5.554554
     22          8           0       -7.191626   -3.713605   -5.351494
     23          6           0       -6.831902   -1.890393   -6.871679
     24          7           0       -8.358437   -2.691948   -0.238232
     25          6           0       -8.298288   -3.496803   -1.304804
     26          6           0       -8.386993   -4.939938   -0.905514
     27          6           0       -8.276046   -4.965553    0.687215
     28          6           0       -8.221813   -3.439416    0.944571
     29          6           0       -9.660942   -5.677536   -1.340271
     30          6           0       -7.167107   -5.856848    1.300621
     31          6           0       -5.806692   -5.291712    0.958583
     32          7           0       -8.028881   -0.579682    1.770881
     33          6           0       -8.211178   -1.660247    2.645994
     34          6           0       -8.344216   -1.099360    4.003114
     35          6           0       -8.246012    0.278556    3.819950
     36          6           0       -8.089511    0.562036    2.433069
     37          6           0       -8.587561   -1.842478    5.191808
     38          6           0       -8.261576    1.578715    4.470489
     39          8           0       -8.271247    1.962658    5.640953
     40          6           0       -8.374817    2.700396    3.345840
     41          6           0       -7.343635    3.753194    3.648480
     42          8           0       -6.124979    3.497900    3.564402
     43          8           0       -7.945882    4.947483    3.755785
     44          6           0       -6.974906    6.041117    4.026569
     45          1           0       -9.121256    2.278740   -3.544978
     46          1           0       -8.013810   -3.852824   -3.211074
     47          1           0       -8.324902   -3.629185    3.057291
     48          1           0       -9.217278    4.465513    0.885103
     49          1           0       -8.894851    4.272874   -1.908887
     50          1           0      -11.124340    3.525407   -0.055093
     51          1           0      -11.032462    2.560943   -1.560960
     52          1           0      -11.216389    4.286785   -1.695951
     53          1           0       -6.749098    4.315612   -0.857574
     54          1           0       -6.518641    4.331691    0.936613
     55          1           0       -8.244711    6.478222    0.229445
     56          1           0       -7.162585    6.341427   -1.104025
     57          1           0       -8.378369    1.871547   -5.475049
     58          1           0       -8.676922    0.477782   -6.441640
     59          1           0       -6.986392    0.993972   -6.211483
     60          1           0       -7.690383   -1.352501   -7.274461
     61          1           0       -6.463366   -2.725935   -7.465733
     62          1           0       -6.040861   -1.151387   -6.741014
     63          1           0       -7.564750   -5.514423   -1.330142
     64          1           0       -9.193585   -5.322709    1.155441
     65          1           0       -9.468701   -6.565548   -1.942918
     66          1           0      -10.293401   -4.970501   -1.876357
     67          1           0      -10.316317   -5.978324   -0.523308
     68          1           0       -7.212120   -6.861063    0.880534
     69          1           0       -7.238135   -5.947313    2.384605
     70          1           0       -5.619302   -5.693635   -0.036492
     71          1           0       -5.058614   -5.644416    1.669350
     72          1           0       -5.837446   -4.205510    0.870802
     73          1           0       -7.926942   -1.426326    5.952314
     74          1           0       -8.397678   -2.904857    5.040492
     75          1           0       -9.643493   -1.625805    5.352796
     76          1           0       -9.389351    3.094371    3.397083
     77          1           0       -7.301843    6.542319    4.937690
     78          1           0       -6.916171    6.636096    3.115002
     79          1           0       -5.968390    5.732555    4.311268
     80         12           0        7.947576   -0.623309    0.400074
     81          6           0        8.036150    1.966178   -2.083016
     82          6           0        8.924203    1.727036    2.670904
     83          6           0        8.315483   -2.961412    2.513216
     84          6           0        8.101296   -2.934094   -2.204227
     85          7           0        8.390552    1.534358    0.198857
     86          6           0        8.330421    2.423045   -0.781434
     87          6           0        8.521915    3.895117   -0.327710
     88          6           0        9.344394    3.624815    1.024817
     89          6           0        8.833493    2.221632    1.345288
     90          6           0       10.846922    3.548664    0.810452
     91          6           0        7.157487    4.613141   -0.036499
     92          6           0        7.249482    6.133521    0.110884
     93          1           0        6.142817    6.948829   -0.382107
     94          7           0        8.053574   -0.559286    2.380784
     95          6           0        8.449278    0.483029    3.141234
     96          6           0        8.368653    0.017997    4.534578
     97          6           0        8.050959   -1.435872    4.526220
     98          6           0        8.150379   -1.719269    3.108513
     99          6           0        8.506086    0.941630    5.709921
    100          6           0        7.725679   -2.412580    5.615459
    101          8           0        7.717695   -3.677011    5.405755
    102          6           0        7.508429   -1.850614    6.956532
    103          7           0        8.388301   -2.645497    0.202966
    104          6           0        8.438463   -3.450208    1.279007
    105          6           0        8.497198   -4.903056    0.871386
    106          6           0        8.231001   -4.917959   -0.705480
    107          6           0        8.149414   -3.397249   -0.962723
    108          6           0        9.809902   -5.625917    1.172490
    109          6           0        7.071383   -5.817062   -1.214980
    110          6           0        5.745463   -5.267703   -0.740067
    111          7           0        7.864896   -0.543053   -1.757421
    112          6           0        7.973981   -1.626815   -2.656113
    113          6           0        7.975153   -1.062011   -4.021182
    114          6           0        7.889165    0.323808   -3.819684
    115          6           0        7.858381    0.604230   -2.426876
    116          6           0        8.097049   -1.805383   -5.228929
    117          6           0        7.828171    1.613869   -4.468317
    118          8           0        7.732486    1.996568   -5.633704
    119          6           0        8.048133    2.742265   -3.370717
    120          6           0        6.989175    3.792573   -3.565628
    121          8           0        5.789832    3.523650   -3.376244
    122          8           0        7.580915    4.989701   -3.730169
    123          6           0        6.571161    6.065621   -3.916220
    124          1           0        9.445862    2.329662    3.414943
    125          1           0        8.336207   -3.813030    3.197156
    126          1           0        8.047565   -3.594820   -3.072111
    127          1           0        9.108125    4.506175   -1.003538
    128          1           0        9.058189    4.322764    1.807325
    129          1           0       11.106017    3.571325   -0.237644
    130          1           0       11.160912    2.614619    1.257688
    131          1           0       11.349043    4.337982    1.377185
    132          1           0        6.820982    4.346467    0.973646
    133          1           0        6.429605    4.365995   -0.784655
    134          1           0        8.207242    6.525648   -0.252264
    135          1           0        7.245362    6.379848    1.175459
    136          1           0        8.899021    1.920481    5.408492
    137          1           0        9.285512    0.523282    6.355930
    138          1           0        7.581870    1.032456    6.284584
    139          1           0        8.397359   -1.307816    7.268990
    140          1           0        7.200207   -2.692363    7.579694
    141          1           0        6.695492   -1.118014    6.901386
    142          1           0        7.720454   -5.474716    1.364318
    143          1           0        9.105518   -5.284501   -1.262883
    144          1           0        9.678061   -6.525987    1.802215
    145          1           0       10.484291   -4.925396    1.646859
    146          1           0       10.377567   -5.936290    0.296921
    147          1           0        7.159085   -6.822234   -0.795362
    148          1           0        7.046923   -5.919836   -2.294718
    149          1           0        5.660697   -5.669817    0.273942
    150          1           0        4.934999   -5.621605   -1.374044
    151          1           0        5.778295   -4.174954   -0.659660
    152          1           0        7.372912   -1.396204   -5.920805
    153          1           0        7.931200   -2.867421   -5.060556
    154          1           0        9.136880   -1.588238   -5.487506
    155          1           0        9.052870    3.143176   -3.509830
    156          1           0        6.811521    6.570115   -4.857175
    157          1           0        6.610351    6.674871   -2.993711
    158          1           0        5.545210    5.764886   -4.093542
 ---------------------------------------------------------------------

 SCF Done:  E(RCAM-B3LYP) =  -4069.81183783     A.U. after   19 cycles

 Excitation energies and oscillator strengths:

 Excited State   1:      Singlet-A      1.6703 eV  742.30 nm  f=0.0220  <S**2>=0.000
     309 -> 316        0.13884
     310 -> 315        0.10259
     311 -> 313        0.55287
     312 -> 314        0.40671
 This state for optimization and/or second-order correction.
 Total Energy, E(TD-HF/TD-DFT) =  -4069.75045624
 Copying the excited state density for this state as the 1-particle RhoCI density.

 Excited State   2:      Singlet-A      1.6853 eV  735.70 nm  f=0.7359  <S**2>=0.000
     309 -> 316       -0.10439
     310 -> 315        0.14255
     311 -> 313       -0.40620
     312 -> 314        0.55207

 Excited State   3:      Singlet-A      2.1860 eV  567.17 nm  f=0.0602  <S**2>=0.000
     309 -> 313        0.62873
     310 -> 314       -0.13317
     311 -> 316       -0.26704

 Excited State   4:      Singlet-A      2.1931 eV  565.33 nm  f=0.1333  <S**2>=0.000
     309 -> 313        0.13224
     310 -> 314        0.62682
     312 -> 315       -0.27254

 Excited State   5:      Singlet-A      2.7967 eV  443.32 nm  f=0.0000  <S**2>=0.000
     312 -> 313        0.70710

 The electronic state is 1-A.
 Alpha  occ. eigenvalues --  -46.87678 -46.87599 -19.26328 -19.26205 -19.19132
 Alpha  occ. eigenvalues --  -19.18932 -19.18682 -19.18639 -19.18070 -19.18010
 Alpha  occ. eigenvalues --  -14.42438 -14.42334 -14.41334 -14.41301 -14.39289
 Alpha  occ. eigenvalues --  -14.39282 -14.38542 -14.38471 -10.39061 -10.38991
 Alpha  occ. eigenvalues --  -10.35315 -10.35314 -10.34291 -10.34188 -10.31748
 Alpha  occ. eigenvalues --  -10.31613 -10.31294 -10.31255 -10.30963 -10.30791
 Alpha  occ. eigenvalues --  -10.30456 -10.30392 -10.30339 -10.30305 -10.30088
 Alpha  occ. eigenvalues --  -10.30078 -10.29840 -10.29810 -10.29513 -10.29374
 Alpha  occ. eigenvalues --  -10.29341 -10.29134 -10.28666 -10.28639 -10.28605
 Alpha  occ. eigenvalues --  -10.28433 -10.28346 -10.28248 -10.28088 -10.28008
 Alpha  occ. eigenvalues --  -10.27944 -10.27678 -10.27611 -10.27610 -10.27463
 Alpha  occ. eigenvalues --  -10.27462 -10.27427 -10.27403 -10.27391 -10.27387
 Alpha  occ. eigenvalues --  -10.27343 -10.27341 -10.27321 -10.27290 -10.27060
 Alpha  occ. eigenvalues --  -10.27010 -10.26634 -10.26589 -10.26321 -10.26256
 Alpha  occ. eigenvalues --  -10.26135 -10.26078 -10.26073 -10.25981 -10.25904
 Alpha  occ. eigenvalues --  -10.25876 -10.25811 -10.25748 -10.25350 -10.25336
 Alpha  occ. eigenvalues --  -10.24818 -10.24721 -10.24672 -10.24661 -10.24632
 Alpha  occ. eigenvalues --  -10.24567  -3.16420  -3.16349  -1.91302  -1.91231
 Alpha  occ. eigenvalues --   -1.90889  -1.90820  -1.90731  -1.90657  -1.16621
 Alpha  occ. eigenvalues --   -1.16551  -1.08620  -1.08530  -1.07082  -1.06917
 Alpha  occ. eigenvalues --   -1.06891  -1.06555  -1.04465  -1.04437  -1.03645
 Alpha  occ. eigenvalues --   -1.03604  -1.03117  -1.02980  -1.02295  -1.02053
 Alpha  occ. eigenvalues --   -0.91935  -0.91863  -0.89437  -0.89407  -0.89098
 Alpha  occ. eigenvalues --   -0.89078  -0.88175  -0.88163  -0.87762  -0.87743
 Alpha  occ. eigenvalues --   -0.87627  -0.87558  -0.87145  -0.87049  -0.84945
 Alpha  occ. eigenvalues --   -0.84870  -0.83827  -0.83821  -0.82859  -0.82836
 Alpha  occ. eigenvalues --   -0.82595  -0.82535  -0.81556  -0.81488  -0.80486
 Alpha  occ. eigenvalues --   -0.80392  -0.78675  -0.78573  -0.77106  -0.77088
 Alpha  occ. eigenvalues --   -0.76851  -0.76830  -0.75819  -0.75791  -0.74791
 Alpha  occ. eigenvalues --   -0.74751  -0.72662  -0.72643  -0.71563  -0.71529
 Alpha  occ. eigenvalues --   -0.69795  -0.69699  -0.68772  -0.68760  -0.67546
 Alpha  occ. eigenvalues --   -0.67527  -0.67138  -0.67101  -0.65219  -0.65177
 Alpha  occ. eigenvalues --   -0.64746  -0.64718  -0.64604  -0.64513  -0.64157
 Alpha  occ. eigenvalues --   -0.64148  -0.62240  -0.62203  -0.60319  -0.60274
 Alpha  occ. eigenvalues --   -0.59742  -0.59692  -0.58939  -0.58876  -0.58393
 Alpha  occ. eigenvalues --   -0.58373  -0.57514  -0.57485  -0.57197  -0.57180
 Alpha  occ. eigenvalues --   -0.56197  -0.56150  -0.55885  -0.55846  -0.55402
 Alpha  occ. eigenvalues --   -0.55396  -0.55236  -0.55199  -0.54443  -0.54424
 Alpha  occ. eigenvalues --   -0.53859  -0.53784  -0.53183  -0.53170  -0.53105
 Alpha  occ. eigenvalues --   -0.53087  -0.52852  -0.52808  -0.52629  -0.52597
 Alpha  occ. eigenvalues --   -0.52342  -0.52326  -0.51841  -0.51812  -0.51600
 Alpha  occ. eigenvalues --   -0.51501  -0.51152  -0.51090  -0.50434  -0.50398
 Alpha  occ. eigenvalues --   -0.49919  -0.49917  -0.49808  -0.49795  -0.49425
 Alpha  occ. eigenvalues --   -0.49398  -0.49149  -0.49103  -0.49056  -0.48990
 Alpha  occ. eigenvalues --   -0.48512  -0.48491  -0.48353  -0.48326  -0.48324
 Alpha  occ. eigenvalues --   -0.48272  -0.47581  -0.47538  -0.47182  -0.47060
 Alpha  occ. eigenvalues --   -0.46686  -0.46655  -0.46499  -0.46444  -0.46246
 Alpha  occ. eigenvalues --   -0.46215  -0.46057  -0.46037  -0.45781  -0.45724
 Alpha  occ. eigenvalues --   -0.45155  -0.45092  -0.44475  -0.44467  -0.44420
 Alpha  occ. eigenvalues --   -0.44386  -0.44076  -0.44030  -0.44020  -0.43979
 Alpha  occ. eigenvalues --   -0.43906  -0.43878  -0.43514  -0.43396  -0.43334
 Alpha  occ. eigenvalues --   -0.43274  -0.42918  -0.42893  -0.42854  -0.42606
 Alpha  occ. eigenvalues --   -0.42548  -0.42493  -0.41908  -0.41899  -0.41619
 Alpha  occ. eigenvalues --   -0.41595  -0.41422  -0.41403  -0.41031  -0.40937
 Alpha  occ. eigenvalues --   -0.40757  -0.40693  -0.40660  -0.40634  -0.40462
 Alpha  occ. eigenvalues --   -0.40438  -0.40166  -0.40118  -0.39364  -0.39327
 Alpha  occ. eigenvalues --   -0.38358  -0.38295  -0.37637  -0.37600  -0.37210
 Alpha  occ. eigenvalues --   -0.37208  -0.37150  -0.37143  -0.36738  -0.36620
 Alpha  occ. eigenvalues --   -0.36168  -0.36089  -0.34197  -0.34172  -0.33827
 Alpha  occ. eigenvalues --   -0.33677  -0.33119  -0.33073  -0.31213  -0.31200
 Alpha  occ. eigenvalues --   -0.30921  -0.30915  -0.29931  -0.29916  -0.29328
 Alpha  occ. eigenvalues --   -0.29264  -0.29208  -0.29156  -0.23979  -0.23965
 Alpha  occ. eigenvalues --   -0.21058  -0.21012
 Alpha virt. eigenvalues --   -0.08733  -0.08657  -0.01632  -0.01623   0.00036
 Alpha virt. eigenvalues --    0.00065   0.02258   0.02309   0.03265   0.03310
 Alpha virt. eigenvalues --    0.04784   0.04830   0.05189   0.05197   0.06231

 Mulliken charges:
               1
     1  Mg   0.839269
     2  C   -0.002916
     3  C   -0.093914
     4  C   -0.045831
     5  C   -0.064005
     6  N   -0.256799
     7  C   -0.052476
     8  C   -0.014061
     9  C   -0.087067
    10  C    0.046465
    11  C    0.104842
    12  C    0.053404
    13  C   -0.071717
    14  H    0.035883
    15  N   -0.433174
    16  C    0.168646
    17  C   -0.176904
    18  C   -0.003806
    19  C    0.148870
    20  C    0.110141
    21  C    0.012558
    22  O   -0.249696
    23  C    0.062299
    24  N   -0.341177
    25  C    0.041287
    26  C   -0.028150
    27  C   -0.023920
    28  C    0.074826
    29  C    0.076225
    30  C    0.035151
    31  C   -0.004501
    32  N   -0.310416
    33  C    0.080367
    34  C   -0.169851
    35  C    0.008177
    36  C    0.082984
    37  C    0.127348
    38  C    0.045981
    39  O   -0.188958
    40  C   -0.005331
    41  C    0.212753
    42  O   -0.256995
    43  O   -0.304816
    44  C    0.157842
    45  H   -0.017630
    46  H   -0.016857
    47  H   -0.041689
    48  H    0.000674
    49  H   -0.003911
    50  H    0.025316
    51  H    0.016415
    52  H    0.016543
    53  H    0.011730
    54  H    0.044166
    55  H    0.017580
    56  H    0.018145
    57  H    0.005842
    58  H    0.026700
    59  H    0.040326
    60  H    0.037151
    61  H    0.035765
    62  H    0.032300
    63  H    0.016625
    64  H    0.009240
    65  H    0.023126
    66  H    0.012487
    67  H    0.004580
    68  H    0.006177
    69  H    0.004572
    70  H    0.008832
    71  H    0.018173
    72  H    0.029222
    73  H    0.047314
    74  H    0.009040
    75  H    0.045762
    76  H    0.034939
    77  H    0.042573
    78  H    0.046450
    79  H    0.053486
    80  Mg   0.838279
    81  C   -0.016800
    82  C   -0.087667
    83  C   -0.045427
    84  C   -0.064889
    85  N   -0.254576
    86  C   -0.049873
    87  C   -0.015139
    88  C   -0.090536
    89  C    0.045890
    90  C    0.114390
    91  C    0.062451
    92  C   -0.077823
    93  H    0.034680
    94  N   -0.423535
    95  C    0.163184
    96  C   -0.174449
    97  C   -0.007594
    98  C    0.152251
    99  C    0.099355
   100  C    0.015833
   101  O   -0.253173
   102  C    0.061024
   103  N   -0.350077
   104  C    0.037568
   105  C   -0.019840
   106  C   -0.034779
   107  C    0.088916
   108  C    0.073701
   109  C    0.034742
   110  C   -0.007698
   111  N   -0.324041
   112  C    0.078396
   113  C   -0.163255
   114  C    0.002059
   115  C    0.096224
   116  C    0.131522
   117  C    0.042249
   118  O   -0.188406
   119  C    0.000942
   120  C    0.211112
   121  O   -0.250941
   122  O   -0.305627
   123  C    0.152190
   124  H   -0.019663
   125  H   -0.015544
   126  H   -0.040597
   127  H   -0.000884
   128  H   -0.004203
   129  H    0.022317
   130  H    0.014406
   131  H    0.016210
   132  H    0.014396
   133  H    0.037708
   134  H    0.020532
   135  H    0.019794
   136  H    0.008744
   137  H    0.026073
   138  H    0.040444
   139  H    0.038103
   140  H    0.036553
   141  H    0.034550
   142  H    0.014520
   143  H    0.012232
   144  H    0.025113
   145  H    0.011575
   146  H    0.005536
   147  H    0.006143
   148  H    0.003530
   149  H    0.011011
   150  H    0.018044
   151  H    0.030287
   152  H    0.045745
   153  H    0.008498
   154  H    0.046721
   155  H    0.034840
   156  H    0.043545
   157  H    0.049574
   158  H    0.053337
 Sum of Mulliken charges =  -0.00000

 Dipole moment (field-independent basis, Debye):
    X=              0.3040    Y=              3.1261    Z=             -0.3678  Tot=              3.1623
 Quadrupole moment (field-independent basis, Debye-Ang):
   XX=           -455.6209   YY=           -460.4248   ZZ=           -539.5065
   XY=              3.0332   XZ=             57.6258   YZ=              0.1035

 Normal termination of Gaussian 16 at Sat Sep 11 22:25:29 2021.
