 Gaussian 16, Revision A.03,
 Gaussian 16:  ES64L-G16RevA.03 25-Dec-2016

 -----------------------------------
 #p cam-b3lyp/Def2SVP td=(nstates=5)
 -----------------------------------

 --------------------------------
 TDDFT excited states in gaussian
 --------------------------------
 Symbolic Z-matrix:
 Charge =  0 Multiplicity = 1

                         Standard orientation:
 ---------------------------------------------------------------------
 Center     Atomic      Atomic             Coordinates (Angstroms)
 Number     Number       Type             X           Y           Z
 ---------------------------------------------------------------------
      1         12           0        4.028300   -0.453736    1.006176
      2          6           0        4.551044    2.560897   -0.851494
      3          6           0        4.124708    1.449710    3.836488
      4          6           0        4.023151   -3.144053    2.685101
      5          6           0        5.094513   -2.201834   -1.813931
      6          7           0        4.306519    1.719507    1.322805
      7          6           0        4.436794    2.774114    0.524054
      8          6           0        4.364588    4.134449    1.280128
      9          6           0        4.802557    3.639560    2.731082
     10          6           0        4.353249    2.191899    2.639844
     11          6           0        6.310727    3.672485    2.956558
     12          6           0        2.917472    4.732328    1.291345
     13          6           0        2.820074    6.199765    1.718542
     14          1           0        1.826808    7.050430    1.080468
     15          7           0        3.588594   -0.778333    2.904635
     16          6           0        3.669860    0.115858    3.919082
     17          6           0        3.236494   -0.606239    5.134587
     18          6           0        3.078392   -2.043555    4.777909
     19          6           0        3.588898   -2.050679    3.430797
     20          6           0        2.971009    0.071671    6.443672
     21          6           0        2.560672   -3.225349    5.535182
     22          8           0        2.725835   -4.423770    5.121561
     23          6           0        1.924300   -2.945253    6.835035
     24          7           0        4.697943   -2.387122    0.592374
     25          6           0        4.522316   -3.380886    1.470198
     26          6           0        4.819068   -4.714720    0.851519
     27          6           0        5.001790   -4.446042   -0.711867
     28          6           0        4.849965   -2.904880   -0.705784
     29          6           0        6.057424   -5.442697    1.392384
     30          6           0        4.112555   -5.270989   -1.675788
     31          6           0        2.665113   -4.863837   -1.513813
     32          7           0        4.538504    0.042401   -1.044332
     33          6           0        4.978616   -0.840620   -2.040952
     34          6           0        5.301530   -0.026765   -3.227306
     35          6           0        5.040893    1.283344   -2.830408
     36          6           0        4.609160    1.290087   -1.473259
     37          6           0        5.826115   -0.516175   -4.456014
     38          6           0        5.050229    2.681407   -3.229393
     39          8           0        5.235399    3.279150   -4.290481
     40          6           0        4.850210    3.575519   -1.926941
     41          6           0        3.795476    4.602200   -2.238021
     42          8           0        2.611747    4.262423   -2.439773
     43          8           0        4.290612    5.829474   -2.016249
     44          6           0        3.285137    6.893812   -2.277705
     45          1           0        4.371200    1.907292    4.796593
     46          1           0        3.932055   -4.106697    3.192503
     47          1           0        5.352135   -2.686058   -2.757653
     48          1           0        5.060305    4.892328    0.919544
     49          1           0        4.256325    4.156884    3.519581
     50          1           0        6.845968    3.908776    2.036991
     51          1           0        6.574818    2.673769    3.304864
     52          1           0        6.565913    4.351055    3.770929
     53          1           0        2.342693    4.267388    2.092295
     54          1           0        2.441006    4.607716    0.318320
     55          1           0        3.797669    6.682640    1.711572
     56          1           0        2.509680    6.231550    2.762977
     57          1           0        3.332813    1.099116    6.443246
     58          1           0        3.582527   -0.431334    7.192498
     59          1           0        1.920415    0.015836    6.729098
     60          1           0        2.640264   -2.442110    7.485259
     61          1           0        1.535452   -3.898593    7.191111
     62          1           0        1.103321   -2.244070    6.682439
     63          1           0        3.991991   -5.407643    1.000605
     64          1           0        6.018820   -4.652306   -1.046201
     65          1           0        5.844573   -6.438429    1.782150
     66          1           0        6.511866   -4.812579    2.156402
     67          1           0        6.875731   -5.543766    0.679940
     68          1           0        4.176108   -6.331833   -1.435961
     69          1           0        4.387299   -5.150856   -2.723802
     70          1           0        2.339518   -5.456860   -0.659914
     71          1           0        2.095423   -5.120682   -2.407510
     72          1           0        2.575794   -3.813867   -1.234400
     73          1           0        5.277789   -0.004732   -5.247047
     74          1           0        5.714044   -1.597525   -4.531675
     75          1           0        6.868201   -0.209582   -4.367054
     76          1           0        5.814977    4.032692   -1.709367
     77          1           0        3.722633    7.576743   -3.006015
     78          1           0        3.005623    7.301465   -1.306059
     79          1           0        2.381009    6.584224   -2.803107
     80         12           0       -3.655516   -0.836900   -0.918080
     81          6           0       -6.233697    1.343291    0.297979
     82          6           0       -2.123375    1.931041   -2.193081
     83          6           0       -1.609238   -2.767420   -2.385472
     84          6           0       -5.909693   -3.471334   -0.565722
     85          7           0       -4.204984    1.305366   -0.886045
     86          6           0       -5.175870    2.022911   -0.341188
     87          6           0       -4.962523    3.558454   -0.419701
     88          6           0       -3.980311    3.600157   -1.689503
     89          6           0       -3.366485    2.206774   -1.569573
     90          6           0       -4.715700    3.685503   -3.016628
     91          6           0       -4.266097    4.131571    0.864257
     92          6           0       -4.305411    5.656087    0.990979
     93          1           0       -4.438728    6.240623    2.322525
     94          7           0       -1.862790   -0.465272   -1.683961
     95          6           0       -1.398516    0.720683   -2.130308
     96          6           0       -0.033363    0.462144   -2.613729
     97          6           0        0.210321   -1.005260   -2.568219
     98          6           0       -1.113964   -1.481808   -2.222877
     99          6           0        0.920311    1.560595   -2.984280
    100          6           0        1.429972   -1.842112   -2.809709
    101          8           0        1.357060   -3.114220   -2.948513
    102          6           0        2.699679   -1.118901   -2.971932
    103          7           0       -3.807982   -2.792796   -1.606221
    104          6           0       -2.752576   -3.415000   -2.160220
    105          6           0       -3.015516   -4.892844   -2.325271
    106          6           0       -4.380316   -5.176560   -1.541435
    107          6           0       -4.732139   -3.734228   -1.115651
    108          6           0       -3.143400   -5.389006   -3.765361
    109          6           0       -4.348854   -6.282289   -0.450993
    110          6           0       -3.480136   -5.842235    0.705332
    111          7           0       -5.634189   -1.090434   -0.088235
    112          6           0       -6.405460   -2.273147   -0.067783
    113          6           0       -7.725001   -1.922705    0.496523
    114          6           0       -7.637077   -0.544806    0.745838
    115          6           0       -6.360443   -0.066119    0.345147
    116          6           0       -8.819498   -2.816100    0.669809
    117          6           0       -8.337717    0.615633    1.247017
    118          8           0       -9.419906    0.804916    1.800890
    119          6           0       -7.505227    1.913815    0.862210
    120          6           0       -7.401398    2.779312    2.088043
    121          8           0       -6.766499    2.390619    3.084251
    122          8           0       -7.880521    4.004216    1.804467
    123          6           0       -7.788685    4.902432    2.986246
    124          1           0       -1.678628    2.699528   -2.825950
    125          1           0       -0.902439   -3.497846   -2.785949
    126          1           0       -6.633178   -4.255468   -0.332524
    127          1           0       -5.858843    4.131753   -0.623955
    128          1           0       -3.216496    4.364613   -1.573097
    129          1           0       -5.783688    3.584565   -2.892665
    130          1           0       -4.326831    2.876438   -3.620979
    131          1           0       -4.445861    4.608099   -3.538468
    132          1           0       -3.182384    3.977710    0.782702
    133          1           0       -4.673403    3.684699    1.750269
    134          1           0       -5.025621    6.108812    0.298671
    135          1           0       -3.339657    6.055818    0.672303
    136          1           0        0.406671    2.525657   -3.074991
    137          1           0        1.276713    1.346294   -3.997657
    138          1           0        1.779230    1.617239   -2.312180
    139          1           0        2.616843   -0.426507   -3.806312
    140          1           0        3.468210   -1.890746   -3.046106
    141          1           0        2.873923   -0.512653   -2.075987
    142          1           0       -2.223583   -5.479128   -1.875579
    143          1           0       -5.179352   -5.507329   -2.221115
    144          1           0       -2.427134   -6.194514   -4.014716
    145          1           0       -3.013220   -4.545241   -4.429926
    146          1           0       -4.131767   -5.751349   -4.042914
    147          1           0       -3.897027   -7.194127   -0.849183
    148          1           0       -5.331796   -6.547166   -0.075969
    149          1           0       -2.471236   -6.096167    0.366632
    150          1           0       -3.741645   -6.387323    1.610058
    151          1           0       -3.520018   -4.754575    0.835910
    152          1           0       -9.237585   -2.610572    1.646256
    153          1           0       -8.503622   -3.853548    0.582073
    154          1           0       -9.455983   -2.508875   -0.164323
    155          1           0       -8.035462    2.414558    0.051232
    156          1           0       -8.795750    5.287525    3.173882
    157          1           0       -7.004433    5.642372    2.738866
    158          1           0       -7.553669    4.450030    3.942572
 ---------------------------------------------------------------------

 SCF Done:  E(RCAM-B3LYP) =  -4069.77323080     A.U. after   18 cycles

 Excitation energies and oscillator strengths:

 Excited State   1:      Singlet-A      1.5906 eV  779.48 nm  f=0.2193  <S**2>=0.000
     309 -> 315        0.13585
     311 -> 313        0.57262
     312 -> 314        0.37368
 This state for optimization and/or second-order correction.
 Total Energy, E(TD-HF/TD-DFT) =  -4069.71477755
 Copying the excited state density for this state as the 1-particle RhoCI density.

 Excited State   2:      Singlet-A      1.6974 eV  730.45 nm  f=0.5373  <S**2>=0.000
     309 -> 315       -0.10430
     310 -> 316        0.14680
     311 -> 313       -0.37115
     312 -> 314        0.57409

 Excited State   3:      Singlet-A      2.0332 eV  609.81 nm  f=0.0006  <S**2>=0.000
     312 -> 313        0.69982

 Excited State   4:      Singlet-A      2.1553 eV  575.25 nm  f=0.0461  <S**2>=0.000
     309 -> 313        0.63060
     310 -> 314       -0.13774
     311 -> 315       -0.26186

 Excited State   5:      Singlet-A      2.1993 eV  563.74 nm  f=0.1151  <S**2>=0.000
     309 -> 313        0.13061
     310 -> 314        0.62410
     312 -> 316       -0.27025

 The electronic state is 1-A.
 Alpha  occ. eigenvalues --  -46.88272 -46.87131 -19.27235 -19.26093 -19.20238
 Alpha  occ. eigenvalues --  -19.19107 -19.18873 -19.18821 -19.17937 -19.17553
 Alpha  occ. eigenvalues --  -14.42980 -14.41978 -14.41642 -14.40829 -14.39824
 Alpha  occ. eigenvalues --  -14.39168 -14.38793 -14.38064 -10.40148 -10.38789
 Alpha  occ. eigenvalues --  -10.35728 -10.35063 -10.34296 -10.33749 -10.32497
 Alpha  occ. eigenvalues --  -10.31972 -10.31578 -10.31368 -10.31146 -10.31044
 Alpha  occ. eigenvalues --  -10.30804 -10.30429 -10.30406 -10.30304 -10.30201
 Alpha  occ. eigenvalues --  -10.29894 -10.29769 -10.29578 -10.29549 -10.29480
 Alpha  occ. eigenvalues --  -10.29257 -10.29057 -10.28976 -10.28781 -10.28658
 Alpha  occ. eigenvalues --  -10.28599 -10.28463 -10.28296 -10.28234 -10.28093
 Alpha  occ. eigenvalues --  -10.28057 -10.28024 -10.27893 -10.27819 -10.27801
 Alpha  occ. eigenvalues --  -10.27676 -10.27374 -10.27277 -10.27253 -10.27111
 Alpha  occ. eigenvalues --  -10.27105 -10.27051 -10.27020 -10.26964 -10.26683
 Alpha  occ. eigenvalues --  -10.26656 -10.26623 -10.26576 -10.26385 -10.26273
 Alpha  occ. eigenvalues --  -10.26006 -10.25776 -10.25583 -10.25484 -10.25394
 Alpha  occ. eigenvalues --  -10.25379 -10.25362 -10.25314 -10.25113 -10.25078
 Alpha  occ. eigenvalues --  -10.24986 -10.24371 -10.24289 -10.24203 -10.23931
 Alpha  occ. eigenvalues --  -10.22117  -3.17027  -3.15884  -1.91909  -1.91489
 Alpha  occ. eigenvalues --   -1.91342  -1.90767  -1.90355  -1.90190  -1.17611
 Alpha  occ. eigenvalues --   -1.16378  -1.09319  -1.08194  -1.07767  -1.07493
 Alpha  occ. eigenvalues --   -1.06652  -1.06469  -1.05132  -1.04135  -1.03965
 Alpha  occ. eigenvalues --   -1.03896  -1.03136  -1.02904  -1.02498  -1.01562
 Alpha  occ. eigenvalues --   -0.92701  -0.91472  -0.89762  -0.89554  -0.89015
 Alpha  occ. eigenvalues --   -0.88714  -0.88466  -0.88245  -0.87997  -0.87784
 Alpha  occ. eigenvalues --   -0.87668  -0.87267  -0.87136  -0.86041  -0.85467
 Alpha  occ. eigenvalues --   -0.84543  -0.84094  -0.83467  -0.83123  -0.82703
 Alpha  occ. eigenvalues --   -0.82319  -0.82183  -0.81602  -0.81191  -0.81003
 Alpha  occ. eigenvalues --   -0.79917  -0.79217  -0.77854  -0.77568  -0.77230
 Alpha  occ. eigenvalues --   -0.76552  -0.76498  -0.76326  -0.75257  -0.74832
 Alpha  occ. eigenvalues --   -0.74298  -0.73190  -0.72132  -0.72113  -0.71090
 Alpha  occ. eigenvalues --   -0.69472  -0.69329  -0.69130  -0.68337  -0.68128
 Alpha  occ. eigenvalues --   -0.67674  -0.67105  -0.66740  -0.65795  -0.65476
 Alpha  occ. eigenvalues --   -0.65019  -0.64820  -0.64293  -0.64260  -0.63989
 Alpha  occ. eigenvalues --   -0.63744  -0.62819  -0.61882  -0.60776  -0.60303
 Alpha  occ. eigenvalues --   -0.59823  -0.59441  -0.59313  -0.58961  -0.58510
 Alpha  occ. eigenvalues --   -0.58378  -0.57901  -0.57507  -0.57132  -0.56905
 Alpha  occ. eigenvalues --   -0.56825  -0.56546  -0.56008  -0.55749  -0.55665
 Alpha  occ. eigenvalues --   -0.55382  -0.55000  -0.54846  -0.54631  -0.54373
 Alpha  occ. eigenvalues --   -0.54137  -0.53760  -0.53685  -0.53528  -0.53488
 Alpha  occ. eigenvalues --   -0.53252  -0.53045  -0.52721  -0.52511  -0.52228
 Alpha  occ. eigenvalues --   -0.52142  -0.52066  -0.51948  -0.51730  -0.51400
 Alpha  occ. eigenvalues --   -0.51297  -0.50924  -0.50821  -0.50674  -0.50364
 Alpha  occ. eigenvalues --   -0.50127  -0.49989  -0.49728  -0.49700  -0.49401
 Alpha  occ. eigenvalues --   -0.49342  -0.49226  -0.49125  -0.48909  -0.48735
 Alpha  occ. eigenvalues --   -0.48699  -0.48641  -0.48371  -0.48143  -0.47991
 Alpha  occ. eigenvalues --   -0.47948  -0.47751  -0.47597  -0.47141  -0.46997
 Alpha  occ. eigenvalues --   -0.46927  -0.46427  -0.46404  -0.46241  -0.46210
 Alpha  occ. eigenvalues --   -0.46097  -0.45698  -0.45590  -0.45505  -0.45409
 Alpha  occ. eigenvalues --   -0.45175  -0.44956  -0.44820  -0.44765  -0.44501
 Alpha  occ. eigenvalues --   -0.44424  -0.44226  -0.44081  -0.44032  -0.43925
 Alpha  occ. eigenvalues --   -0.43700  -0.43579  -0.43573  -0.43474  -0.43301
 Alpha  occ. eigenvalues --   -0.43151  -0.43038  -0.42889  -0.42601  -0.42499
 Alpha  occ. eigenvalues --   -0.42373  -0.42216  -0.42034  -0.41814  -0.41544
 Alpha  occ. eigenvalues --   -0.41524  -0.41287  -0.41180  -0.41133  -0.41083
 Alpha  occ. eigenvalues --   -0.40787  -0.40687  -0.40453  -0.40254  -0.40148
 Alpha  occ. eigenvalues --   -0.40073  -0.40014  -0.39052  -0.38780  -0.38439
 Alpha  occ. eigenvalues --   -0.38181  -0.38029  -0.37922  -0.37799  -0.37503
 Alpha  occ. eigenvalues --   -0.37289  -0.36972  -0.36766  -0.36674  -0.36460
 Alpha  occ. eigenvalues --   -0.35977  -0.35738  -0.34874  -0.34668  -0.33748
 Alpha  occ. eigenvalues --   -0.33522  -0.32905  -0.32628  -0.31644  -0.31497
 Alpha  occ. eigenvalues --   -0.30698  -0.30506  -0.30267  -0.29936  -0.29792
 Alpha  occ. eigenvalues --   -0.29481  -0.28705  -0.28458  -0.24503  -0.23514
 Alpha  occ. eigenvalues --   -0.21456  -0.20536
 Alpha virt. eigenvalues --   -0.09325  -0.08177  -0.02180  -0.01197  -0.00551
 Alpha virt. eigenvalues --    0.00502   0.01698   0.02390   0.02816   0.03973
 Alpha virt. eigenvalues --    0.04079   0.04199   0.05174   0.05489   0.05649

 Mulliken charges:
               1
     1  Mg   0.829771
     2  C   -0.003402
     3  C   -0.092548
     4  C   -0.047633
     5  C   -0.040188
     6  N   -0.256676
     7  C   -0.059911
     8  C   -0.013733
     9  C   -0.087419
    10  C    0.048479
    11  C    0.104446
    12  C    0.053176
    13  C   -0.072162
    14  H    0.034313
    15  N   -0.428134
    16  C    0.169139
    17  C   -0.174605
    18  C   -0.002514
    19  C    0.151983
    20  C    0.109484
    21  C    0.014222
    22  O   -0.246449
    23  C    0.061530
    24  N   -0.344031
    25  C    0.050665
    26  C   -0.028904
    27  C   -0.020468
    28  C    0.070641
    29  C    0.076826
    30  C    0.034999
    31  C    0.033072
    32  N   -0.310642
    33  C   -0.009011
    34  C   -0.157929
    35  C    0.015653
    36  C    0.068487
    37  C    0.134352
    38  C    0.029041
    39  O   -0.185411
    40  C   -0.005014
    41  C    0.220808
    42  O   -0.257317
    43  O   -0.301943
    44  C    0.156831
    45  H   -0.015904
    46  H   -0.014319
    47  H   -0.028661
    48  H    0.000875
    49  H   -0.002734
    50  H    0.026061
    51  H    0.017356
    52  H    0.018141
    53  H    0.013129
    54  H    0.040314
    55  H    0.018899
    56  H    0.020116
    57  H    0.006823
    58  H    0.028746
    59  H    0.043307
    60  H    0.037396
    61  H    0.037761
    62  H    0.033603
    63  H    0.021118
    64  H    0.007302
    65  H    0.023715
    66  H    0.010276
    67  H    0.005460
    68  H   -0.001873
    69  H    0.000316
    70  H   -0.018621
    71  H    0.034585
    72  H    0.018143
    73  H    0.042860
    74  H    0.011406
    75  H    0.047533
    76  H    0.037442
    77  H    0.045782
    78  H    0.048748
    79  H    0.051341
    80  Mg   0.833902
    81  C   -0.016951
    82  C   -0.084738
    83  C   -0.047842
    84  C   -0.065447
    85  N   -0.254087
    86  C   -0.052390
    87  C   -0.014808
    88  C   -0.089905
    89  C    0.043910
    90  C    0.114493
    91  C    0.062649
    92  C   -0.076444
    93  H    0.031011
    94  N   -0.423724
    95  C    0.159469
    96  C   -0.177990
    97  C   -0.000796
    98  C    0.152173
    99  C    0.109803
   100  C    0.055887
   101  O   -0.263020
   102  C    0.062710
   103  N   -0.350266
   104  C    0.038865
   105  C   -0.019750
   106  C   -0.033997
   107  C    0.087661
   108  C    0.074112
   109  C    0.035178
   110  C   -0.007073
   111  N   -0.323390
   112  C    0.076062
   113  C   -0.165192
   114  C    0.001387
   115  C    0.094227
   116  C    0.131940
   117  C    0.040774
   118  O   -0.191124
   119  C    0.001226
   120  C    0.211053
   121  O   -0.252531
   122  O   -0.305421
   123  C    0.152637
   124  H   -0.014446
   125  H   -0.018332
   126  H   -0.042421
   127  H   -0.001961
   128  H   -0.003353
   129  H    0.021490
   130  H    0.015279
   131  H    0.015862
   132  H    0.013777
   133  H    0.036246
   134  H    0.020768
   135  H    0.018681
   136  H    0.013744
   137  H    0.023145
   138  H    0.052751
   139  H    0.040569
   140  H    0.010924
   141  H    0.050452
   142  H    0.012857
   143  H    0.011190
   144  H    0.022639
   145  H    0.011935
   146  H    0.005303
   147  H    0.004527
   148  H    0.002884
   149  H    0.010516
   150  H    0.017157
   151  H    0.030469
   152  H    0.044010
   153  H    0.007144
   154  H    0.045372
   155  H    0.034039
   156  H    0.043118
   157  H    0.048822
   158  H    0.052282
 Sum of Mulliken charges =  -0.00000

 Dipole moment (field-independent basis, Debye):
    X=              4.9289    Y=              3.5910    Z=              2.0218  Tot=              6.4248
 Quadrupole moment (field-independent basis, Debye-Ang):
   XX=           -548.3847   YY=           -465.7977   ZZ=           -509.7453
   XY=              7.5538   XZ=             39.7937   YZ=             26.5674

 Normal termination of Gaussian 16 at Wed Sep  8 15:13:58 2021.
