 Gaussian 16, Revision A.03,
 Gaussian 16:  ES64L-G16RevA.03 25-Dec-2016

 -----------------------------------
 #p cam-b3lyp/Def2SVP td=(nstates=5)
 -----------------------------------

 --------------------------------
 TDDFT excited states in gaussian
 --------------------------------
 Symbolic Z-matrix:
 Charge =  0 Multiplicity = 1

                         Standard orientation:
 ---------------------------------------------------------------------
 Center     Atomic      Atomic             Coordinates (Angstroms)
 Number     Number       Type             X           Y           Z
 ---------------------------------------------------------------------
      1         12           0       -5.046698   -1.281806    0.221134
      2          6           0       -6.133408    2.103819   -0.189740
      3          6           0       -5.878936   -1.789002   -3.048912
      4          6           0       -4.523448   -4.375594    0.680814
      5          6           0       -5.374695   -0.814405    3.659100
      6          7           0       -5.888619    0.065159   -1.320780
      7          6           0       -6.204289    1.355659   -1.366973
      8          6           0       -6.545620    1.857216   -2.802002
      9          6           0       -6.978248    0.469654   -3.457365
     10          6           0       -6.174134   -0.474199   -2.580742
     11          6           0       -8.460768    0.152612   -3.289669
     12          6           0       -5.301917    2.470989   -3.528788
     13          6           0       -5.615304    3.273977   -4.794629
     14          1           0       -4.812073    4.449540   -5.094994
     15          7           0       -4.717710   -2.732562   -1.078837
     16          6           0       -5.114117   -2.764828   -2.373869
     17          6           0       -4.628319   -4.051618   -2.916873
     18          6           0       -4.082804   -4.847349   -1.782272
     19          6           0       -4.448045   -4.017122   -0.663031
     20          6           0       -4.663716   -4.395509   -4.374349
     21          6           0       -3.358059   -6.154452   -1.716257
     22          8           0       -3.178629   -6.777802   -0.614525
     23          6           0       -2.935529   -6.737032   -3.002769
     24          7           0       -5.169272   -2.507727    1.906284
     25          6           0       -4.832473   -3.800704    1.844966
     26          6           0       -4.726909   -4.402989    3.214655
     27          6           0       -4.825316   -3.184618    4.242099
     28          6           0       -5.065671   -2.039361    3.227759
     29          6           0       -5.788044   -5.454609    3.566931
     30          6           0       -3.672338   -3.033245    5.265889
     31          6           0       -2.394520   -2.660007    4.548272
     32          7           0       -5.472496    0.387411    1.541533
     33          6           0       -5.582973    0.350084    2.939058
     34          6           0       -5.988022    1.698641    3.376547
     35          6           0       -6.101878    2.427127    2.194096
     36          6           0       -5.813382    1.579964    1.086226
     37          6           0       -6.256987    2.094326    4.716519
     38          6           0       -6.424122    3.717697    1.607201
     39          8           0       -6.653909    4.841498    2.056380
     40          6           0       -6.576154    3.528508    0.033377
     41          6           0       -5.788110    4.622459   -0.634131
     42          8           0       -4.543567    4.657643   -0.549028
     43          8           0       -6.593279    5.311706   -1.457042
     44          6           0       -5.866740    6.393895   -2.173395
     45          1           0       -6.320143   -2.126007   -3.988968
     46          1           0       -4.241551   -5.408968    0.893207
     47          1           0       -5.414127   -0.571575    4.722553
     48          1           0       -7.372481    2.565961   -2.851058
     49          1           0       -6.654592    0.391259   -4.495066
     50          1           0       -8.950476    0.872585   -2.634118
     51          1           0       -8.497360   -0.845805   -2.853414
     52          1           0       -8.952200    0.073919   -4.259761
     53          1           0       -4.705826    1.667586   -3.961547
     54          1           0       -4.721313    3.089849   -2.843780
     55          1           0       -6.677697    3.509211   -4.864595
     56          1           0       -5.421011    2.638758   -5.658890
     57          1           0       -5.269731   -3.687509   -4.938288
     58          1           0       -5.196440   -5.341888   -4.465348
     59          1           0       -3.663784   -4.494394   -4.797067
     60          1           0       -3.811823   -6.892924   -3.632336
     61          1           0       -2.354999   -7.624868   -2.754612
     62          1           0       -2.305897   -6.017181   -3.526531
     63          1           0       -3.770121   -4.906211    3.347888
     64          1           0       -5.722707   -3.241016    4.858689
     65          1           0       -5.369620   -6.418276    3.858432
     66          1           0       -6.454683   -5.560369    2.711538
     67          1           0       -6.485222   -5.156159    4.349419
     68          1           0       -3.490056   -3.979413    5.774303
     69          1           0       -3.870003   -2.279728    6.028379
     70          1           0       -2.011379   -3.624190    4.216026
     71          1           0       -1.698308   -2.179331    5.236349
     72          1           0       -2.597402   -2.065441    3.657309
     73          1           0       -5.783359    3.067105    4.848221
     74          1           0       -5.871069    1.366074    5.429485
     75          1           0       -7.346261    2.128056    4.702328
     76          1           0       -7.640570    3.596506   -0.189145
     77          1           0       -6.391886    7.325969   -1.964362
     78          1           0       -5.789619    6.079027   -3.214219
     79          1           0       -4.869186    6.632108   -1.802612
     80         12           0        5.210233    1.350331    0.043252
     81          6           0        5.864607   -2.081308   -0.778169
     82          6           0        4.627342    0.317993    3.241552
     83          6           0        4.192370    4.283160    0.698881
     84          6           0        4.724696    1.927480   -3.359226
     85          7           0        5.270453   -0.649250    0.986826
     86          6           0        5.591727   -1.871276    0.589621
     87          6           0        5.700709   -2.912331    1.735876
     88          6           0        4.749563   -2.189107    2.808791
     89          6           0        4.914410   -0.742971    2.345976
     90          6           0        3.285398   -2.571321    2.669213
     91          6           0        7.167423   -3.057363    2.274155
     92          6           0        7.404529   -4.270956    3.175668
     93          1           0        8.694865   -4.950790    3.102590
     94          7           0        4.987803    2.272879    1.786236
     95          6           0        4.782320    1.698993    2.990277
     96          6           0        4.663917    2.807992    3.949590
     97          6           0        4.651729    4.086993    3.188848
     98          6           0        4.587824    3.585337    1.830786
     99          6           0        4.655450    2.600447    5.436287
    100          6           0        4.678576    5.523948    3.613851
    101          8           0        4.420589    6.473861    2.792912
    102          6           0        4.923949    5.781206    5.040417
    103          7           0        4.347142    2.837433   -1.125475
    104          6           0        4.047693    4.040034   -0.603913
    105          6           0        3.696428    5.032119   -1.686853
    106          6           0        4.058375    4.308454   -3.066300
    107          6           0        4.491697    2.929357   -2.522496
    108          6           0        2.239050    5.491773   -1.720675
    109          6           0        5.021846    5.061194   -4.024310
    110          6           0        6.401366    5.140816   -3.411170
    111          7           0        5.453838    0.213053   -1.777548
    112          6           0        5.168390    0.638324   -3.093508
    113          6           0        5.384258   -0.521724   -3.982408
    114          6           0        5.761090   -1.555844   -3.112292
    115          6           0        5.759259   -1.079683   -1.773359
    116          6           0        5.182520   -0.539041   -5.391341
    117          6           0        6.149711   -2.944845   -3.020939
    118          8           0        6.406039   -3.830557   -3.835526
    119          6           0        6.111512   -3.380839   -1.492923
    120          6           0        7.387364   -4.116828   -1.187874
    121          8           0        8.481869   -3.527689   -1.227618
    122          8           0        7.087753   -5.330657   -0.690658
    123          6           0        8.320811   -6.094572   -0.362280
    124          1           0        4.203096    0.074032    4.215915
    125          1           0        3.937601    5.333578    0.857606
    126          1           0        4.689206    2.052254   -4.443597
    127          1           0        5.311207   -3.894450    1.496088
    128          1           0        5.129759   -2.311632    3.819633
    129          1           0        3.108986   -3.177409    1.793046
    130          1           0        2.743045   -1.637545    2.598787
    131          1           0        2.933430   -3.055983    3.584388
    132          1           0        7.367684   -2.249652    2.989857
    133          1           0        7.871259   -3.065484    1.464725
    134          1           0        6.584032   -4.996225    3.114816
    135          1           0        7.391325   -3.938025    4.216347
    136          1           0        4.510172    1.544137    5.694161
    137          1           0        3.761034    3.100148    5.823823
    138          1           0        5.535971    3.022393    5.925496
    139          1           0        4.158232    5.286787    5.633460
    140          1           0        4.995492    6.866602    5.133555
    141          1           0        5.880707    5.325316    5.318613
    142          1           0        4.292335    5.931887   -1.595120
    143          1           0        3.164023    4.136197   -3.682981
    144          1           0        2.125647    6.589477   -1.641617
    145          1           0        1.706056    4.995807   -0.920369
    146          1           0        1.677099    5.181054   -2.599801
    147          1           0        4.685740    6.091151   -4.167084
    148          1           0        5.095655    4.607394   -5.006966
    149          1           0        6.326493    6.006828   -2.746719
    150          1           0        7.154230    5.297871   -4.180953
    151          1           0        6.605904    4.263169   -2.787032
    152          1           0        6.024202   -1.066673   -5.819914
    153          1           0        5.097438    0.468439   -5.793213
    154          1           0        4.236394   -1.084124   -5.446207
    155          1           0        5.232165   -4.010919   -1.353912
    156          1           0        8.262060   -7.044003   -0.903400
    157          1           0        8.355376   -6.145603    0.742239
    158          1           0        9.264289   -5.702956   -0.724107
 ---------------------------------------------------------------------

 SCF Done:  E(RCAM-B3LYP) =  -4069.81172654     A.U. after   19 cycles

 Excitation energies and oscillator strengths:

 Excited State   1:      Singlet-A      1.6581 eV  747.73 nm  f=0.0224  <S**2>=0.000
     309 -> 315       -0.11087
     310 -> 316       -0.12857
     311 -> 313       -0.44838
     312 -> 314        0.52063
 This state for optimization and/or second-order correction.
 Total Energy, E(TD-HF/TD-DFT) =  -4069.75079084
 Copying the excited state density for this state as the 1-particle RhoCI density.

 Excited State   2:      Singlet-A      1.6958 eV  731.10 nm  f=0.6974  <S**2>=0.000
     309 -> 315        0.13610
     310 -> 316       -0.11678
     311 -> 313        0.51877
     312 -> 314        0.44682

 Excited State   3:      Singlet-A      2.1835 eV  567.82 nm  f=0.0277  <S**2>=0.000
     309 -> 313        0.26851
     310 -> 314        0.58546
     311 -> 315       -0.11217
     312 -> 316        0.24583

 Excited State   4:      Singlet-A      2.1955 eV  564.73 nm  f=0.1545  <S**2>=0.000
     309 -> 313        0.58154
     310 -> 314       -0.26554
     311 -> 315       -0.25524
     312 -> 316       -0.11754

 Excited State   5:      Singlet-A      2.4874 eV  498.45 nm  f=0.0000  <S**2>=0.000
     312 -> 313        0.70710

 The electronic state is 1-A.
 Alpha  occ. eigenvalues --  -46.87880 -46.87493 -19.26338 -19.26243 -19.19076
 Alpha  occ. eigenvalues --  -19.19050 -19.18861 -19.18523 -19.18230 -19.17927
 Alpha  occ. eigenvalues --  -14.42530 -14.42332 -14.41543 -14.41184 -14.39480
 Alpha  occ. eigenvalues --  -14.39183 -14.38668 -14.38443 -10.39137 -10.38977
 Alpha  occ. eigenvalues --  -10.35490 -10.35199 -10.34451 -10.34105 -10.31730
 Alpha  occ. eigenvalues --  -10.31663 -10.31484 -10.31163 -10.30978 -10.30853
 Alpha  occ. eigenvalues --  -10.30649 -10.30592 -10.30303 -10.30235 -10.30217
 Alpha  occ. eigenvalues --  -10.30023 -10.29955 -10.29716 -10.29704 -10.29330
 Alpha  occ. eigenvalues --  -10.29263 -10.29250 -10.28817 -10.28613 -10.28569
 Alpha  occ. eigenvalues --  -10.28541 -10.28435 -10.28242 -10.28183 -10.27988
 Alpha  occ. eigenvalues --  -10.27864 -10.27848 -10.27804 -10.27651 -10.27650
 Alpha  occ. eigenvalues --  -10.27587 -10.27509 -10.27507 -10.27480 -10.27326
 Alpha  occ. eigenvalues --  -10.27321 -10.27311 -10.27306 -10.27222 -10.27140
 Alpha  occ. eigenvalues --  -10.26919 -10.26778 -10.26564 -10.26402 -10.26398
 Alpha  occ. eigenvalues --  -10.26293 -10.26224 -10.26117 -10.25991 -10.25934
 Alpha  occ. eigenvalues --  -10.25851 -10.25782 -10.25773 -10.25556 -10.25042
 Alpha  occ. eigenvalues --  -10.24967 -10.24904 -10.24877 -10.24725 -10.24596
 Alpha  occ. eigenvalues --  -10.24504  -3.16623  -3.16243  -1.91504  -1.91125
 Alpha  occ. eigenvalues --   -1.91091  -1.90933  -1.90714  -1.90551  -1.16687
 Alpha  occ. eigenvalues --   -1.16536  -1.08687  -1.08540  -1.07262  -1.06835
 Alpha  occ. eigenvalues --   -1.06770  -1.06698  -1.04658  -1.04333  -1.03849
 Alpha  occ. eigenvalues --   -1.03495  -1.03315  -1.02869  -1.02495  -1.01944
 Alpha  occ. eigenvalues --   -0.92047  -0.91835  -0.89649  -0.89327  -0.89259
 Alpha  occ. eigenvalues --   -0.88999  -0.88413  -0.88028  -0.87950  -0.87754
 Alpha  occ. eigenvalues --   -0.87666  -0.87522  -0.87324  -0.86953  -0.85056
 Alpha  occ. eigenvalues --   -0.84845  -0.84080  -0.83685  -0.83026  -0.82749
 Alpha  occ. eigenvalues --   -0.82715  -0.82494  -0.81658  -0.81465  -0.80668
 Alpha  occ. eigenvalues --   -0.80294  -0.78859  -0.78481  -0.77316  -0.77020
 Alpha  occ. eigenvalues --   -0.76992  -0.76740  -0.75995  -0.75693  -0.75009
 Alpha  occ. eigenvalues --   -0.74590  -0.72861  -0.72546  -0.71756  -0.71398
 Alpha  occ. eigenvalues --   -0.70075  -0.69581  -0.68945  -0.68675  -0.67715
 Alpha  occ. eigenvalues --   -0.67441  -0.67283  -0.67049  -0.65365  -0.65124
 Alpha  occ. eigenvalues --   -0.64940  -0.64712  -0.64616  -0.64502  -0.64387
 Alpha  occ. eigenvalues --   -0.64029  -0.62373  -0.62143  -0.60513  -0.60164
 Alpha  occ. eigenvalues --   -0.59876  -0.59645  -0.59075  -0.58828  -0.58587
 Alpha  occ. eigenvalues --   -0.58268  -0.57653  -0.57426  -0.57399  -0.57067
 Alpha  occ. eigenvalues --   -0.56380  -0.56061  -0.56043  -0.55754  -0.55584
 Alpha  occ. eigenvalues --   -0.55453  -0.55302  -0.55080  -0.54627  -0.54326
 Alpha  occ. eigenvalues --   -0.53966  -0.53762  -0.53380  -0.53279  -0.53070
 Alpha  occ. eigenvalues --   -0.52999  -0.52989  -0.52807  -0.52756  -0.52607
 Alpha  occ. eigenvalues --   -0.52498  -0.52247  -0.51998  -0.51783  -0.51676
 Alpha  occ. eigenvalues --   -0.51510  -0.51287  -0.51060  -0.50611  -0.50300
 Alpha  occ. eigenvalues --   -0.50160  -0.49974  -0.49813  -0.49666  -0.49575
 Alpha  occ. eigenvalues --   -0.49327  -0.49280  -0.49165  -0.49056  -0.48958
 Alpha  occ. eigenvalues --   -0.48671  -0.48559  -0.48497  -0.48417  -0.48191
 Alpha  occ. eigenvalues --   -0.48156  -0.47772  -0.47434  -0.47369  -0.46941
 Alpha  occ. eigenvalues --   -0.46897  -0.46624  -0.46551  -0.46447  -0.46399
 Alpha  occ. eigenvalues --   -0.46254  -0.46111  -0.45919  -0.45900  -0.45690
 Alpha  occ. eigenvalues --   -0.45317  -0.44981  -0.44658  -0.44581  -0.44372
 Alpha  occ. eigenvalues --   -0.44323  -0.44252  -0.44158  -0.44077  -0.43976
 Alpha  occ. eigenvalues --   -0.43913  -0.43784  -0.43572  -0.43473  -0.43419
 Alpha  occ. eigenvalues --   -0.43222  -0.43114  -0.42826  -0.42802  -0.42745
 Alpha  occ. eigenvalues --   -0.42744  -0.42376  -0.42132  -0.41809  -0.41784
 Alpha  occ. eigenvalues --   -0.41613  -0.41516  -0.41304  -0.41223  -0.40972
 Alpha  occ. eigenvalues --   -0.40874  -0.40814  -0.40689  -0.40562  -0.40529
 Alpha  occ. eigenvalues --   -0.40310  -0.40303  -0.40078  -0.39626  -0.39256
 Alpha  occ. eigenvalues --   -0.38593  -0.38155  -0.37826  -0.37511  -0.37433
 Alpha  occ. eigenvalues --   -0.37336  -0.37095  -0.37046  -0.36793  -0.36640
 Alpha  occ. eigenvalues --   -0.36283  -0.36046  -0.34369  -0.34092  -0.33831
 Alpha  occ. eigenvalues --   -0.33741  -0.33268  -0.33013  -0.31394  -0.31116
 Alpha  occ. eigenvalues --   -0.31081  -0.30804  -0.30091  -0.29834  -0.29516
 Alpha  occ. eigenvalues --   -0.29394  -0.29165  -0.29064  -0.24164  -0.23871
 Alpha  occ. eigenvalues --   -0.21210  -0.20952
 Alpha virt. eigenvalues --   -0.08849  -0.08630  -0.01834  -0.01509  -0.00116
 Alpha virt. eigenvalues --    0.00140   0.02125   0.02350   0.03016   0.03384
 Alpha virt. eigenvalues --    0.04636   0.04889   0.05040   0.05282   0.06101

 Mulliken charges:
               1
     1  Mg   0.838642
     2  C   -0.002783
     3  C   -0.093798
     4  C   -0.046156
     5  C   -0.064315
     6  N   -0.256737
     7  C   -0.052547
     8  C   -0.013977
     9  C   -0.087052
    10  C    0.046297
    11  C    0.104738
    12  C    0.053447
    13  C   -0.071703
    14  H    0.035589
    15  N   -0.433228
    16  C    0.168484
    17  C   -0.176695
    18  C   -0.003736
    19  C    0.148685
    20  C    0.110032
    21  C    0.012371
    22  O   -0.250005
    23  C    0.062302
    24  N   -0.340996
    25  C    0.041155
    26  C   -0.028191
    27  C   -0.023749
    28  C    0.074383
    29  C    0.076116
    30  C    0.035395
    31  C   -0.004399
    32  N   -0.310432
    33  C    0.080159
    34  C   -0.169998
    35  C    0.008549
    36  C    0.082846
    37  C    0.127356
    38  C    0.046230
    39  O   -0.188164
    40  C   -0.005404
    41  C    0.213015
    42  O   -0.257070
    43  O   -0.304778
    44  C    0.157585
    45  H   -0.017206
    46  H   -0.017001
    47  H   -0.042052
    48  H    0.001089
    49  H   -0.003829
    50  H    0.025550
    51  H    0.016494
    52  H    0.016928
    53  H    0.011189
    54  H    0.043914
    55  H    0.018143
    56  H    0.018099
    57  H    0.005970
    58  H    0.027146
    59  H    0.040574
    60  H    0.037433
    61  H    0.036298
    62  H    0.032573
    63  H    0.015823
    64  H    0.009645
    65  H    0.023105
    66  H    0.013043
    67  H    0.004817
    68  H    0.005993
    69  H    0.004568
    70  H    0.008156
    71  H    0.015487
    72  H    0.029903
    73  H    0.047576
    74  H    0.008426
    75  H    0.046154
    76  H    0.035292
    77  H    0.043233
    78  H    0.046235
    79  H    0.053777
    80  Mg   0.838054
    81  C   -0.017044
    82  C   -0.087798
    83  C   -0.044221
    84  C   -0.064974
    85  N   -0.254649
    86  C   -0.049986
    87  C   -0.015124
    88  C   -0.090594
    89  C    0.046067
    90  C    0.114278
    91  C    0.062584
    92  C   -0.077727
    93  H    0.034343
    94  N   -0.423778
    95  C    0.163448
    96  C   -0.174051
    97  C   -0.006899
    98  C    0.152285
    99  C    0.099154
   100  C    0.016172
   101  O   -0.252246
   102  C    0.061140
   103  N   -0.349984
   104  C    0.038279
   105  C   -0.020365
   106  C   -0.034238
   107  C    0.088866
   108  C    0.072764
   109  C    0.034791
   110  C   -0.007540
   111  N   -0.323895
   112  C    0.078224
   113  C   -0.163859
   114  C    0.001776
   115  C    0.096030
   116  C    0.131648
   117  C    0.041704
   118  O   -0.189109
   119  C    0.001100
   120  C    0.211078
   121  O   -0.251225
   122  O   -0.305496
   123  C    0.152213
   124  H   -0.019893
   125  H   -0.014427
   126  H   -0.041361
   127  H   -0.000472
   128  H   -0.004807
   129  H    0.023240
   130  H    0.014945
   131  H    0.015903
   132  H    0.013743
   133  H    0.037472
   134  H    0.020975
   135  H    0.019345
   136  H    0.008301
   137  H    0.026928
   138  H    0.039535
   139  H    0.038748
   140  H    0.036532
   141  H    0.033247
   142  H    0.013933
   143  H    0.011980
   144  H    0.025083
   145  H    0.016365
   146  H    0.005885
   147  H    0.006057
   148  H    0.002715
   149  H    0.011051
   150  H    0.017242
   151  H    0.030093
   152  H    0.045479
   153  H    0.008116
   154  H    0.045452
   155  H    0.034964
   156  H    0.043592
   157  H    0.049553
   158  H    0.053286
 Sum of Mulliken charges =  -0.00000

 Dipole moment (field-independent basis, Debye):
    X=             -3.6963    Y=             -2.2451    Z=              0.4218  Tot=              4.3452
 Quadrupole moment (field-independent basis, Debye-Ang):
   XX=           -524.9638   YY=           -543.7176   ZZ=           -451.2227
   XY=             20.0643   XZ=             55.7022   YZ=            -38.4432

 Normal termination of Gaussian 16 at Sat Sep  4 02:52:24 2021.
