 Gaussian 16, Revision A.03,
 Gaussian 16:  ES64L-G16RevA.03 25-Dec-2016

 -----------------------------------
 #p cam-b3lyp/Def2SVP td=(nstates=5)
 -----------------------------------

 --------------------------------
 TDDFT excited states in gaussian
 --------------------------------
 Symbolic Z-matrix:
 Charge =  0 Multiplicity = 1

                         Standard orientation:
 ---------------------------------------------------------------------
 Center     Atomic      Atomic             Coordinates (Angstroms)
 Number     Number       Type             X           Y           Z
 ---------------------------------------------------------------------
      1         12           0        6.352903   -0.899171    0.027796
      2          6           0        6.680839    2.056235   -1.964752
      3          6           0        7.286165    0.987524    2.713400
      4          6           0        6.511558   -3.578240    1.717185
      5          6           0        6.560329   -2.735997   -2.926643
      6          7           0        6.887764    1.240094    0.223032
      7          6           0        6.916193    2.278740   -0.606170
      8          6           0        7.145377    3.639963    0.116270
      9          6           0        7.870808    3.107440    1.432388
     10          6           0        7.287633    1.706207    1.481115
     11          6           0        9.386237    3.004199    1.293400
     12          6           0        5.800578    4.365908    0.457228
     13          6           0        5.936550    5.836103    0.863911
     14          1           0        4.898483    6.772944    0.461299
     15          7           0        6.350691   -1.182995    1.982863
     16          6           0        6.748950   -0.299883    2.929853
     17          6           0        6.555593   -0.980086    4.228552
     18          6           0        6.191881   -2.397250    3.950250
     19          6           0        6.364660   -2.450239    2.521013
     20          6           0        6.669559   -0.281136    5.548488
     21          6           0        5.767650   -3.527621    4.833666
     22          8           0        5.724032   -4.736009    4.418372
     23          6           0        5.485792   -3.191416    6.240991
     24          7           0        6.732848   -2.885024   -0.491497
     25          6           0        6.684688   -3.858993    0.423953
     26          6           0        6.707719   -5.214088   -0.218796
     27          6           0        6.536142   -4.962817   -1.786335
     28          6           0        6.525756   -3.414243   -1.777358
     29          6           0        7.970497   -6.050833    0.028715
     30          6           0        5.374390   -5.704108   -2.494316
     31          6           0        4.048424   -5.168101   -2.002778
     32          7           0        6.402173   -0.450848   -2.095321
     33          6           0        6.513484   -1.369854   -3.148750
     34          6           0        6.614969   -0.588310   -4.394927
     35          6           0        6.572041    0.739923   -3.975643
     36          6           0        6.477815    0.785428   -2.555311
     37          6           0        6.787275   -1.122902   -5.702198
     38          6           0        6.608664    2.131491   -4.395234
     39          8           0        6.587764    2.710213   -5.482495
     40          6           0        6.803322    3.039859   -3.101865
     41          6           0        5.798998    4.157507   -3.176065
     42          8           0        4.576172    3.925885   -3.084343
     43          8           0        6.438244    5.335104   -3.104157
     44          6           0        5.496674    6.485807   -3.142630
     45          1           0        7.793072    1.420910    3.577785
     46          1           0        6.459784   -4.528801    2.252155
     47          1           0        6.542634   -3.241380   -3.893973
     48          1           0        7.799005    4.332052   -0.414961
     49          1           0        7.575299    3.671831    2.316616
     50          1           0        9.705969    3.191357    0.268380
     51          1           0        9.637047    1.985700    1.590465
     52          1           0        9.886252    3.656904    2.009457
     53          1           0        5.394352    3.954610    1.381282
     54          1           0        5.097309    4.284874   -0.372333
     55          1           0        6.922866    6.228851    0.615237
     56          1           0        5.887510    5.895639    1.951225
     57          1           0        7.109467    0.709495    5.440427
     58          1           0        7.395150   -0.837319    6.141689
     59          1           0        5.716279   -0.242030    6.075802
     60          1           0        6.377120   -2.754958    6.692197
     61          1           0        5.110812   -4.105843    6.699318
     62          1           0        4.716766   -2.419037    6.272299
     63          1           0        5.882405   -5.829618    0.136740
     64          1           0        7.422357   -5.259921   -2.347606
     65          1           0        7.770065   -7.023354    0.478976
     66          1           0        8.647038   -5.464345    0.649695
     67          1           0        8.583757   -6.225210   -0.854983
     68          1           0        5.399965   -6.766387   -2.253782
     69          1           0        5.401402   -5.609129   -3.579904
     70          1           0        3.884615   -5.729435   -1.083593
     71          1           0        3.262259   -5.372429   -2.730380
     72          1           0        4.120481   -4.114384   -1.732639
     73          1           0        6.113512   -0.564011   -6.351546
     74          1           0        6.566123   -2.189732   -5.726053
     75          1           0        7.843349   -0.911544   -5.869210
     76          1           0        7.828388    3.408142   -3.128853
     77          1           0        5.806479    7.126580   -3.968260
     78          1           0        5.493126    6.916903   -2.141356
     79          1           0        4.469976    6.259072   -3.432152
     80         12           0       -6.866672   -0.381544   -0.054424
     81          6           0       -4.582841    1.888689    1.529625
     82          6           0       -9.249843    2.039908    0.248292
     83          6           0       -9.009464   -2.507604   -1.032052
     84          6           0       -4.678342   -2.957298    0.795541
     85          7           0       -6.802864    1.659195    0.796205
     86          6           0       -5.864320    2.437160    1.314130
     87          6           0       -6.302933    3.908340    1.543970
     88          6           0       -7.887890    3.672872    1.650514
     89          6           0       -8.001936    2.397124    0.818574
     90          6           0       -8.357056    3.365597    3.062885
     91          6           0       -5.940309    4.836481    0.331916
     92          6           0       -6.058461    6.336182    0.612459
     93          1           0       -5.101188    7.240012   -0.019359
     94          7           0       -8.689520   -0.120661   -0.794515
     95          6           0       -9.508544    0.931925   -0.588245
     96          6           0      -10.741073    0.634953   -1.334457
     97          6           0      -10.646391   -0.752895   -1.863258
     98          6           0       -9.427072   -1.197920   -1.218813
     99          6           0      -11.823653    1.651227   -1.554970
    100          6           0      -11.516897   -1.552146   -2.785005
    101          8           0      -11.370436   -2.818274   -2.920300
    102          6           0      -12.605727   -0.824707   -3.453411
    103          7           0       -6.955493   -2.454772    0.072830
    104          6           0       -7.972626   -3.138412   -0.480347
    105          6           0       -7.684458   -4.620558   -0.504379
    106          6           0       -6.152249   -4.767424   -0.070409
    107          6           0       -5.830917   -3.286665    0.228741
    108          6           0       -8.556476   -5.482679    0.408161
    109          6           0       -5.218409   -5.545680   -1.037341
    110          6           0       -5.043687   -4.769210   -2.322624
    111          7           0       -4.890128   -0.522627    0.806634
    112          6           0       -4.169832   -1.701163    1.100398
    113          6           0       -2.924265   -1.291871    1.781190
    114          6           0       -3.017793    0.105960    1.857448
    115          6           0       -4.244960    0.535819    1.284046
    116          6           0       -1.919841   -2.170296    2.276797
    117          6           0       -2.362299    1.314775    2.302178
    118          8           0       -1.260116    1.579744    2.780412
    119          6           0       -3.403928    2.512781    2.223368
    120          6           0       -2.726803    3.673297    1.547179
    121          8           0       -2.380539    3.595955    0.355234
    122          8           0       -2.795626    4.751679    2.348861
    123          6           0       -2.147130    5.931513    1.716982
    124          1           0      -10.125141    2.640357    0.497697
    125          1           0       -9.663277   -3.275418   -1.452118
    126          1           0       -3.899128   -3.693411    1.004432
    127          1           0       -5.931212    4.355658    2.458019
    128          1           0       -8.440017    4.483820    1.182650
    129          1           0       -7.528702    3.239309    3.744071
    130          1           0       -8.929875    2.450387    2.989996
    131          1           0       -9.057876    4.133517    3.402741
    132          1           0       -6.709394    4.729281   -0.443804
    133          1           0       -4.958121    4.614264   -0.037620
    134          1           0       -6.138327    6.549798    1.685278
    135          1           0       -7.003794    6.693523    0.196924
    136          1           0      -11.690192    2.527735   -0.908959
    137          1           0      -12.760595    1.200173   -1.210649
    138          1           0      -11.931114    1.931062   -2.605115
    139          1           0      -13.256683   -0.380652   -2.704062
    140          1           0      -13.060340   -1.543511   -4.137905
    141          1           0      -12.173409    0.003792   -4.025521
    142          1           0       -7.806964   -5.022201   -1.502775
    143          1           0       -6.048369   -5.309900    0.880780
    144          1           0       -9.096423   -6.282753   -0.132582
    145          1           0       -9.253078   -4.836094    0.925086
    146          1           0       -8.030303   -5.961278    1.232349
    147          1           0       -5.669754   -6.502351   -1.311588
    148          1           0       -4.241786   -5.759354   -0.616007
    149          1           0       -5.931503   -5.044396   -2.899811
    150          1           0       -4.131643   -5.072761   -2.832588
    151          1           0       -5.091092   -3.689424   -2.139657
    152          1           0       -0.966297   -1.740896    1.999566
    153          1           0       -2.036400   -3.174599    1.874859
    154          1           0       -2.135886   -2.129133    3.347737
    155          1           0       -3.705255    2.752557    3.243806
    156          1           0       -1.389468    6.293647    2.418768
    157          1           0       -2.970862    6.624840    1.463017
    158          1           0       -1.548740    5.759336    0.830000
 ---------------------------------------------------------------------

 SCF Done:  E(RCAM-B3LYP) =  -4069.81142830     A.U. after   19 cycles

 Excitation energies and oscillator strengths:

 Excited State   1:      Singlet-A      1.6701 eV  742.39 nm  f=0.2652  <S**2>=0.000
     309 -> 315        0.14161
     311 -> 313        0.56428
     312 -> 314        0.39077
 This state for optimization and/or second-order correction.
 Total Energy, E(TD-HF/TD-DFT) =  -4069.75005475
 Copying the excited state density for this state as the 1-particle RhoCI density.

 Excited State   2:      Singlet-A      1.6849 eV  735.88 nm  f=0.5139  <S**2>=0.000
     309 -> 315       -0.10008
     310 -> 316        0.14506
     311 -> 313       -0.39024
     312 -> 314        0.56347

 Excited State   3:      Singlet-A      2.1841 eV  567.68 nm  f=0.0255  <S**2>=0.000
     309 -> 313        0.58625
     310 -> 314       -0.26528
     311 -> 315       -0.24755
     312 -> 316        0.11129

 Excited State   4:      Singlet-A      2.1926 eV  565.46 nm  f=0.1608  <S**2>=0.000
     309 -> 313        0.26339
     310 -> 314        0.58361
     311 -> 315       -0.11446
     312 -> 316       -0.25379

 Excited State   5:      Singlet-A      2.5950 eV  477.78 nm  f=0.0000  <S**2>=0.000
     312 -> 313        0.70657

 The electronic state is 1-A.
 Alpha  occ. eigenvalues --  -46.87574 -46.87415 -19.26259 -19.25917 -19.19032
 Alpha  occ. eigenvalues --  -19.18637 -19.18612 -19.18485 -19.17982 -19.17818
 Alpha  occ. eigenvalues --  -14.42416 -14.42075 -14.41276 -14.41096 -14.39268
 Alpha  occ. eigenvalues --  -14.39025 -14.38512 -14.38212 -10.38971 -10.38680
 Alpha  occ. eigenvalues --  -10.35315 -10.35119 -10.34157 -10.34036 -10.31685
 Alpha  occ. eigenvalues --  -10.31348 -10.31228 -10.31036 -10.30944 -10.30529
 Alpha  occ. eigenvalues --  -10.30313 -10.30276 -10.30200 -10.30152 -10.30060
 Alpha  occ. eigenvalues --  -10.29868 -10.29812 -10.29588 -10.29354 -10.29317
 Alpha  occ. eigenvalues --  -10.29275 -10.28891 -10.28646 -10.28580 -10.28366
 Alpha  occ. eigenvalues --  -10.28322 -10.28167 -10.28073 -10.27990 -10.27919
 Alpha  occ. eigenvalues --  -10.27753 -10.27590 -10.27439 -10.27433 -10.27401
 Alpha  occ. eigenvalues --  -10.27393 -10.27383 -10.27361 -10.27300 -10.27227
 Alpha  occ. eigenvalues --  -10.27222 -10.27179 -10.27103 -10.27036 -10.26973
 Alpha  occ. eigenvalues --  -10.26796 -10.26603 -10.26343 -10.26255 -10.26078
 Alpha  occ. eigenvalues --  -10.26052 -10.25977 -10.25950 -10.25916 -10.25849
 Alpha  occ. eigenvalues --  -10.25762 -10.25675 -10.25534 -10.25334 -10.25196
 Alpha  occ. eigenvalues --  -10.24789 -10.24634 -10.24608 -10.24472 -10.24461
 Alpha  occ. eigenvalues --  -10.24442  -3.16324  -3.16156  -1.91206  -1.91037
 Alpha  occ. eigenvalues --   -1.90795  -1.90631  -1.90625  -1.90467  -1.16546
 Alpha  occ. eigenvalues --   -1.16259  -1.08586  -1.08275  -1.06890  -1.06890
 Alpha  occ. eigenvalues --   -1.06825  -1.06242  -1.04414  -1.04207  -1.03581
 Alpha  occ. eigenvalues --   -1.03404  -1.02955  -1.02869  -1.02049  -1.02028
 Alpha  occ. eigenvalues --   -0.91905  -0.91608  -0.89411  -0.89208  -0.89078
 Alpha  occ. eigenvalues --   -0.88815  -0.88140  -0.87983  -0.87709  -0.87603
 Alpha  occ. eigenvalues --   -0.87524  -0.87307  -0.87041  -0.86913  -0.84923
 Alpha  occ. eigenvalues --   -0.84616  -0.83795  -0.83648  -0.82854  -0.82636
 Alpha  occ. eigenvalues --   -0.82576  -0.82296  -0.81515  -0.81236  -0.80362
 Alpha  occ. eigenvalues --   -0.80242  -0.78555  -0.78440  -0.77067  -0.76885
 Alpha  occ. eigenvalues --   -0.76822  -0.76591  -0.75764  -0.75575  -0.74727
 Alpha  occ. eigenvalues --   -0.74595  -0.72617  -0.72428  -0.71505  -0.71334
 Alpha  occ. eigenvalues --   -0.69674  -0.69631  -0.68750  -0.68516  -0.67521
 Alpha  occ. eigenvalues --   -0.67290  -0.67120  -0.66841  -0.65194  -0.64917
 Alpha  occ. eigenvalues --   -0.64688  -0.64573  -0.64504  -0.64278  -0.64122
 Alpha  occ. eigenvalues --   -0.63951  -0.62193  -0.61947  -0.60260  -0.60097
 Alpha  occ. eigenvalues --   -0.59720  -0.59435  -0.58911  -0.58640  -0.58343
 Alpha  occ. eigenvalues --   -0.58155  -0.57466  -0.57223  -0.57155  -0.56975
 Alpha  occ. eigenvalues --   -0.56122  -0.55960  -0.55805  -0.55621  -0.55373
 Alpha  occ. eigenvalues --   -0.55178  -0.55165  -0.55028  -0.54402  -0.54197
 Alpha  occ. eigenvalues --   -0.53837  -0.53521  -0.53148  -0.53061  -0.52959
 Alpha  occ. eigenvalues --   -0.52862  -0.52812  -0.52593  -0.52561  -0.52402
 Alpha  occ. eigenvalues --   -0.52315  -0.52160  -0.51797  -0.51582  -0.51581
 Alpha  occ. eigenvalues --   -0.51244  -0.51122  -0.50856  -0.50400  -0.50221
 Alpha  occ. eigenvalues --   -0.49904  -0.49791  -0.49736  -0.49568  -0.49409
 Alpha  occ. eigenvalues --   -0.49161  -0.49121  -0.49035  -0.48861  -0.48749
 Alpha  occ. eigenvalues --   -0.48477  -0.48300  -0.48263  -0.48253  -0.48146
 Alpha  occ. eigenvalues --   -0.48103  -0.47518  -0.47352  -0.47040  -0.46958
 Alpha  occ. eigenvalues --   -0.46628  -0.46477  -0.46462  -0.46188  -0.46187
 Alpha  occ. eigenvalues --   -0.46015  -0.46001  -0.45828  -0.45741  -0.45484
 Alpha  occ. eigenvalues --   -0.45131  -0.44902  -0.44436  -0.44400  -0.44235
 Alpha  occ. eigenvalues --   -0.44172  -0.44055  -0.43996  -0.43863  -0.43822
 Alpha  occ. eigenvalues --   -0.43743  -0.43670  -0.43471  -0.43307  -0.43151
 Alpha  occ. eigenvalues --   -0.43040  -0.42846  -0.42817  -0.42687  -0.42472
 Alpha  occ. eigenvalues --   -0.42385  -0.42320  -0.41882  -0.41690  -0.41593
 Alpha  occ. eigenvalues --   -0.41381  -0.41358  -0.41177  -0.40916  -0.40802
 Alpha  occ. eigenvalues --   -0.40645  -0.40621  -0.40532  -0.40481  -0.40414
 Alpha  occ. eigenvalues --   -0.40260  -0.40149  -0.39832  -0.39340  -0.39171
 Alpha  occ. eigenvalues --   -0.38272  -0.38161  -0.37574  -0.37372  -0.37184
 Alpha  occ. eigenvalues --   -0.37118  -0.36996  -0.36885  -0.36670  -0.36355
 Alpha  occ. eigenvalues --   -0.36128  -0.35841  -0.34168  -0.33923  -0.33738
 Alpha  occ. eigenvalues --   -0.33367  -0.33089  -0.32822  -0.31196  -0.31016
 Alpha  occ. eigenvalues --   -0.30890  -0.30678  -0.29886  -0.29677  -0.29245
 Alpha  occ. eigenvalues --   -0.29127  -0.29082  -0.28957  -0.23952  -0.23714
 Alpha  occ. eigenvalues --   -0.21035  -0.20767
 Alpha virt. eigenvalues --   -0.08710  -0.08412  -0.01601  -0.01393   0.00050
 Alpha virt. eigenvalues --    0.00301   0.02287   0.02549   0.03346   0.03637
 Alpha virt. eigenvalues --    0.04808   0.05079   0.05274   0.05489   0.06259

 Mulliken charges:
               1
     1  Mg   0.841813
     2  C   -0.001712
     3  C   -0.092832
     4  C   -0.046463
     5  C   -0.064523
     6  N   -0.256668
     7  C   -0.051767
     8  C   -0.014543
     9  C   -0.087350
    10  C    0.047263
    11  C    0.105003
    12  C    0.053165
    13  C   -0.070991
    14  H    0.034637
    15  N   -0.432982
    16  C    0.169746
    17  C   -0.176148
    18  C   -0.003788
    19  C    0.149125
    20  C    0.110268
    21  C    0.012465
    22  O   -0.250874
    23  C    0.062012
    24  N   -0.341156
    25  C    0.041259
    26  C   -0.027950
    27  C   -0.023802
    28  C    0.074831
    29  C    0.076463
    30  C    0.035386
    31  C   -0.004473
    32  N   -0.310444
    33  C    0.080656
    34  C   -0.169946
    35  C    0.008115
    36  C    0.083722
    37  C    0.127311
    38  C    0.046444
    39  O   -0.189207
    40  C   -0.005649
    41  C    0.212220
    42  O   -0.254623
    43  O   -0.305365
    44  C    0.157920
    45  H   -0.018181
    46  H   -0.017788
    47  H   -0.042388
    48  H    0.000064
    49  H   -0.003860
    50  H    0.025017
    51  H    0.016051
    52  H    0.015931
    53  H    0.014096
    54  H    0.046042
    55  H    0.016620
    56  H    0.017829
    57  H    0.005753
    58  H    0.025673
    59  H    0.041309
    60  H    0.036807
    61  H    0.034502
    62  H    0.033453
    63  H    0.015746
    64  H    0.008855
    65  H    0.022390
    66  H    0.012501
    67  H    0.004204
    68  H    0.005307
    69  H    0.004435
    70  H    0.007726
    71  H    0.017120
    72  H    0.030638
    73  H    0.047442
    74  H    0.008509
    75  H    0.045261
    76  H    0.034312
    77  H    0.041792
    78  H    0.045910
    79  H    0.054344
    80  Mg   0.838446
    81  C   -0.016468
    82  C   -0.087840
    83  C   -0.045498
    84  C   -0.064917
    85  N   -0.254544
    86  C   -0.049803
    87  C   -0.015132
    88  C   -0.090509
    89  C    0.045840
    90  C    0.114478
    91  C    0.062486
    92  C   -0.077840
    93  H    0.035131
    94  N   -0.423432
    95  C    0.162997
    96  C   -0.174718
    97  C   -0.007832
    98  C    0.152140
    99  C    0.099441
   100  C    0.015604
   101  O   -0.253293
   102  C    0.061167
   103  N   -0.350106
   104  C    0.037481
   105  C   -0.019792
   106  C   -0.034857
   107  C    0.089016
   108  C    0.073739
   109  C    0.034721
   110  C   -0.007646
   111  N   -0.324191
   112  C    0.078701
   113  C   -0.162594
   114  C    0.002089
   115  C    0.096776
   116  C    0.131327
   117  C    0.043246
   118  O   -0.188824
   119  C    0.000633
   120  C    0.210869
   121  O   -0.248741
   122  O   -0.306355
   123  C    0.151874
   124  H   -0.019918
   125  H   -0.015696
   126  H   -0.040273
   127  H   -0.001101
   128  H   -0.004380
   129  H    0.022101
   130  H    0.014351
   131  H    0.015989
   132  H    0.014148
   133  H    0.038498
   134  H    0.020211
   135  H    0.019481
   136  H    0.008626
   137  H    0.025905
   138  H    0.039847
   139  H    0.038089
   140  H    0.036296
   141  H    0.034052
   142  H    0.014417
   143  H    0.012308
   144  H    0.025005
   145  H    0.011475
   146  H    0.005533
   147  H    0.006001
   148  H    0.003782
   149  H    0.010806
   150  H    0.017994
   151  H    0.030558
   152  H    0.046331
   153  H    0.009182
   154  H    0.046163
   155  H    0.034110
   156  H    0.042288
   157  H    0.049215
   158  H    0.055342
 Sum of Mulliken charges =  -0.00000

 Dipole moment (field-independent basis, Debye):
    X=             -2.1270    Y=              2.6100    Z=              4.7585  Tot=              5.8292
 Quadrupole moment (field-independent basis, Debye-Ang):
   XX=           -453.7185   YY=           -468.3063   ZZ=           -522.5727
   XY=            -28.7941   XZ=             13.6804   YZ=             30.0714

 Normal termination of Gaussian 16 at Sat Sep 11 09:57:24 2021.
