 Gaussian 16, Revision A.03,
 Gaussian 16:  ES64L-G16RevA.03 25-Dec-2016

 -----------------------------------
 #p cam-b3lyp/Def2SVP td=(nstates=5)
 -----------------------------------

 --------------------------------
 TDDFT excited states in gaussian
 --------------------------------
 Symbolic Z-matrix:
 Charge =  0 Multiplicity = 1

                         Standard orientation:
 ---------------------------------------------------------------------
 Center     Atomic      Atomic             Coordinates (Angstroms)
 Number     Number       Type             X           Y           Z
 ---------------------------------------------------------------------
      1         12           0        4.107473   -0.387554    0.775048
      2          6           0        4.435899    2.666452   -1.062722
      3          6           0        4.357303    1.473734    3.623952
      4          6           0        4.275989   -3.102856    2.404575
      5          6           0        5.014583   -2.067306   -2.140642
      6          7           0        4.359820    1.786308    1.108652
      7          6           0        4.412007    2.855789    0.320834
      8          6           0        4.362642    4.202316    1.103011
      9          6           0        4.910014    3.695193    2.511985
     10          6           0        4.486865    2.239280    2.427213
     11          6           0        6.429063    3.758880    2.634205
     12          6           0        2.907154    4.766933    1.223399
     13          6           0        2.807716    6.225020    1.681056
     14          1           0        1.754751    7.062643    1.126980
     15          7           0        3.806577   -0.751281    2.693384
     16          6           0        3.938134    0.128781    3.714888
     17          6           0        3.605144   -0.621623    4.944803
     18          6           0        3.453951   -2.056490    4.575492
     19          6           0        3.870571   -2.031251    3.196664
     20          6           0        3.415801    0.029822    6.280288
     21          6           0        3.015220   -3.261270    5.346306
     22          8           0        3.177371   -4.449112    4.902109
     23          6           0        2.463913   -3.015769    6.691234
     24          7           0        4.788652   -2.298625    0.283683
     25          6           0        4.695358   -3.309535    1.154511
     26          6           0        4.977568   -4.626590    0.494465
     27          6           0        5.046418   -4.329763   -1.072988
     28          6           0        4.862121   -2.792723   -1.030420
     29          6           0        6.265644   -5.334507    0.936871
     30          6           0        4.110979   -5.159735   -1.987602
     31          6           0        2.669660   -4.788105   -1.720040
     32          7           0        4.464515    0.151592   -1.296881
     33          6           0        4.853964   -0.705737   -2.336106
     34          6           0        5.076813    0.133432   -3.527828
     35          6           0        4.815874    1.431010   -3.091885
     36          6           0        4.478520    1.407025   -1.708444
     37          6           0        5.526042   -0.324938   -4.797680
     38          6           0        4.767532    2.834909   -3.466834
     39          8           0        4.866284    3.452990   -4.527833
     40          6           0        4.638358    3.704064   -2.138786
     41          6           0        3.542788    4.711201   -2.359493
     42          8           0        2.355596    4.347779   -2.485457
     43          8           0        4.025390    5.945838   -2.151383
     44          6           0        2.981552    6.990970   -2.325324
     45          1           0        4.659346    1.921940    4.572542
     46          1           0        4.240841   -4.075028    2.900644
     47          1           0        5.217045   -2.530949   -3.107853
     48          1           0        5.015363    4.981268    0.708532
     49          1           0        4.408297    4.187762    3.344678
     50          1           0        6.894521    4.021414    1.684286
     51          1           0        6.738007    2.761170    2.946647
     52          1           0        6.724973    4.430436    3.440571
     53          1           0        2.399037    4.276767    2.053829
     54          1           0        2.367656    4.646546    0.283306
     55          1           0        3.771856    6.730021    1.615354
     56          1           0        2.569322    6.233643    2.744679
     57          1           0        3.754442    1.065103    6.272495
     58          1           0        4.088125   -0.470649    6.976863
     59          1           0        2.388793   -0.054251    6.635982
     60          1           0        3.211894   -2.506579    7.299345
     61          1           0        2.121173   -3.983070    7.056896
     62          1           0        1.619426   -2.331143    6.607101
     63          1           0        4.177872   -5.340334    0.688066
     64          1           0        6.042245   -4.507698   -1.479610
     65          1           0        6.101678   -6.340706    1.323373
     66          1           0        6.757873   -4.706083    1.678549
     67          1           0        7.034971   -5.405971    0.168467
     68          1           0        4.213784   -6.222433   -1.770692
     69          1           0        4.310287   -5.017252   -3.049782
     70          1           0        2.416487   -5.401462   -0.856021
     71          1           0        2.045496   -5.044014   -2.576860
     72          1           0        2.577126   -3.744866   -1.417423
     73          1           0        4.913659    0.186053   -5.540542
     74          1           0        5.432412   -1.407260   -4.883797
     75          1           0        6.564914    0.003834   -4.775092
     76          1           0        5.605712    4.179621   -1.980061
     77          1           0        3.353036    7.694808   -3.070204
     78          1           0        2.760832    7.377144   -1.330056
     79          1           0        2.050307    6.669066   -2.792763
     80         12           0       -3.681862   -0.915848   -0.623406
     81          6           0       -6.389345    1.288485    0.206974
     82          6           0       -1.888015    1.854356   -1.485176
     83          6           0       -1.447306   -2.845962   -1.784805
     84          6           0       -6.017950   -3.496575   -0.791442
     85          7           0       -4.182720    1.238387   -0.597608
     86          6           0       -5.220044    1.961788   -0.203900
     87          6           0       -4.963634    3.492512   -0.177092
     88          6           0       -3.769346    3.555077   -1.248835
     89          6           0       -3.216524    2.141185   -1.081591
     90          6           0       -4.253333    3.712405   -2.680745
     91          6           0       -4.496298    3.995669    1.233734
     92          6           0       -4.525389    5.514670    1.416862
     93          1           0       -4.882489    6.051041    2.727304
     94          7           0       -1.773546   -0.566248   -1.041300
     95          6           0       -1.211873    0.622312   -1.346485
     96          6           0        0.211974    0.343769   -1.589895
     97          6           0        0.412461   -1.130637   -1.564877
     98          6           0       -0.962033   -1.582194   -1.481544
     99          6           0        1.239614    1.428050   -1.737230
    100          6           0        1.637651   -1.991998   -1.621191
    101          8           0        1.563852   -3.255215   -1.825309
    102          6           0        2.930905   -1.299568   -1.523606
    103          7           0       -3.750059   -2.838650   -1.411139
    104          6           0       -2.625945   -3.468881   -1.794684
    105          6           0       -2.886318   -4.931170   -2.067272
    106          6           0       -4.375068   -5.205860   -1.551784
    107          6           0       -4.766822   -3.771557   -1.133799
    108          6           0       -2.764844   -5.367647   -3.527105
    109          6           0       -4.562710   -6.353213   -0.521711
    110          6           0       -3.905892   -5.982968    0.788590
    111          7           0       -5.782035   -1.144655   -0.170646
    112          6           0       -6.569365   -2.304809   -0.338643
    113          6           0       -7.960888   -1.938900   -0.003652
    114          6           0       -7.889868   -0.574692    0.316333
    115          6           0       -6.552280   -0.117515    0.170194
    116          6           0       -9.087390   -2.806753   -0.066509
    117          6           0       -8.644169    0.585086    0.734227
    118          8           0       -9.803768    0.783649    1.094281
    119          6           0       -7.728957    1.872863    0.559898
    120          6           0       -7.827934    2.687183    1.820696
    121          8           0       -7.389981    2.242464    2.896354
    122          8           0       -8.222518    3.935261    1.509309
    123          6           0       -8.324701    4.784309    2.726069
    124          1           0       -1.321004    2.633656   -1.995160
    125          1           0       -0.695859   -3.580263   -2.084123
    126          1           0       -6.787935   -4.268164   -0.724660
    127          1           0       -5.796583    4.098566   -0.512769
    128          1           0       -3.022692    4.292398   -0.965604
    129          1           0       -5.328146    3.637260   -2.753280
    130          1           0       -3.779781    2.916466   -3.240447
    131          1           0       -3.874969    4.646367   -3.106064
    132          1           0       -3.419000    3.814225    1.339807
    133          1           0       -5.064994    3.526785    2.013069
    134          1           0       -5.100298    6.014063    0.627541
    135          1           0       -3.509952    5.898676    1.292636
    136          1           0        0.771043    2.410144   -1.876327
    137          1           0        1.767030    1.242868   -2.679258
    138          1           0        1.965352    1.434260   -0.921184
    139          1           0        3.013436   -0.573460   -2.328854
    140          1           0        3.683785   -2.089565   -1.492935
    141          1           0        2.954765   -0.733489   -0.585728
    142          1           0       -2.200254   -5.556674   -1.509440
    143          1           0       -5.046371   -5.487285   -2.376395
    144          1           0       -2.032722   -6.183041   -3.679401
    145          1           0       -2.499984   -4.502956   -4.120997
    146          1           0       -3.695014   -5.690713   -3.991454
    147          1           0       -4.066311   -7.261541   -0.871967
    148          1           0       -5.602296   -6.604216   -0.339353
    149          1           0       -2.858253   -6.252320    0.624267
    150          1           0       -4.336591   -6.554833    1.608042
    151          1           0       -3.945468   -4.900445    0.956618
    152          1           0       -9.669052   -2.627140    0.827870
    153          1           0       -8.782938   -3.848632   -0.141132
    154          1           0       -9.557644   -2.449601   -0.986600
    155          1           0       -8.094756    2.419385   -0.310211
    156          1           0       -9.340712    5.190433    2.747851
    157          1           0       -7.493361    5.510572    2.654258
    158          1           0       -8.274292    4.288886    3.688601
 ---------------------------------------------------------------------

 SCF Done:  E(RCAM-B3LYP) =  -4069.42705864     A.U. after   21 cycles

 Excitation energies and oscillator strengths:

 Excited State   1:      Singlet-A      1.2170 eV 1018.74 nm  f=0.0214  <S**2>=0.000
     310 -> 313        0.10184
     311 -> 313        0.40430
     312 -> 313        0.53128
 This state for optimization and/or second-order correction.
 Total Energy, E(TD-HF/TD-DFT) =  -4069.38233341
 Copying the excited state density for this state as the 1-particle RhoCI density.

 Excited State   2:      Singlet-A      1.3672 eV  906.83 nm  f=0.1341  <S**2>=0.000
     310 -> 314        0.11296
     311 -> 313        0.13661
     311 -> 314        0.19029
     311 -> 316       -0.13590
     311 -> 318       -0.15683
     312 -> 313        0.13237
     312 -> 314        0.52645
     312 -> 316       -0.16747
     312 -> 318       -0.16596

 Excited State   3:      Singlet-A      1.5422 eV  803.93 nm  f=0.2071  <S**2>=0.000
     308 -> 315        0.14601
     310 -> 313        0.60497
     311 -> 313       -0.21031
     311 -> 314        0.18704
     312 -> 313        0.10240

 Excited State   4:      Singlet-A      1.6904 eV  733.46 nm  f=0.3983  <S**2>=0.000
     309 -> 316       -0.12939
     310 -> 313       -0.19560
     310 -> 314        0.12478
     311 -> 314        0.52295
     312 -> 314       -0.34650

 Excited State   5:      Singlet-A      1.8913 eV  655.54 nm  f=0.0415  <S**2>=0.000
     308 -> 313        0.40481
     310 -> 313        0.12061
     310 -> 315       -0.13219
     311 -> 313        0.41305
     312 -> 313       -0.32691

 The electronic state is 1-A.
 Alpha  occ. eigenvalues --  -46.88847 -46.87241 -19.27286 -19.26141 -19.20281
 Alpha  occ. eigenvalues --  -19.19544 -19.18927 -19.18671 -19.17929 -19.17644
 Alpha  occ. eigenvalues --  -14.43122 -14.42067 -14.41750 -14.40940 -14.40221
 Alpha  occ. eigenvalues --  -14.38946 -14.38169 -14.38139 -10.40202 -10.38846
 Alpha  occ. eigenvalues --  -10.36145 -10.34950 -10.34552 -10.33836 -10.32560
 Alpha  occ. eigenvalues --  -10.32553 -10.31820 -10.31613 -10.31580 -10.31529
 Alpha  occ. eigenvalues --  -10.30872 -10.30758 -10.30707 -10.30539 -10.30049
 Alpha  occ. eigenvalues --  -10.29863 -10.29855 -10.29674 -10.29626 -10.29483
 Alpha  occ. eigenvalues --  -10.29247 -10.29199 -10.28910 -10.28907 -10.28823
 Alpha  occ. eigenvalues --  -10.28684 -10.28659 -10.28520 -10.28460 -10.28423
 Alpha  occ. eigenvalues --  -10.28360 -10.28222 -10.27924 -10.27913 -10.27869
 Alpha  occ. eigenvalues --  -10.27718 -10.27489 -10.27486 -10.27202 -10.27125
 Alpha  occ. eigenvalues --  -10.27088 -10.27066 -10.26923 -10.26914 -10.26909
 Alpha  occ. eigenvalues --  -10.26766 -10.26702 -10.26455 -10.26387 -10.26261
 Alpha  occ. eigenvalues --  -10.26228 -10.25852 -10.25583 -10.25553 -10.25485
 Alpha  occ. eigenvalues --  -10.25473 -10.25399 -10.25385 -10.25204 -10.25106
 Alpha  occ. eigenvalues --  -10.24449 -10.24422 -10.24398 -10.22889 -10.22593
 Alpha  occ. eigenvalues --  -10.17305  -3.17724  -3.15994  -1.92641  -1.92152
 Alpha  occ. eigenvalues --   -1.92042  -1.90877  -1.90464  -1.90301  -1.17663
 Alpha  occ. eigenvalues --   -1.16428  -1.10905  -1.09210  -1.08278  -1.07907
 Alpha  occ. eigenvalues --   -1.07814  -1.06707  -1.05689  -1.04779  -1.04535
 Alpha  occ. eigenvalues --   -1.04078  -1.03306  -1.03276  -1.02625  -1.01676
 Alpha  occ. eigenvalues --   -0.94124  -0.91570  -0.90950  -0.90010  -0.89132
 Alpha  occ. eigenvalues --   -0.89102  -0.88772  -0.88588  -0.88148  -0.87910
 Alpha  occ. eigenvalues --   -0.87581  -0.87363  -0.87227  -0.86529  -0.85949
 Alpha  occ. eigenvalues --   -0.84737  -0.84412  -0.83563  -0.83464  -0.82685
 Alpha  occ. eigenvalues --   -0.82498  -0.82388  -0.81438  -0.81227  -0.80912
 Alpha  occ. eigenvalues --   -0.80039  -0.79566  -0.78293  -0.77800  -0.77458
 Alpha  occ. eigenvalues --   -0.76742  -0.76579  -0.76541  -0.75452  -0.74900
 Alpha  occ. eigenvalues --   -0.74390  -0.73656  -0.72431  -0.72224  -0.71199
 Alpha  occ. eigenvalues --   -0.70741  -0.69716  -0.69409  -0.68885  -0.68224
 Alpha  occ. eigenvalues --   -0.68010  -0.67183  -0.66748  -0.66119  -0.65824
 Alpha  occ. eigenvalues --   -0.65386  -0.65083  -0.64798  -0.64381  -0.64161
 Alpha  occ. eigenvalues --   -0.63820  -0.63187  -0.61959  -0.61301  -0.60891
 Alpha  occ. eigenvalues --   -0.60285  -0.59628  -0.59405  -0.59311  -0.58654
 Alpha  occ. eigenvalues --   -0.58386  -0.58080  -0.57983  -0.57658  -0.57212
 Alpha  occ. eigenvalues --   -0.57090  -0.56919  -0.56663  -0.56209  -0.55892
 Alpha  occ. eigenvalues --   -0.55714  -0.55506  -0.55230  -0.54966  -0.54826
 Alpha  occ. eigenvalues --   -0.54485  -0.54329  -0.54180  -0.54068  -0.53843
 Alpha  occ. eigenvalues --   -0.53611  -0.53508  -0.53420  -0.52827  -0.52673
 Alpha  occ. eigenvalues --   -0.52601  -0.52388  -0.52334  -0.52093  -0.51652
 Alpha  occ. eigenvalues --   -0.51483  -0.51363  -0.51173  -0.50994  -0.50816
 Alpha  occ. eigenvalues --   -0.50571  -0.50362  -0.50180  -0.49886  -0.49679
 Alpha  occ. eigenvalues --   -0.49525  -0.49477  -0.49256  -0.49081  -0.48912
 Alpha  occ. eigenvalues --   -0.48854  -0.48741  -0.48646  -0.48271  -0.48176
 Alpha  occ. eigenvalues --   -0.48086  -0.47984  -0.47627  -0.47198  -0.47061
 Alpha  occ. eigenvalues --   -0.46898  -0.46788  -0.46652  -0.46411  -0.46271
 Alpha  occ. eigenvalues --   -0.46222  -0.45894  -0.45713  -0.45572  -0.45444
 Alpha  occ. eigenvalues --   -0.45304  -0.45080  -0.44859  -0.44839  -0.44758
 Alpha  occ. eigenvalues --   -0.44631  -0.44373  -0.44150  -0.44107  -0.44060
 Alpha  occ. eigenvalues --   -0.43995  -0.43756  -0.43681  -0.43640  -0.43512
 Alpha  occ. eigenvalues --   -0.43243  -0.43196  -0.42966  -0.42612  -0.42491
 Alpha  occ. eigenvalues --   -0.42289  -0.42195  -0.41810  -0.41733  -0.41609
 Alpha  occ. eigenvalues --   -0.41508  -0.41327  -0.41225  -0.41169  -0.41084
 Alpha  occ. eigenvalues --   -0.41004  -0.40624  -0.40550  -0.40364  -0.40159
 Alpha  occ. eigenvalues --   -0.40076  -0.39146  -0.39094  -0.38630  -0.38449
 Alpha  occ. eigenvalues --   -0.38061  -0.38010  -0.37592  -0.37438  -0.37282
 Alpha  occ. eigenvalues --   -0.36936  -0.36864  -0.36531  -0.36061  -0.35977
 Alpha  occ. eigenvalues --   -0.35709  -0.35127  -0.34849  -0.33871  -0.33698
 Alpha  occ. eigenvalues --   -0.33603  -0.32784  -0.32011  -0.31742  -0.30604
 Alpha  occ. eigenvalues --   -0.30540  -0.30338  -0.29638  -0.29568  -0.29034
 Alpha  occ. eigenvalues --   -0.28802  -0.28768  -0.24199  -0.23641  -0.22057
 Alpha  occ. eigenvalues --   -0.21005  -0.20272
 Alpha virt. eigenvalues --   -0.09799  -0.08373  -0.02992  -0.01545  -0.00851
 Alpha virt. eigenvalues --   -0.00138   0.01036   0.02434   0.02914   0.03542
 Alpha virt. eigenvalues --    0.04012   0.04321   0.05087   0.05387   0.05456

 Mulliken charges:
               1
     1  Mg   0.722995
     2  C   -0.008251
     3  C   -0.098345
     4  C   -0.049353
     5  C    0.077188
     6  N   -0.255727
     7  C   -0.055947
     8  C   -0.014242
     9  C   -0.088062
    10  C    0.057746
    11  C    0.104519
    12  C    0.052654
    13  C   -0.072418
    14  H    0.035119
    15  N   -0.427323
    16  C    0.179828
    17  C   -0.175630
    18  C    0.000998
    19  C    0.155897
    20  C    0.109386
    21  C    0.015721
    22  O   -0.242284
    23  C    0.061129
    24  N   -0.326839
    25  C    0.061998
    26  C   -0.026361
    27  C    0.026604
    28  C    0.079523
    29  C    0.078491
    30  C    0.078954
    31  C   -0.019759
    32  N   -0.372650
    33  C   -0.035668
    34  C   -0.135769
    35  C    0.011829
    36  C    0.060029
    37  C    0.129606
    38  C    0.032499
    39  O   -0.187131
    40  C   -0.004784
    41  C    0.221461
    42  O   -0.258416
    43  O   -0.302025
    44  C    0.156394
    45  H   -0.016247
    46  H   -0.011118
    47  H   -0.038873
    48  H    0.001738
    49  H   -0.002034
    50  H    0.027899
    51  H    0.018414
    52  H    0.019008
    53  H    0.012555
    54  H    0.040396
    55  H    0.019595
    56  H    0.020063
    57  H    0.008382
    58  H    0.030553
    59  H    0.044521
    60  H    0.038040
    61  H    0.039601
    62  H    0.033889
    63  H    0.023626
    64  H   -0.000294
    65  H    0.023382
    66  H    0.006412
    67  H    0.006915
    68  H   -0.026575
    69  H   -0.019285
    70  H   -0.037791
    71  H   -0.017043
    72  H    0.029846
    73  H    0.043965
    74  H    0.012126
    75  H    0.047373
    76  H    0.036871
    77  H    0.046320
    78  H    0.048159
    79  H    0.051558
    80  Mg   0.835588
    81  C   -0.016843
    82  C   -0.090106
    83  C   -0.052831
    84  C   -0.065491
    85  N   -0.254217
    86  C   -0.051720
    87  C   -0.014871
    88  C   -0.089398
    89  C    0.043980
    90  C    0.114454
    91  C    0.062925
    92  C   -0.076499
    93  H    0.031616
    94  N   -0.423293
    95  C    0.157067
    96  C   -0.189693
    97  C    0.045100
    98  C    0.150131
    99  C    0.113953
   100  C    0.071512
   101  O   -0.173215
   102  C    0.114685
   103  N   -0.350441
   104  C    0.036692
   105  C   -0.020009
   106  C   -0.034141
   107  C    0.088311
   108  C    0.073216
   109  C    0.035072
   110  C   -0.007497
   111  N   -0.323544
   112  C    0.076507
   113  C   -0.164875
   114  C    0.001655
   115  C    0.094591
   116  C    0.131848
   117  C    0.041079
   118  O   -0.190490
   119  C    0.001186
   120  C    0.211065
   121  O   -0.252236
   122  O   -0.305428
   123  C    0.152526
   124  H   -0.007495
   125  H   -0.016719
   126  H   -0.042033
   127  H   -0.001695
   128  H   -0.003503
   129  H    0.021154
   130  H    0.016208
   131  H    0.016692
   132  H    0.012936
   133  H    0.036514
   134  H    0.020954
   135  H    0.018288
   136  H    0.021329
   137  H    0.029544
   138  H    0.055707
   139  H    0.069622
   140  H   -0.113889
   141  H    0.002836
   142  H    0.013861
   143  H    0.011617
   144  H    0.023877
   145  H    0.011447
   146  H    0.005882
   147  H    0.005304
   148  H    0.003120
   149  H    0.011124
   150  H    0.017109
   151  H    0.030219
   152  H    0.044379
   153  H    0.007371
   154  H    0.045715
   155  H    0.034369
   156  H    0.043288
   157  H    0.048852
   158  H    0.052569
 Sum of Mulliken charges =  -0.00000

 Dipole moment (field-independent basis, Debye):
    X=              5.0034    Y=              4.3115    Z=              3.2232  Tot=              7.3493
 Quadrupole moment (field-independent basis, Debye-Ang):
   XX=           -555.8493   YY=           -474.5206   ZZ=           -505.5760
   XY=             15.2524   XZ=             40.0873   YZ=             30.3572

 Normal termination of Gaussian 16 at Wed Sep  8 14:27:09 2021.
