 Gaussian 16, Revision A.03,
 Gaussian 16:  ES64L-G16RevA.03 25-Dec-2016

 -----------------------------------
 #p cam-b3lyp/Def2SVP td=(nstates=5)
 -----------------------------------

 --------------------------------
 TDDFT excited states in gaussian
 --------------------------------
 Symbolic Z-matrix:
 Charge =  0 Multiplicity = 1

                         Standard orientation:
 ---------------------------------------------------------------------
 Center     Atomic      Atomic             Coordinates (Angstroms)
 Number     Number       Type             X           Y           Z
 ---------------------------------------------------------------------
      1         12           0        3.483766   -1.777368    0.075192
      2          6           0        4.820349    0.914487   -1.868947
      3          6           0        5.307185   -0.587939    2.702637
      4          6           0        2.678520   -4.392902    1.677435
      5          6           0        2.699021   -3.361384   -2.928261
      6          7           0        4.850806   -0.046947    0.268814
      7          6           0        5.231293    0.941617   -0.534393
      8          6           0        6.046763    2.050991    0.194766
      9          6           0        6.595998    1.194147    1.422023
     10          6           0        5.502222    0.143199    1.493327
     11          6           0        7.924537    0.501743    1.135555
     12          6           0        5.141147    3.232334    0.680584
     13          6           0        5.890923    4.497753    1.107087
     14          1           0        5.291744    5.794180    0.828502
     15          7           0        3.520421   -2.154262    2.014124
     16          6           0        4.314438   -1.563334    2.939125
     17          6           0        3.965270   -2.186515    4.233886
     18          6           0        3.039426   -3.320073    3.958289
     19          6           0        3.063394   -3.351231    2.518208
     20          6           0        4.455034   -1.672789    5.552964
     21          6           0        2.265404   -4.237412    4.851324
     22          8           0        1.704891   -5.299855    4.413586
     23          6           0        2.254723   -3.902293    6.286811
     24          7           0        2.987034   -3.713965   -0.525213
     25          6           0        2.621458   -4.640705    0.367250
     26          6           0        2.044581   -5.850219   -0.306715
     27          6           0        1.866779   -5.456987   -1.844086
     28          6           0        2.483640   -4.037278   -1.797400
     29          6           0        2.876834   -7.135651   -0.201700
     30          6           0        0.452961   -5.627169   -2.454475
     31          6           0       -0.500415   -4.636156   -1.825137
     32          7           0        3.543277   -1.258715   -2.031583
     33          6           0        3.190827   -2.079934   -3.112348
     34          6           0        3.501326   -1.330495   -4.343607
     35          6           0        4.031690   -0.124069   -3.890732
     36          6           0        4.075594   -0.130650   -2.467243
     37          6           0        3.339861   -1.809243   -5.673706
     38          6           0        4.594351    1.159172   -4.278754
     39          8           0        4.723833    1.762503   -5.344924
     40          6           0        5.240179    1.833720   -2.988901
     41          6           0        4.770555    3.262123   -2.939641
     42          8           0        3.569701    3.534085   -2.736290
     43          8           0        5.834546    4.078835   -2.901602
     44          6           0        5.438272    5.510195   -2.822040
     45          1           0        6.012057   -0.446743    3.524318
     46          1           0        2.289266   -5.273779    2.192192
     47          1           0        2.402853   -3.757951   -3.901129
     48          1           0        6.880413    2.454450   -0.380275
     49          1           0        6.624036    1.775029    2.343712
     50          1           0        8.211157    0.606939    0.089274
     51          1           0        7.764949   -0.547952    1.382870
     52          1           0        8.700098    0.855225    1.815505
     53          1           0        4.677225    2.962890    1.629392
     54          1           0        4.402394    3.489816   -0.079202
     55          1           0        6.929009    4.477265    0.774121
     56          1           0        5.955559    4.506062    2.195183
     57          1           0        5.247701   -0.936399    5.426648
     58          1           0        4.938159   -2.507612    6.060280
     59          1           0        3.643379   -1.287463    6.170274
     60          1           0        3.278788   -3.887127    6.660455
     61          1           0        1.579488   -4.616162    6.757236
     62          1           0        1.868335   -2.890158    6.410240
     63          1           0        1.071609   -6.104342    0.111820
     64          1           0        2.510418   -6.049350   -2.494861
     65          1           0        2.336579   -7.972002    0.242538
     66          1           0        3.779071   -6.907610    0.365096
     67          1           0        3.295998   -7.487064   -1.144158
     68          1           0        0.065976   -6.623352   -2.242795
     69          1           0        0.430809   -5.485472   -3.535068
     70          1           0       -0.804396   -5.139511   -0.908043
     71          1           0       -1.356533   -4.464417   -2.478420
     72          1           0        0.012144   -3.717754   -1.538245
     73          1           0        2.900663   -0.989286   -6.241813
     74          1           0        2.705436   -2.694870   -5.701500
     75          1           0        4.374646   -2.028455   -5.936425
     76          1           0        6.321085    1.761948   -3.105578
     77          1           0        5.914744    6.022113   -3.658192
     78          1           0        5.687731    5.845277   -1.815117
     79          1           0        4.388242    5.731200   -3.016801
     80         12           0       -3.631250    1.684167    0.793347
     81          6           0       -4.903875   -0.978724   -1.248339
     82          6           0       -2.291942    3.019843   -2.045117
     83          6           0       -2.120693    3.794954    2.618236
     84          6           0       -4.067931   -0.405606    3.547947
     85          7           0       -3.662661    1.014780   -1.314542
     86          6           0       -4.229577    0.020334   -1.980904
     87          6           0       -4.133324    0.143640   -3.525273
     88          6           0       -2.835682    1.085800   -3.610868
     89          6           0       -2.948612    1.781075   -2.255683
     90          6           0       -1.529506    0.309741   -3.642152
     91          6           0       -5.392442    0.842135   -4.148758
     92          6           0       -5.508639    0.719683   -5.669696
     93          1           0       -6.838968    0.590800   -6.257990
     94          7           0       -2.811623    3.430612    0.327780
     95          6           0       -2.343175    3.813901   -0.878418
     96          6           0       -1.822917    5.177423   -0.693216
     97          6           0       -1.872601    5.505423    0.757532
     98          6           0       -2.259273    4.220639    1.305163
     99          6           0       -1.416896    6.056240   -1.840493
    100          6           0       -1.602717    6.763457    1.526101
    101          8           0       -1.475746    6.759187    2.801522
    102          6           0       -1.398776    7.984870    0.733615
    103          7           0       -2.962644    1.623998    2.761006
    104          6           0       -2.383456    2.697117    3.327466
    105          6           0       -2.237238    2.514189    4.819298
    106          6           0       -3.061898    1.190318    5.172672
    107          6           0       -3.486580    0.769069    3.748736
    108          6           0       -0.805209    2.374318    5.335164
    109          6           0       -4.159383    1.315301    6.264734
    110          6           0       -5.287014    2.189711    5.765514
    111          7           0       -4.519214   -0.252753    1.150950
    112          6           0       -4.570705   -0.954576    2.375238
    113          6           0       -5.169811   -2.275538    2.094967
    114          6           0       -5.406020   -2.259216    0.712056
    115          6           0       -4.965363   -1.023666    0.165500
    116          6           0       -5.381101   -3.312115    3.047329
    117          6           0       -5.918181   -3.010394   -0.411387
    118          8           0       -6.501301   -4.085608   -0.544120
    119          6           0       -5.499863   -2.264290   -1.751056
    120          6           0       -6.715611   -2.175482   -2.632306
    121          8           0       -7.696192   -1.491745   -2.289429
    122          8           0       -6.436528   -2.731324   -3.825420
    123          6           0       -7.608336   -2.657585   -4.738258
    124          1           0       -1.640784    3.402169   -2.831698
    125          1           0       -1.705737    4.530652    3.311090
    126          1           0       -4.327674   -1.076453    4.369636
    127          1           0       -3.950414   -0.789239   -4.044941
    128          1           0       -2.924378    1.807849   -4.418428
    129          1           0       -1.684716   -0.746851   -3.481996
    130          1           0       -0.920463    0.726888   -2.850891
    131          1           0       -0.993165    0.511862   -4.573722
    132          1           0       -5.281115    1.930119   -4.055822
    133          1           0       -6.293117    0.485978   -3.687705
    134          1           0       -4.833768   -0.044293   -6.074473
    135          1           0       -5.159453    1.651784   -6.120567
    136          1           0       -1.333575    5.486155   -2.774021
    137          1           0       -0.395417    6.395643   -1.637402
    138          1           0       -2.063732    6.929088   -1.951923
    139          1           0       -0.561865    7.839349    0.054748
    140          1           0       -1.308532    8.793698    1.461309
    141          1           0       -2.284732    8.149445    0.110238
    142          1           0       -2.668557    3.350531    5.355582
    143          1           0       -2.407882    0.392611    5.554446
    144          1           0       -0.541616    3.127986    6.101047
    145          1           0       -0.130796    2.437535    4.491535
    146          1           0       -0.558790    1.400768    5.755489
    147          1           0       -3.755377    1.806913    7.153132
    148          1           0       -4.564351    0.359948    6.581434
    149          1           0       -4.921560    3.201521    5.964960
    150          1           0       -6.202969    1.985185    6.316186
    151          1           0       -5.410396    2.091674    4.680702
    152          1           0       -6.367513   -3.713611    2.856816
    153          1           0       -5.292285   -2.940294    4.065961
    154          1           0       -4.563204   -3.988247    2.784368
    155          1           0       -4.700594   -2.844756   -2.213439
    156          1           0       -7.821737   -3.679261   -5.067367
    157          1           0       -7.333010   -1.923985   -5.519150
    158          1           0       -8.560961   -2.370414   -4.308735
 ---------------------------------------------------------------------

 SCF Done:  E(RCAM-B3LYP) =  -4069.81300031     A.U. after   19 cycles

 Excitation energies and oscillator strengths:

 Excited State   1:      Singlet-A      1.6568 eV  748.32 nm  f=0.2046  <S**2>=0.000
     309 -> 315        0.11612
     310 -> 316        0.12152
     311 -> 313        0.46963
     312 -> 314        0.50080
 This state for optimization and/or second-order correction.
 Total Energy, E(TD-HF/TD-DFT) =  -4069.75211258
 Copying the excited state density for this state as the 1-particle RhoCI density.

 Excited State   2:      Singlet-A      1.6871 eV  734.88 nm  f=0.4433  <S**2>=0.000
     309 -> 315        0.12912
     310 -> 316       -0.12039
     311 -> 313        0.49938
     312 -> 314       -0.46869

 Excited State   3:      Singlet-A      2.1858 eV  567.24 nm  f=0.0770  <S**2>=0.000
     309 -> 313        0.22852
     310 -> 314        0.60080
     312 -> 316       -0.25329

 Excited State   4:      Singlet-A      2.1923 eV  565.55 nm  f=0.1163  <S**2>=0.000
     309 -> 313        0.59907
     310 -> 314       -0.22642
     311 -> 315       -0.25942

 Excited State   5:      Singlet-A      2.2170 eV  559.24 nm  f=0.0000  <S**2>=0.000
     312 -> 313        0.70702

 The electronic state is 1-A.
 Alpha  occ. eigenvalues --  -46.87951 -46.87383 -19.26619 -19.26186 -19.19388
 Alpha  occ. eigenvalues --  -19.18975 -19.18968 -19.18496 -19.18423 -19.17809
 Alpha  occ. eigenvalues --  -14.42601 -14.42191 -14.41593 -14.41102 -14.39557
 Alpha  occ. eigenvalues --  -14.39064 -14.38767 -14.38325 -10.39427 -10.38903
 Alpha  occ. eigenvalues --  -10.35600 -10.35175 -10.34644 -10.33991 -10.32029
 Alpha  occ. eigenvalues --  -10.31614 -10.31577 -10.31060 -10.30966 -10.30754
 Alpha  occ. eigenvalues --  -10.30703 -10.30679 -10.30329 -10.30149 -10.30071
 Alpha  occ. eigenvalues --  -10.30049 -10.29881 -10.29815 -10.29687 -10.29412
 Alpha  occ. eigenvalues --  -10.29129 -10.29124 -10.28886 -10.28632 -10.28543
 Alpha  occ. eigenvalues --  -10.28387 -10.28379 -10.28251 -10.28107 -10.27984
 Alpha  occ. eigenvalues --  -10.27879 -10.27760 -10.27706 -10.27698 -10.27631
 Alpha  occ. eigenvalues --  -10.27578 -10.27576 -10.27521 -10.27406 -10.27396
 Alpha  occ. eigenvalues --  -10.27286 -10.27278 -10.27208 -10.27176 -10.26981
 Alpha  occ. eigenvalues --  -10.26836 -10.26817 -10.26572 -10.26398 -10.26361
 Alpha  occ. eigenvalues --  -10.26215 -10.26209 -10.26172 -10.26098 -10.26042
 Alpha  occ. eigenvalues --  -10.25667 -10.25570 -10.25489 -10.25435 -10.25430
 Alpha  occ. eigenvalues --  -10.25038 -10.24934 -10.24717 -10.24625 -10.24583
 Alpha  occ. eigenvalues --  -10.24447  -3.16693  -3.16134  -1.91574  -1.91160
 Alpha  occ. eigenvalues --   -1.91017  -1.91004  -1.90605  -1.90441  -1.16970
 Alpha  occ. eigenvalues --   -1.16473  -1.08895  -1.08427  -1.07366  -1.07001
 Alpha  occ. eigenvalues --   -1.06760  -1.06754  -1.04738  -1.04187  -1.03907
 Alpha  occ. eigenvalues --   -1.03400  -1.03385  -1.02776  -1.02573  -1.01838
 Alpha  occ. eigenvalues --   -0.92168  -0.91716  -0.89641  -0.89324  -0.89289
 Alpha  occ. eigenvalues --   -0.88777  -0.88392  -0.88078  -0.88055  -0.87820
 Alpha  occ. eigenvalues --   -0.87507  -0.87438  -0.87370  -0.86805  -0.85125
 Alpha  occ. eigenvalues --   -0.84679  -0.84049  -0.83738  -0.83110  -0.82809
 Alpha  occ. eigenvalues --   -0.82690  -0.82355  -0.81816  -0.81364  -0.80786
 Alpha  occ. eigenvalues --   -0.80186  -0.78970  -0.78319  -0.77362  -0.77098
 Alpha  occ. eigenvalues --   -0.76869  -0.76633  -0.76106  -0.75516  -0.75021
 Alpha  occ. eigenvalues --   -0.74633  -0.72942  -0.72411  -0.71825  -0.71312
 Alpha  occ. eigenvalues --   -0.69986  -0.69608  -0.69026  -0.68517  -0.67815
 Alpha  occ. eigenvalues --   -0.67359  -0.67344  -0.66916  -0.65444  -0.65044
 Alpha  occ. eigenvalues --   -0.64971  -0.64780  -0.64510  -0.64395  -0.64390
 Alpha  occ. eigenvalues --   -0.64001  -0.62542  -0.62066  -0.60592  -0.60077
 Alpha  occ. eigenvalues --   -0.59957  -0.59457  -0.59153  -0.58732  -0.58681
 Alpha  occ. eigenvalues --   -0.58173  -0.57840  -0.57468  -0.57325  -0.57016
 Alpha  occ. eigenvalues --   -0.56504  -0.56225  -0.55912  -0.55698  -0.55651
 Alpha  occ. eigenvalues --   -0.55506  -0.55190  -0.55077  -0.54714  -0.54323
 Alpha  occ. eigenvalues --   -0.54037  -0.53565  -0.53466  -0.53398  -0.53125
 Alpha  occ. eigenvalues --   -0.52979  -0.52911  -0.52874  -0.52624  -0.52520
 Alpha  occ. eigenvalues --   -0.52355  -0.52250  -0.52149  -0.51781  -0.51608
 Alpha  occ. eigenvalues --   -0.51374  -0.51349  -0.50951  -0.50723  -0.50182
 Alpha  occ. eigenvalues --   -0.50136  -0.50065  -0.49734  -0.49684  -0.49601
 Alpha  occ. eigenvalues --   -0.49414  -0.49262  -0.49193  -0.48901  -0.48801
 Alpha  occ. eigenvalues --   -0.48774  -0.48633  -0.48588  -0.48287  -0.48196
 Alpha  occ. eigenvalues --   -0.48074  -0.47849  -0.47458  -0.47308  -0.46945
 Alpha  occ. eigenvalues --   -0.46839  -0.46708  -0.46535  -0.46441  -0.46339
 Alpha  occ. eigenvalues --   -0.46236  -0.46048  -0.45996  -0.45879  -0.45579
 Alpha  occ. eigenvalues --   -0.45316  -0.45052  -0.44795  -0.44644  -0.44316
 Alpha  occ. eigenvalues --   -0.44275  -0.44226  -0.44197  -0.44165  -0.43860
 Alpha  occ. eigenvalues --   -0.43816  -0.43732  -0.43660  -0.43517  -0.43335
 Alpha  occ. eigenvalues --   -0.43198  -0.43112  -0.42988  -0.42763  -0.42730
 Alpha  occ. eigenvalues --   -0.42660  -0.42344  -0.42141  -0.41876  -0.41750
 Alpha  occ. eigenvalues --   -0.41668  -0.41419  -0.41288  -0.41177  -0.40997
 Alpha  occ. eigenvalues --   -0.40960  -0.40704  -0.40678  -0.40475  -0.40434
 Alpha  occ. eigenvalues --   -0.40349  -0.40256  -0.39942  -0.39503  -0.39282
 Alpha  occ. eigenvalues --   -0.38567  -0.38175  -0.37885  -0.37441  -0.37423
 Alpha  occ. eigenvalues --   -0.37364  -0.37041  -0.36990  -0.36887  -0.36594
 Alpha  occ. eigenvalues --   -0.36371  -0.36005  -0.34455  -0.34108  -0.33982
 Alpha  occ. eigenvalues --   -0.33658  -0.33363  -0.32891  -0.31495  -0.31199
 Alpha  occ. eigenvalues --   -0.31058  -0.30699  -0.30286  -0.29720  -0.29629
 Alpha  occ. eigenvalues --   -0.29517  -0.29035  -0.28927  -0.24243  -0.23751
 Alpha  occ. eigenvalues --   -0.21290  -0.20826
 Alpha virt. eigenvalues --   -0.08946  -0.08499  -0.01899  -0.01420  -0.00227
 Alpha virt. eigenvalues --    0.00264   0.01988   0.02357   0.02570   0.03607
 Alpha virt. eigenvalues --    0.04577   0.04775   0.05063   0.05365   0.06024

 Mulliken charges:
               1
     1  Mg   0.839171
     2  C   -0.003402
     3  C   -0.093733
     4  C   -0.045238
     5  C   -0.064488
     6  N   -0.257030
     7  C   -0.052069
     8  C   -0.014287
     9  C   -0.087222
    10  C    0.046978
    11  C    0.104703
    12  C    0.053362
    13  C   -0.071917
    14  H    0.035967
    15  N   -0.433358
    16  C    0.169102
    17  C   -0.177081
    18  C   -0.003705
    19  C    0.149531
    20  C    0.110130
    21  C    0.012382
    22  O   -0.248585
    23  C    0.062600
    24  N   -0.341314
    25  C    0.041775
    26  C   -0.028613
    27  C   -0.024006
    28  C    0.075119
    29  C    0.075958
    30  C    0.034747
    31  C   -0.007032
    32  N   -0.310053
    33  C    0.079830
    34  C   -0.171835
    35  C    0.007205
    36  C    0.081969
    37  C    0.127808
    38  C    0.043977
    39  O   -0.190082
    40  C   -0.004830
    41  C    0.213243
    42  O   -0.260617
    43  O   -0.303764
    44  C    0.158575
    45  H   -0.017119
    46  H   -0.016010
    47  H   -0.041764
    48  H    0.000651
    49  H   -0.003290
    50  H    0.025418
    51  H    0.016564
    52  H    0.017152
    53  H    0.012961
    54  H    0.042877
    55  H    0.017557
    56  H    0.019366
    57  H    0.006547
    58  H    0.027379
    59  H    0.039361
    60  H    0.037874
    61  H    0.035995
    62  H    0.030241
    63  H    0.017944
    64  H    0.009644
    65  H    0.024266
    66  H    0.012294
    67  H    0.005031
    68  H    0.008682
    69  H    0.003724
    70  H    0.012192
    71  H    0.019062
    72  H    0.028230
    73  H    0.044823
    74  H    0.009169
    75  H    0.046700
    76  H    0.035758
    77  H    0.043275
    78  H    0.047747
    79  H    0.050211
    80  Mg   0.836592
    81  C   -0.016093
    82  C   -0.085175
    83  C   -0.046232
    84  C   -0.064859
    85  N   -0.254685
    86  C   -0.050192
    87  C   -0.014831
    88  C   -0.090242
    89  C    0.043402
    90  C    0.112100
    91  C    0.062556
    92  C   -0.077437
    93  H    0.033423
    94  N   -0.424079
    95  C    0.161373
    96  C   -0.169277
    97  C   -0.009114
    98  C    0.153450
    99  C    0.098810
   100  C    0.015301
   101  O   -0.255084
   102  C    0.061342
   103  N   -0.350254
   104  C    0.037492
   105  C   -0.019452
   106  C   -0.034458
   107  C    0.088461
   108  C    0.074906
   109  C    0.035040
   110  C   -0.007501
   111  N   -0.323993
   112  C    0.077536
   113  C   -0.163282
   114  C    0.001885
   115  C    0.095519
   116  C    0.131629
   117  C    0.041947
   118  O   -0.189517
   119  C    0.000092
   120  C    0.211177
   121  O   -0.250977
   122  O   -0.306005
   123  C    0.152136
   124  H   -0.009922
   125  H   -0.017295
   126  H   -0.041254
   127  H   -0.002500
   128  H   -0.003397
   129  H    0.018994
   130  H    0.021756
   131  H    0.020497
   132  H    0.014033
   133  H    0.036801
   134  H    0.020353
   135  H    0.020425
   136  H    0.013084
   137  H    0.029915
   138  H    0.037631
   139  H    0.038600
   140  H    0.034753
   141  H    0.034011
   142  H    0.013873
   143  H    0.010666
   144  H    0.023432
   145  H    0.011633
   146  H    0.001934
   147  H    0.004615
   148  H    0.003551
   149  H    0.010399
   150  H    0.017528
   151  H    0.031057
   152  H    0.044930
   153  H    0.007783
   154  H    0.048107
   155  H    0.033968
   156  H    0.042977
   157  H    0.049801
   158  H    0.053446
 Sum of Mulliken charges =  -0.00000

 Dipole moment (field-independent basis, Debye):
    X=              5.8352    Y=              1.8708    Z=              1.2818  Tot=              6.2604
 Quadrupole moment (field-independent basis, Debye-Ang):
   XX=           -523.1744   YY=           -515.7059   ZZ=           -481.4428
   XY=            -10.6534   XZ=             33.4638   YZ=              5.0763

 Normal termination of Gaussian 16 at Wed Sep  8 14:27:57 2021.
