 Gaussian 16, Revision A.03,
 Gaussian 16:  ES64L-G16RevA.03 25-Dec-2016

 -----------------------------------
 #p cam-b3lyp/Def2SVP td=(nstates=5)
 -----------------------------------

 --------------------------------
 TDDFT excited states in gaussian
 --------------------------------
 Symbolic Z-matrix:
 Charge =  0 Multiplicity = 1

                         Standard orientation:
 ---------------------------------------------------------------------
 Center     Atomic      Atomic             Coordinates (Angstroms)
 Number     Number       Type             X           Y           Z
 ---------------------------------------------------------------------
      1         12           0       -6.532221   -0.659148    0.377771
      2          6           0       -6.722702    2.829472   -0.400344
      3          6           0       -7.566472   -1.275580   -2.814940
      4          6           0       -6.809310   -3.716370    1.173532
      5          6           0       -6.623651    0.237596    3.744245
      6          7           0       -7.045683    0.689431   -1.301019
      7          6           0       -7.019734    2.005299   -1.488074
      8          6           0       -7.264105    2.423777   -2.968794
      9          6           0       -8.059187    1.134646   -3.466774
     10          6           0       -7.498782    0.112622   -2.493463
     11          6           0       -9.567517    1.232322   -3.262076
     12          6           0       -5.927113    2.613851   -3.761292
     13          6           0       -6.061724    3.332329   -5.107035
     14          1           0       -4.992485    4.220948   -5.536489
     15          7           0       -6.627688   -2.274452   -0.755600
     16          6           0       -7.058407   -2.339397   -2.038390
     17          6           0       -6.937089   -3.758018   -2.437735
     18          6           0       -6.580426   -4.543564   -1.223732
     19          6           0       -6.685249   -3.533666   -0.201726
     20          6           0       -7.104331   -4.232872   -3.848513
     21          6           0       -6.214955   -5.979329   -1.016028
     22          8           0       -6.168486   -6.507950    0.147147
     23          6           0       -5.996156   -6.783994   -2.231628
     24          7           0       -6.914739   -1.626357    2.187694
     25          6           0       -6.924204   -2.961433    2.268116
     26          6           0       -6.935466   -3.422388    3.695468
     27          6           0       -6.685455   -2.118731    4.583006
     28          6           0       -6.653733   -1.064046    3.449470
     29          6           0       -8.220297   -4.119678    4.163450
     30          6           0       -5.501653   -2.164218    5.581486
     31          6           0       -4.193357   -2.212939    4.824462
     32          7           0       -6.473389    1.193138    1.507646
     33          6           0       -6.547008    1.333501    2.901042
     34          6           0       -6.577660    2.779346    3.188550
     35          6           0       -6.536196    3.383377    1.933452
     36          6           0       -6.509507    2.378316    0.924774
     37          6           0       -6.694628    3.370421    4.477497
     38          6           0       -6.533095    4.643927    1.208978
     39          8           0       -6.451983    5.829799    1.532430
     40          6           0       -6.776711    4.335543   -0.334193
     41          6           0       -5.754365    5.110986   -1.119564
     42          8           0       -4.540717    4.831106   -1.041512
     43          8           0       -6.379697    5.894528   -2.011508
     44          6           0       -5.421274    6.669467   -2.844003
     45          1           0       -8.108071   -1.583987   -3.711320
     46          1           0       -6.796605   -4.759088    1.497596
     47          1           0       -6.566734    0.593225    4.774654
     48          1           0       -7.881729    3.313368   -3.093667
     49          1           0       -7.798479    0.865914   -4.490266
     50          1           0       -9.835101    2.119683   -2.688568
     51          1           0       -9.846573    0.329368   -2.718666
     52          1           0      -10.092040    1.181750   -4.216589
     53          1           0       -5.571457    1.642340   -4.104418
     54          1           0       -5.186110    3.129778   -3.149688
     55          1           0       -7.029370    3.826192   -5.200150
     56          1           0       -6.064011    2.580882   -5.896669
     57          1           0       -7.524579   -3.455612   -4.485540
     58          1           0       -7.865264   -5.012919   -3.833817
     59          1           0       -6.176959   -4.631664   -4.259945
     60          1           0       -6.901855   -6.772952   -2.838371
     61          1           0       -5.656467   -7.760636   -1.888652
     62          1           0       -5.218727   -6.311452   -2.832674
     63          1           0       -6.136876   -4.139469    3.881143
     64          1           0       -7.547848   -1.875127    5.203981
     65          1           0       -8.055369   -5.122517    4.558188
     66          1           0       -8.917501   -4.138703    3.326291
     67          1           0       -8.792899   -3.569801    4.909894
     68          1           0       -5.553663   -3.066136    6.190407
     69          1           0       -5.475277   -1.309073    6.256973
     70          1           0       -4.081693   -3.272984    4.599365
     71          1           0       -3.376181   -1.859318    5.454055
     72          1           0       -4.263448   -1.683617    3.873993
     73          1           0       -5.982730    4.195431    4.500483
     74          1           0       -6.487613    2.646514    5.265346
     75          1           0       -7.738408    3.683693    4.462020
     76          1           0       -7.794025    4.653273   -0.560558
     77          1           0       -5.682118    7.722491   -2.737540
     78          1           0       -5.459646    6.237298   -3.844085
     79          1           0       -4.385173    6.678693   -2.503783
     80         12           0        6.688461   -0.838847   -0.246989
     81          6           0        6.586695    2.530571    0.984150
     82          6           0        5.686203    0.392451   -3.265921
     83          6           0        6.332874   -3.832002   -1.237945
     84          6           0        6.561104   -1.906580    3.068046
     85          7           0        6.228849    1.214516   -0.928693
     86          6           0        6.284839    2.422989   -0.389435
     87          6           0        6.080210    3.586660   -1.396196
     88          6           0        5.255827    2.789722   -2.520541
     89          6           0        5.776969    1.379394   -2.252116
     90          6           0        3.754609    2.797143   -2.284656
     91          6           0        7.437964    4.135001   -1.959969
     92          6           0        7.333370    5.466821   -2.706337
     93          1           0        8.434963    6.418346   -2.589889
     94          7           0        6.575955   -1.578273   -2.085233
     95          6           0        6.169637   -0.932726   -3.198541
     96          6           0        6.249759   -1.918830   -4.287274
     97          6           0        6.579096   -3.244338   -3.696289
     98          6           0        6.486235   -2.933634   -2.283865
     99          6           0        6.101393   -1.547356   -5.734135
    100          6           0        6.908882   -4.574899   -4.302138
    101          8           0        6.927613   -5.647855   -3.601246
    102          6           0        7.117570   -4.599049   -5.757255
    103          7           0        6.264524   -2.613241    0.750085
    104          6           0        6.217544   -3.783327    0.089322
    105          6           0        6.171663   -4.949480    1.047638
    106          6           0        6.442740   -4.326699    2.495481
    107          6           0        6.512939   -2.830630    2.118323
    108          6           0        4.863870   -5.740392    1.070853
    109          6           0        7.611051   -4.937511    3.316846
    110          6           0        8.931086   -4.617751    2.653035
    111          7           0        6.777027    0.103673    1.695149
    112          6           0        6.679337   -0.527246    2.954704
    113          6           0        6.677769    0.539296    3.976914
    114          6           0        6.752061    1.727231    3.234097
    115          6           0        6.776396    1.423399    1.846084
    116          6           0        6.565477    0.344283    5.382431
    117          6           0        6.804703    3.169601    3.308189
    118          8           0        6.900838    3.989650    4.220337
    119          6           0        6.572400    3.759295    1.850554
    120          6           0        7.623511    4.805637    1.599844
    121          8           0        8.824386    4.490557    1.527550
    122          8           0        7.022708    5.964087    1.272114
    123          6           0        8.024396    7.030003    1.003271
    124          1           0        5.157498    0.641361   -4.186462
    125          1           0        6.316900   -4.887022   -1.521081
    126          1           0        6.622744   -2.161684    4.128137
    127          1           0        5.491180    4.414493   -1.020015
    128          1           0        5.534078    3.115335   -3.519504
    129          1           0        3.498518    3.238246   -1.332825
    130          1           0        3.446753    1.760187   -2.316186
    131          1           0        3.244483    3.288440   -3.118157
    132          1           0        7.773529    3.486300   -2.779309
    133          1           0        8.170060    4.214407   -1.179994
    134          1           0        6.373606    5.966108   -2.526032
    135          1           0        7.332297    5.263755   -3.780009
    136          1           0        5.701558   -0.532397   -5.849895
    137          1           0        5.323382   -2.195124   -6.152422
    138          1           0        7.023118   -1.689918   -6.302273
    139          1           0        6.223383   -4.233395   -6.256446
    140          1           0        7.430637   -5.618547   -5.990692
    141          1           0        7.924792   -3.901283   -6.006543
    142          1           0        6.951453   -5.666464    0.821877
    143          1           0        5.572875   -4.443151    3.158502
    144          1           0        5.001013   -6.816995    0.855937
    145          1           0        4.182472   -5.294246    0.358680
    146          1           0        4.301364   -5.675485    2.000667
    147          1           0        7.530112   -6.027084    3.337867
    148          1           0        7.639598   -4.596772    4.346444
    149          1           0        9.016000   -5.393518    1.886191
    150          1           0        9.746275   -4.681537    3.370978
    151          1           0        8.889280   -3.650046    2.139751
    152          1           0        7.288414    1.001793    5.846718
    153          1           0        6.739314   -0.694637    5.654820
    154          1           0        5.524725    0.640803    5.537938
    155          1           0        5.564914    4.176149    1.822535
    156          1           0        7.782858    7.869135    1.662966
    157          1           0        7.977542    7.216082   -0.086189
    158          1           0        9.053240    6.832372    1.280509
 ---------------------------------------------------------------------

 SCF Done:  E(RCAM-B3LYP) =  -4069.81176640     A.U. after   19 cycles

 Excitation energies and oscillator strengths:

 Excited State   1:      Singlet-A      1.6671 eV  743.70 nm  f=0.0605  <S**2>=0.000
     309 -> 315       -0.10708
     310 -> 316        0.13418
     311 -> 313       -0.42637
     312 -> 314        0.53809
 This state for optimization and/or second-order correction.
 Total Energy, E(TD-HF/TD-DFT) =  -4069.75050031
 Copying the excited state density for this state as the 1-particle RhoCI density.

 Excited State   2:      Singlet-A      1.6872 eV  734.85 nm  f=0.6808  <S**2>=0.000
     309 -> 315        0.13926
     310 -> 316        0.10932
     311 -> 313        0.53702
     312 -> 314        0.42558

 Excited State   3:      Singlet-A      2.1843 eV  567.61 nm  f=0.0561  <S**2>=0.000
     309 -> 313       -0.17187
     310 -> 314        0.61974
     312 -> 316       -0.26164

 Excited State   4:      Singlet-A      2.1936 eV  565.20 nm  f=0.1351  <S**2>=0.000
     309 -> 313        0.61723
     310 -> 314        0.17029
     311 -> 315       -0.26907

 Excited State   5:      Singlet-A      2.6476 eV  468.28 nm  f=0.0000  <S**2>=0.000
     312 -> 313        0.70710

 The electronic state is 1-A.
 Alpha  occ. eigenvalues --  -46.87856 -46.87545 -19.26388 -19.26201 -19.19122
 Alpha  occ. eigenvalues --  -19.19024 -19.18861 -19.18638 -19.18227 -19.17923
 Alpha  occ. eigenvalues --  -14.42513 -14.42375 -14.41506 -14.41246 -14.39461
 Alpha  occ. eigenvalues --  -14.39241 -14.38644 -14.38484 -10.39178 -10.38951
 Alpha  occ. eigenvalues --  -10.35493 -10.35318 -10.34449 -10.34097 -10.31800
 Alpha  occ. eigenvalues --  -10.31612 -10.31470 -10.31177 -10.30978 -10.30900
 Alpha  occ. eigenvalues --  -10.30628 -10.30561 -10.30287 -10.30259 -10.30243
 Alpha  occ. eigenvalues --  -10.30039 -10.29973 -10.29782 -10.29684 -10.29332
 Alpha  occ. eigenvalues --  -10.29309 -10.29295 -10.28840 -10.28679 -10.28565
 Alpha  occ. eigenvalues --  -10.28524 -10.28425 -10.28288 -10.28197 -10.27975
 Alpha  occ. eigenvalues --  -10.27890 -10.27846 -10.27788 -10.27638 -10.27550
 Alpha  occ. eigenvalues --  -10.27543 -10.27539 -10.27492 -10.27467 -10.27424
 Alpha  occ. eigenvalues --  -10.27398 -10.27365 -10.27362 -10.27279 -10.27231
 Alpha  occ. eigenvalues --  -10.26904 -10.26826 -10.26560 -10.26449 -10.26368
 Alpha  occ. eigenvalues --  -10.26305 -10.26219 -10.26071 -10.26057 -10.25872
 Alpha  occ. eigenvalues --  -10.25826 -10.25796 -10.25744 -10.25473 -10.25299
 Alpha  occ. eigenvalues --  -10.24887 -10.24843 -10.24758 -10.24726 -10.24655
 Alpha  occ. eigenvalues --  -10.24580  -3.16599  -3.16295  -1.91481  -1.91177
 Alpha  occ. eigenvalues --   -1.91067  -1.90909  -1.90766  -1.90603  -1.16736
 Alpha  occ. eigenvalues --   -1.16498  -1.08687  -1.08526  -1.07261  -1.06892
 Alpha  occ. eigenvalues --   -1.06807  -1.06743  -1.04645  -1.04372  -1.03818
 Alpha  occ. eigenvalues --   -1.03548  -1.03290  -1.02927  -1.02468  -1.01997
 Alpha  occ. eigenvalues --   -0.92036  -0.91862  -0.89570  -0.89390  -0.89271
 Alpha  occ. eigenvalues --   -0.88999  -0.88336  -0.88119  -0.87918  -0.87739
 Alpha  occ. eigenvalues --   -0.87681  -0.87565  -0.87327  -0.87034  -0.85062
 Alpha  occ. eigenvalues --   -0.84866  -0.83985  -0.83776  -0.83015  -0.82854
 Alpha  occ. eigenvalues --   -0.82722  -0.82529  -0.81665  -0.81469  -0.80664
 Alpha  occ. eigenvalues --   -0.80324  -0.78851  -0.78536  -0.77281  -0.77026
 Alpha  occ. eigenvalues --   -0.77013  -0.76769  -0.75997  -0.75698  -0.74951
 Alpha  occ. eigenvalues --   -0.74693  -0.72829  -0.72586  -0.71734  -0.71454
 Alpha  occ. eigenvalues --   -0.69952  -0.69662  -0.68947  -0.68700  -0.67702
 Alpha  occ. eigenvalues --   -0.67490  -0.67304  -0.67086  -0.65366  -0.65137
 Alpha  occ. eigenvalues --   -0.64920  -0.64690  -0.64652  -0.64529  -0.64322
 Alpha  occ. eigenvalues --   -0.64098  -0.62379  -0.62150  -0.60494  -0.60245
 Alpha  occ. eigenvalues --   -0.59878  -0.59658  -0.59047  -0.58876  -0.58565
 Alpha  occ. eigenvalues --   -0.58308  -0.57657  -0.57421  -0.57366  -0.57130
 Alpha  occ. eigenvalues --   -0.56368  -0.56094  -0.56069  -0.55757  -0.55578
 Alpha  occ. eigenvalues --   -0.55399  -0.55345  -0.55135  -0.54592  -0.54372
 Alpha  occ. eigenvalues --   -0.53979  -0.53767  -0.53355  -0.53292  -0.53123
 Alpha  occ. eigenvalues --   -0.53023  -0.52988  -0.52818  -0.52781  -0.52571
 Alpha  occ. eigenvalues --   -0.52483  -0.52310  -0.51958  -0.51773  -0.51695
 Alpha  occ. eigenvalues --   -0.51536  -0.51259  -0.51082  -0.50623  -0.50398
 Alpha  occ. eigenvalues --   -0.50081  -0.49976  -0.49863  -0.49768  -0.49582
 Alpha  occ. eigenvalues --   -0.49375  -0.49277  -0.49169  -0.49080  -0.48960
 Alpha  occ. eigenvalues --   -0.48662  -0.48512  -0.48503  -0.48428  -0.48273
 Alpha  occ. eigenvalues --   -0.48241  -0.47760  -0.47480  -0.47356  -0.47016
 Alpha  occ. eigenvalues --   -0.46857  -0.46638  -0.46594  -0.46421  -0.46417
 Alpha  occ. eigenvalues --   -0.46221  -0.46164  -0.45972  -0.45888  -0.45695
 Alpha  occ. eigenvalues --   -0.45252  -0.45102  -0.44641  -0.44570  -0.44393
 Alpha  occ. eigenvalues --   -0.44352  -0.44201  -0.44161  -0.44082  -0.43993
 Alpha  occ. eigenvalues --   -0.43979  -0.43832  -0.43568  -0.43453  -0.43426
 Alpha  occ. eigenvalues --   -0.43260  -0.43088  -0.42804  -0.42784  -0.42773
 Alpha  occ. eigenvalues --   -0.42711  -0.42456  -0.42071  -0.41854  -0.41766
 Alpha  occ. eigenvalues --   -0.41614  -0.41545  -0.41334  -0.41204  -0.40943
 Alpha  occ. eigenvalues --   -0.40882  -0.40858  -0.40628  -0.40625  -0.40578
 Alpha  occ. eigenvalues --   -0.40381  -0.40335  -0.40101  -0.39486  -0.39334
 Alpha  occ. eigenvalues --   -0.38525  -0.38242  -0.37845  -0.37528  -0.37375
 Alpha  occ. eigenvalues --   -0.37342  -0.37156  -0.37073  -0.36798  -0.36640
 Alpha  occ. eigenvalues --   -0.36264  -0.36099  -0.34345  -0.34136  -0.33864
 Alpha  occ. eigenvalues --   -0.33729  -0.33247  -0.33061  -0.31391  -0.31195
 Alpha  occ. eigenvalues --   -0.31096  -0.30856  -0.30088  -0.29824  -0.29503
 Alpha  occ. eigenvalues --   -0.29376  -0.29226  -0.29097  -0.24140  -0.23918
 Alpha  occ. eigenvalues --   -0.21185  -0.21003
 Alpha virt. eigenvalues --   -0.08830  -0.08681  -0.01807  -0.01573  -0.00114
 Alpha virt. eigenvalues --    0.00074   0.02146   0.02325   0.03052   0.03330
 Alpha virt. eigenvalues --    0.04642   0.04858   0.05005   0.05304   0.06067

 Mulliken charges:
               1
     1  Mg   0.838537
     2  C   -0.003211
     3  C   -0.094377
     4  C   -0.045762
     5  C   -0.063745
     6  N   -0.256769
     7  C   -0.052598
     8  C   -0.013988
     9  C   -0.086966
    10  C    0.046187
    11  C    0.104794
    12  C    0.053599
    13  C   -0.071433
    14  H    0.034931
    15  N   -0.433148
    16  C    0.168345
    17  C   -0.177222
    18  C   -0.003903
    19  C    0.148662
    20  C    0.110182
    21  C    0.012351
    22  O   -0.249495
    23  C    0.062461
    24  N   -0.341084
    25  C    0.041233
    26  C   -0.028209
    27  C   -0.024032
    28  C    0.074792
    29  C    0.076138
    30  C    0.035098
    31  C   -0.004541
    32  N   -0.310511
    33  C    0.080371
    34  C   -0.169422
    35  C    0.008413
    36  C    0.082965
    37  C    0.127255
    38  C    0.046171
    39  O   -0.188248
    40  C   -0.005397
    41  C    0.213001
    42  O   -0.257597
    43  O   -0.304616
    44  C    0.157830
    45  H   -0.017637
    46  H   -0.016705
    47  H   -0.041170
    48  H    0.000994
    49  H   -0.004294
    50  H    0.025560
    51  H    0.016641
    52  H    0.016654
    53  H    0.010888
    54  H    0.043689
    55  H    0.018259
    56  H    0.017830
    57  H    0.005693
    58  H    0.026976
    59  H    0.039436
    60  H    0.037339
    61  H    0.035922
    62  H    0.031489
    63  H    0.016571
    64  H    0.009633
    65  H    0.023304
    66  H    0.012559
    67  H    0.004889
    68  H    0.006440
    69  H    0.005030
    70  H    0.008616
    71  H    0.018340
    72  H    0.028888
    73  H    0.047935
    74  H    0.009394
    75  H    0.046096
    76  H    0.035258
    77  H    0.043189
    78  H    0.046120
    79  H    0.053133
    80  Mg   0.837961
    81  C   -0.016677
    82  C   -0.087746
    83  C   -0.045728
    84  C   -0.064942
    85  N   -0.254633
    86  C   -0.049286
    87  C   -0.015207
    88  C   -0.090641
    89  C    0.045971
    90  C    0.114402
    91  C    0.062528
    92  C   -0.077764
    93  H    0.034443
    94  N   -0.423454
    95  C    0.162871
    96  C   -0.174885
    97  C   -0.008144
    98  C    0.152147
    99  C    0.099541
   100  C    0.015288
   101  O   -0.253477
   102  C    0.061306
   103  N   -0.350034
   104  C    0.037561
   105  C   -0.019813
   106  C   -0.034789
   107  C    0.089044
   108  C    0.073678
   109  C    0.034773
   110  C   -0.007616
   111  N   -0.324178
   112  C    0.078676
   113  C   -0.163116
   114  C    0.002560
   115  C    0.096201
   116  C    0.131411
   117  C    0.042590
   118  O   -0.187576
   119  C    0.000805
   120  C    0.211140
   121  O   -0.251402
   122  O   -0.305156
   123  C    0.152157
   124  H   -0.019855
   125  H   -0.015907
   126  H   -0.040665
   127  H    0.000334
   128  H   -0.004863
   129  H    0.024407
   130  H    0.014373
   131  H    0.016551
   132  H    0.013540
   133  H    0.037492
   134  H    0.021398
   135  H    0.019221
   136  H    0.008642
   137  H    0.025427
   138  H    0.039431
   139  H    0.037822
   140  H    0.036003
   141  H    0.033852
   142  H    0.014123
   143  H    0.012431
   144  H    0.024866
   145  H    0.011746
   146  H    0.005843
   147  H    0.006087
   148  H    0.003524
   149  H    0.010798
   150  H    0.017718
   151  H    0.030212
   152  H    0.045890
   153  H    0.008213
   154  H    0.047320
   155  H    0.036469
   156  H    0.044113
   157  H    0.049437
   158  H    0.053215
 Sum of Mulliken charges =  -0.00000

 Dipole moment (field-independent basis, Debye):
    X=             -4.4680    Y=             -2.1870    Z=             -7.0547  Tot=              8.6322
 Quadrupole moment (field-independent basis, Debye-Ang):
   XX=           -517.8357   YY=           -543.3813   ZZ=           -456.0322
   XY=              8.3305   XZ=             -1.7750   YZ=            -41.1342

 Normal termination of Gaussian 16 at Sat Sep  4 10:26:55 2021.
