 Gaussian 16, Revision A.03,
 Gaussian 16:  ES64L-G16RevA.03 25-Dec-2016

 -----------------------------------
 #p cam-b3lyp/Def2SVP td=(nstates=5)
 -----------------------------------

 --------------------------------
 TDDFT excited states in gaussian
 --------------------------------
 Symbolic Z-matrix:
 Charge =  0 Multiplicity = 1

                         Standard orientation:
 ---------------------------------------------------------------------
 Center     Atomic      Atomic             Coordinates (Angstroms)
 Number     Number       Type             X           Y           Z
 ---------------------------------------------------------------------
      1         12           0       -5.212990   -0.623312    0.397470
      2          6           0       -5.367133    2.891311   -0.262740
      3          6           0       -6.302785   -1.120263   -2.797596
      4          6           0       -5.520146   -3.701214    1.096608
      5          6           0       -5.242229    0.162913    3.792563
      6          7           0       -5.732732    0.786633   -1.228128
      7          6           0       -5.691520    2.107502   -1.372272
      8          6           0       -5.952043    2.577838   -2.834560
      9          6           0       -6.772014    1.316472   -3.362387
     10          6           0       -6.211314    0.255550   -2.431805
     11          6           0       -8.275665    1.427259   -3.131601
     12          6           0       -4.624459    2.776292   -3.640704
     13          6           0       -4.769131    3.540531   -4.959932
     14          1           0       -3.694290    4.428639   -5.376259
     15          7           0       -5.347374   -2.198909   -0.786711
     16          6           0       -5.797902   -2.215763   -2.064219
     17          6           0       -5.701975   -3.621904   -2.511710
     18          6           0       -5.338167   -4.451752   -1.329724
     19          6           0       -5.413981   -3.474854   -0.273646
     20          6           0       -5.896596   -4.047663   -3.934595
     21          6           0       -4.989377   -5.898296   -1.174851
     22          8           0       -4.932931   -6.465605   -0.030496
     23          6           0       -4.799665   -6.665204   -2.419401
     24          7           0       -5.581873   -1.644618    2.180304
     25          6           0       -5.608448   -2.981379    2.217004
     26          6           0       -5.604880   -3.489025    3.628465
     27          6           0       -5.323897   -2.218802    4.554389
     28          6           0       -5.294517   -1.127775    3.455724
     29          6           0       -6.892075   -4.184348    4.092863
     30          6           0       -4.126166   -2.312874    5.532658
     31          6           0       -2.830021   -2.353856    4.754567
     32          7           0       -5.112035    1.189717    1.586495
     33          6           0       -5.163069    1.284954    2.984708
     34          6           0       -5.169633    2.720796    3.319944
     35          6           0       -5.138492    3.365340    2.084858
     36          6           0       -5.140533    2.393869    1.043450
     37          6           0       -5.259377    3.270481    4.629229
     38          6           0       -5.128845    4.648973    1.402179
     39          8           0       -5.026699    5.822343    1.763098
     40          6           0       -5.399503    4.394959   -0.146384
     41          6           0       -4.378371    5.182334   -0.921393
     42          8           0       -3.167650    4.884017   -0.871096
     43          8           0       -5.006048    6.003096   -1.777496
     44          6           0       -4.049530    6.792368   -2.598640
     45          1           0       -6.861783   -1.391720   -3.695245
     46          1           0       -5.516937   -4.754140    1.386047
     47          1           0       -5.165180    0.483540    4.833099
     48          1           0       -6.559194    3.479151   -2.920733
     49          1           0       -6.530208    1.078261   -4.398007
     50          1           0       -8.522531    2.298657   -2.525265
     51          1           0       -8.558992    0.510620   -2.613922
     52          1           0       -8.814916    1.415168   -4.079145
     53          1           0       -4.287278    1.812025   -4.020914
     54          1           0       -3.867472    3.261905   -3.023876
     55          1           0       -5.731189    4.049943   -5.022013
     56          1           0       -4.793419    2.815663   -5.773675
     57          1           0       -6.315541   -3.244307   -4.539284
     58          1           0       -6.667850   -4.817646   -3.933896
     59          1           0       -4.980975   -4.444872   -4.372996
     60          1           0       -5.714018   -6.622166   -3.011563
     61          1           0       -4.468353   -7.657042   -2.113884
     62          1           0       -4.024821   -6.183388   -3.016409
     63          1           0       -4.813532   -4.222336    3.778300
     64          1           0       -6.173574   -1.984462    5.196112
     65          1           0       -6.735080   -5.201766    4.451916
     66          1           0       -7.601801   -4.166505    3.266267
     67          1           0       -7.445962   -3.651899    4.865601
     68          1           0       -4.181508   -3.233640    6.112375
     69          1           0       -4.078063   -1.480923    6.235364
     70          1           0       -2.736248   -3.407273    4.493126
     71          1           0       -1.998835   -2.032046    5.382882
     72          1           0       -2.906924   -1.792558    3.823161
     73          1           0       -4.535972    4.084803    4.668411
     74          1           0       -5.050655    2.518282    5.389646
     75          1           0       -6.298878    3.597860    4.639970
     76          1           0       -6.415608    4.733406   -0.346649
     77          1           0       -4.294308    7.844658   -2.453709
     78          1           0       -4.108638    6.394003   -3.611663
     79          1           0       -3.008474    6.776664   -2.274150
     80         12           0        5.353389   -0.889665   -0.269694
     81          6           0        5.304753    2.516434    0.859555
     82          6           0        4.313686    0.259660   -3.308219
     83          6           0        4.952392   -3.907715   -1.163011
     84          6           0        5.270169   -1.854952    3.077993
     85          7           0        4.902677    1.146663   -1.006222
     86          6           0        4.979319    2.370311   -0.505060
     87          6           0        4.769513    3.504936   -1.543419
     88          6           0        3.919020    2.682738   -2.629476
     89          6           0        4.430724    1.275927   -2.326595
     90          6           0        2.422032    2.712690   -2.369726
     91          6           0        6.123092    4.021974   -2.145499
     92          6           0        6.019229    5.331531   -2.930369
     93          1           0        7.131818    6.274806   -2.860795
     94          7           0        5.203477   -1.683347   -2.082475
     95          6           0        4.785212   -1.067744   -3.208250
     96          6           0        4.837806   -2.087200   -4.267542
     97          6           0        5.163870   -3.397477   -3.641794
     98          6           0        5.097285   -3.043112   -2.238190
     99          6           0        4.669286   -1.758308   -5.722485
    100          6           0        5.470655   -4.749115   -4.212014
    101          8           0        5.490444   -5.800440   -3.479105
    102          6           0        5.655145   -4.819546   -5.668891
    103          7           0        4.928628   -2.628546    0.787761
    104          6           0        4.859379   -3.817603    0.163851
    105          6           0        4.817894   -4.953615    1.157906
    106          6           0        5.118814   -4.289986    2.581510
    107          6           0        5.197372   -2.806855    2.157805
    108          6           0        3.503016   -5.730002    1.226343
    109          6           0        6.294452   -4.887538    3.402168
    110          6           0        7.606448   -4.601611    2.707693
    111          7           0        5.483078    0.110397    1.641090
    112          6           0        5.399962   -0.480972    2.920718
    113          6           0        5.425606    0.616052    3.909819
    114          6           0        5.499251    1.780078    3.130003
    115          6           0        5.497791    1.434036    1.751683
    116          6           0        5.334544    0.464956    5.322257
    117          6           0        5.567169    3.223424    3.159189
    118          8           0        5.686286    4.069741    4.044227
    119          6           0        5.316687    3.770957    1.688189
    120          6           0        6.373689    4.798384    1.388739
    121          8           0        7.570083    4.468973    1.306716
    122          8           0        5.778903    5.952456    1.035554
    123          6           0        6.786374    6.999398    0.718183
    124          1           0        3.772355    0.485931   -4.227278
    125          1           0        4.921465   -4.970613   -1.413524
    126          1           0        5.346739   -2.078377    4.144239
    127          1           0        4.194850    4.349795   -1.183208
    128          1           0        4.183967    2.975016   -3.642262
    129          1           0        2.185942    3.185069   -1.427785
    130          1           0        2.103603    1.678470   -2.364626
    131          1           0        1.903082    3.183672   -3.209485
    132          1           0        6.438796    3.345296   -2.949976
    133          1           0        6.868654    4.117497   -1.380225
    134          1           0        5.067476    5.845864   -2.749911
    135          1           0        5.998531    5.095997   -3.997187
    136          1           0        4.277526   -0.743285   -5.862685
    137          1           0        3.878223   -2.410461   -6.108196
    138          1           0        5.580110   -1.927482   -6.300809
    139          1           0        4.756479   -4.460067   -6.164501
    140          1           0        5.954373   -5.848817   -5.876139
    141          1           0        6.464915   -4.137978   -5.952341
    142          1           0        5.586841   -5.685067    0.941569
    143          1           0        4.258870   -4.377348    3.261730
    144          1           0        3.626091   -6.813980    1.042188
    145          1           0        2.814384   -5.298720    0.511983
    146          1           0        2.956535   -5.631150    2.162716
    147          1           0        6.203256   -5.975077    3.457726
    148          1           0        6.343249   -4.516020    4.420291
    149          1           0        7.671168   -5.401120    1.963605
    150          1           0        8.432676   -4.651928    3.413990
    151          1           0        7.565642   -3.649550    2.165870
    152          1           0        6.071392    1.128794    5.754545
    153          1           0        5.502696   -0.566951    5.623373
    154          1           0        4.299440    0.776699    5.485433
    155          1           0        4.312990    4.197072    1.663722
    156          1           0        6.563912    7.860595    1.355786
    157          1           0        6.723429    7.152801   -0.375546
    158          1           0        7.817670    6.799739    0.984683
 ---------------------------------------------------------------------

 SCF Done:  E(RCAM-B3LYP) =  -4069.81178195     A.U. after   19 cycles

 Excitation energies and oscillator strengths:

 Excited State   1:      Singlet-A      1.6590 eV  747.33 nm  f=0.0420  <S**2>=0.000
     309 -> 315       -0.11126
     310 -> 316        0.12783
     311 -> 313       -0.44872
     312 -> 314        0.52026
 This state for optimization and/or second-order correction.
 Total Energy, E(TD-HF/TD-DFT) =  -4069.75081357
 Copying the excited state density for this state as the 1-particle RhoCI density.

 Excited State   2:      Singlet-A      1.6937 eV  732.04 nm  f=0.6763  <S**2>=0.000
     309 -> 315        0.13592
     310 -> 316        0.11576
     311 -> 313        0.51850
     312 -> 314        0.44725

 Excited State   3:      Singlet-A      2.1822 eV  568.16 nm  f=0.0396  <S**2>=0.000
     309 -> 313       -0.23569
     310 -> 314        0.59937
     312 -> 316       -0.25076

 Excited State   4:      Singlet-A      2.1950 eV  564.84 nm  f=0.1447  <S**2>=0.000
     309 -> 313        0.59557
     310 -> 314        0.23276
     311 -> 315       -0.26132
     312 -> 316       -0.10298

 Excited State   5:      Singlet-A      2.4802 eV  499.90 nm  f=0.0000  <S**2>=0.000
     312 -> 313        0.70709

 The electronic state is 1-A.
 Alpha  occ. eigenvalues --  -46.87886 -46.87476 -19.26455 -19.26106 -19.19190
 Alpha  occ. eigenvalues --  -19.18936 -19.18873 -19.18597 -19.18253 -19.17844
 Alpha  occ. eigenvalues --  -14.42547 -14.42298 -14.41536 -14.41178 -14.39489
 Alpha  occ. eigenvalues --  -14.39177 -14.38673 -14.38415 -10.39243 -10.38860
 Alpha  occ. eigenvalues --  -10.35505 -10.35279 -10.34478 -10.34015 -10.31875
 Alpha  occ. eigenvalues --  -10.31526 -10.31506 -10.31093 -10.31016 -10.30822
 Alpha  occ. eigenvalues --  -10.30658 -10.30587 -10.30286 -10.30223 -10.30175
 Alpha  occ. eigenvalues --  -10.30000 -10.29982 -10.29715 -10.29709 -10.29334
 Alpha  occ. eigenvalues --  -10.29273 -10.29235 -10.28897 -10.28776 -10.28455
 Alpha  occ. eigenvalues --  -10.28453 -10.28450 -10.28246 -10.28217 -10.27870
 Alpha  occ. eigenvalues --  -10.27850 -10.27826 -10.27821 -10.27662 -10.27569
 Alpha  occ. eigenvalues --  -10.27565 -10.27519 -10.27501 -10.27479 -10.27372
 Alpha  occ. eigenvalues --  -10.27371 -10.27308 -10.27286 -10.27271 -10.27218
 Alpha  occ. eigenvalues --  -10.26913 -10.26802 -10.26476 -10.26447 -10.26348
 Alpha  occ. eigenvalues --  -10.26345 -10.26249 -10.26098 -10.26014 -10.25878
 Alpha  occ. eigenvalues --  -10.25765 -10.25697 -10.25591 -10.25496 -10.25229
 Alpha  occ. eigenvalues --  -10.24912 -10.24871 -10.24762 -10.24691 -10.24614
 Alpha  occ. eigenvalues --  -10.24513  -3.16629  -3.16226  -1.91511  -1.91108
 Alpha  occ. eigenvalues --   -1.91097  -1.90939  -1.90697  -1.90534  -1.16802
 Alpha  occ. eigenvalues --   -1.16404  -1.08715  -1.08444  -1.07273  -1.06853
 Alpha  occ. eigenvalues --   -1.06809  -1.06719  -1.04680  -1.04294  -1.03848
 Alpha  occ. eigenvalues --   -1.03479  -1.03318  -1.02862  -1.02497  -1.01929
 Alpha  occ. eigenvalues --   -0.92070  -0.91782  -0.89599  -0.89329  -0.89324
 Alpha  occ. eigenvalues --   -0.88889  -0.88365  -0.88058  -0.87940  -0.87776
 Alpha  occ. eigenvalues --   -0.87620  -0.87493  -0.87348  -0.86989  -0.85110
 Alpha  occ. eigenvalues --   -0.84777  -0.84016  -0.83716  -0.83033  -0.82814
 Alpha  occ. eigenvalues --   -0.82763  -0.82446  -0.81711  -0.81391  -0.80701
 Alpha  occ. eigenvalues --   -0.80252  -0.78874  -0.78482  -0.77318  -0.77061
 Alpha  occ. eigenvalues --   -0.76955  -0.76682  -0.76040  -0.75601  -0.74983
 Alpha  occ. eigenvalues --   -0.74622  -0.72857  -0.72519  -0.71768  -0.71368
 Alpha  occ. eigenvalues --   -0.69983  -0.69606  -0.68990  -0.68616  -0.67733
 Alpha  occ. eigenvalues --   -0.67425  -0.67354  -0.67017  -0.65414  -0.65047
 Alpha  occ. eigenvalues --   -0.64957  -0.64731  -0.64580  -0.64450  -0.64353
 Alpha  occ. eigenvalues --   -0.64035  -0.62427  -0.62070  -0.60517  -0.60193
 Alpha  occ. eigenvalues --   -0.59920  -0.59565  -0.59080  -0.58805  -0.58598
 Alpha  occ. eigenvalues --   -0.58237  -0.57699  -0.57396  -0.57337  -0.57065
 Alpha  occ. eigenvalues --   -0.56397  -0.56124  -0.56030  -0.55676  -0.55605
 Alpha  occ. eigenvalues --   -0.55435  -0.55281  -0.55067  -0.54635  -0.54300
 Alpha  occ. eigenvalues --   -0.54032  -0.53665  -0.53382  -0.53330  -0.53064
 Alpha  occ. eigenvalues --   -0.53033  -0.52950  -0.52846  -0.52709  -0.52515
 Alpha  occ. eigenvalues --   -0.52506  -0.52258  -0.51976  -0.51739  -0.51716
 Alpha  occ. eigenvalues --   -0.51456  -0.51294  -0.51010  -0.50640  -0.50359
 Alpha  occ. eigenvalues --   -0.50113  -0.50003  -0.49791  -0.49705  -0.49618
 Alpha  occ. eigenvalues --   -0.49310  -0.49300  -0.49210  -0.49006  -0.48852
 Alpha  occ. eigenvalues --   -0.48702  -0.48543  -0.48524  -0.48344  -0.48216
 Alpha  occ. eigenvalues --   -0.48178  -0.47795  -0.47407  -0.47386  -0.46956
 Alpha  occ. eigenvalues --   -0.46892  -0.46687  -0.46524  -0.46448  -0.46330
 Alpha  occ. eigenvalues --   -0.46252  -0.46103  -0.45925  -0.45903  -0.45616
 Alpha  occ. eigenvalues --   -0.45281  -0.45033  -0.44676  -0.44604  -0.44322
 Alpha  occ. eigenvalues --   -0.44274  -0.44233  -0.44203  -0.44112  -0.43923
 Alpha  occ. eigenvalues --   -0.43895  -0.43765  -0.43610  -0.43493  -0.43347
 Alpha  occ. eigenvalues --   -0.43178  -0.43121  -0.42839  -0.42744  -0.42727
 Alpha  occ. eigenvalues --   -0.42691  -0.42399  -0.42110  -0.41800  -0.41786
 Alpha  occ. eigenvalues --   -0.41662  -0.41465  -0.41253  -0.41239  -0.40989
 Alpha  occ. eigenvalues --   -0.40909  -0.40771  -0.40658  -0.40576  -0.40498
 Alpha  occ. eigenvalues --   -0.40400  -0.40305  -0.40017  -0.39519  -0.39281
 Alpha  occ. eigenvalues --   -0.38561  -0.38175  -0.37910  -0.37451  -0.37407
 Alpha  occ. eigenvalues --   -0.37387  -0.37089  -0.36991  -0.36854  -0.36558
 Alpha  occ. eigenvalues --   -0.36307  -0.36025  -0.34376  -0.34065  -0.33927
 Alpha  occ. eigenvalues --   -0.33645  -0.33279  -0.32993  -0.31405  -0.31153
 Alpha  occ. eigenvalues --   -0.31127  -0.30783  -0.30115  -0.29743  -0.29527
 Alpha  occ. eigenvalues --   -0.29400  -0.29170  -0.29031  -0.24172  -0.23847
 Alpha  occ. eigenvalues --   -0.21214  -0.20935
 Alpha virt. eigenvalues --   -0.08857  -0.08617  -0.01835  -0.01507  -0.00138
 Alpha virt. eigenvalues --    0.00134   0.02120   0.02396   0.03010   0.03397
 Alpha virt. eigenvalues --    0.04595   0.04936   0.04946   0.05393   0.05992

 Mulliken charges:
               1
     1  Mg   0.838536
     2  C   -0.003467
     3  C   -0.094618
     4  C   -0.045669
     5  C   -0.063604
     6  N   -0.256746
     7  C   -0.052777
     8  C   -0.013919
     9  C   -0.086943
    10  C    0.046070
    11  C    0.104777
    12  C    0.053716
    13  C   -0.071178
    14  H    0.033959
    15  N   -0.433166
    16  C    0.168345
    17  C   -0.177229
    18  C   -0.003718
    19  C    0.148682
    20  C    0.110178
    21  C    0.012573
    22  O   -0.249441
    23  C    0.062380
    24  N   -0.341045
    25  C    0.041232
    26  C   -0.028224
    27  C   -0.024035
    28  C    0.074736
    29  C    0.076117
    30  C    0.035095
    31  C   -0.004493
    32  N   -0.310518
    33  C    0.080356
    34  C   -0.169161
    35  C    0.008489
    36  C    0.082915
    37  C    0.127194
    38  C    0.046200
    39  O   -0.188026
    40  C   -0.005453
    41  C    0.213231
    42  O   -0.258252
    43  O   -0.304444
    44  C    0.157894
    45  H   -0.017653
    46  H   -0.016638
    47  H   -0.041014
    48  H    0.001070
    49  H   -0.004488
    50  H    0.025631
    51  H    0.016785
    52  H    0.016675
    53  H    0.010538
    54  H    0.043133
    55  H    0.018675
    56  H    0.017787
    57  H    0.005514
    58  H    0.027082
    59  H    0.039445
    60  H    0.037214
    61  H    0.036227
    62  H    0.031767
    63  H    0.016508
    64  H    0.009725
    65  H    0.023331
    66  H    0.012607
    67  H    0.004950
    68  H    0.006367
    69  H    0.005193
    70  H    0.008330
    71  H    0.018095
    72  H    0.029176
    73  H    0.048355
    74  H    0.009510
    75  H    0.046107
    76  H    0.035350
    77  H    0.043531
    78  H    0.045936
    79  H    0.052638
    80  Mg   0.837872
    81  C   -0.016511
    82  C   -0.087844
    83  C   -0.045973
    84  C   -0.065229
    85  N   -0.254755
    86  C   -0.048613
    87  C   -0.015323
    88  C   -0.090901
    89  C    0.046292
    90  C    0.114655
    91  C    0.062526
    92  C   -0.077551
    93  H    0.033976
    94  N   -0.423400
    95  C    0.162892
    96  C   -0.175277
    97  C   -0.008398
    98  C    0.152115
    99  C    0.099774
   100  C    0.015018
   101  O   -0.253604
   102  C    0.061410
   103  N   -0.350060
   104  C    0.037569
   105  C   -0.019800
   106  C   -0.034692
   107  C    0.089151
   108  C    0.073699
   109  C    0.034808
   110  C   -0.007572
   111  N   -0.324233
   112  C    0.078889
   113  C   -0.163262
   114  C    0.002836
   115  C    0.096153
   116  C    0.131363
   117  C    0.042756
   118  O   -0.187452
   119  C    0.000676
   120  C    0.210970
   121  O   -0.251739
   122  O   -0.304682
   123  C    0.152303
   124  H   -0.020269
   125  H   -0.016091
   126  H   -0.040993
   127  H    0.001497
   128  H   -0.005639
   129  H    0.028137
   130  H    0.013503
   131  H    0.016171
   132  H    0.013209
   133  H    0.037324
   134  H    0.021712
   135  H    0.018823
   136  H    0.008426
   137  H    0.024681
   138  H    0.039248
   139  H    0.037386
   140  H    0.035821
   141  H    0.033853
   142  H    0.013960
   143  H    0.012195
   144  H    0.024877
   145  H    0.011931
   146  H    0.005923
   147  H    0.006003
   148  H    0.003312
   149  H    0.010764
   150  H    0.017560
   151  H    0.030288
   152  H    0.045832
   153  H    0.007938
   154  H    0.047218
   155  H    0.038207
   156  H    0.044133
   157  H    0.049300
   158  H    0.052927
 Sum of Mulliken charges =  -0.00000

 Dipole moment (field-independent basis, Debye):
    X=             -4.6923    Y=             -2.0480    Z=             -6.9503  Tot=              8.6325
 Quadrupole moment (field-independent basis, Debye-Ang):
   XX=           -518.1929   YY=           -544.8118   ZZ=           -454.9766
   XY=              3.1387   XZ=              0.0376   YZ=            -42.6666

 Normal termination of Gaussian 16 at Sat Sep  4 04:39:24 2021.
