 Gaussian 16, Revision A.03,
 Gaussian 16:  ES64L-G16RevA.03 25-Dec-2016

 -----------------------------------
 #p cam-b3lyp/Def2SVP td=(nstates=5)
 -----------------------------------

 --------------------------------
 TDDFT excited states in gaussian
 --------------------------------
 Symbolic Z-matrix:
 Charge =  0 Multiplicity = 1

                         Standard orientation:
 ---------------------------------------------------------------------
 Center     Atomic      Atomic             Coordinates (Angstroms)
 Number     Number       Type             X           Y           Z
 ---------------------------------------------------------------------
      1         12           0        3.262314   -1.848259    0.666929
      2          6           0        4.696814    1.235147   -0.449774
      3          6           0        3.960581   -0.846976    3.853294
      4          6           0        2.420327   -4.744762    1.645681
      5          6           0        3.716812   -3.060819   -2.568622
      6          7           0        4.208742   -0.015951    1.471643
      7          6           0        4.660090    1.116406    0.941340
      8          6           0        5.020568    2.196183    2.005066
      9          6           0        5.286593    1.240775    3.253434
     10          6           0        4.405902    0.069633    2.855021
     11          6           0        6.729904    0.757921    3.354457
     12          6           0        3.833778    3.180083    2.279296
     13          6           0        4.202715    4.449364    3.052708
     14          1           0        3.523794    5.693161    2.721975
     15          7           0        2.749865   -2.495510    2.461731
     16          6           0        3.110923   -1.956003    3.650787
     17          6           0        2.477461   -2.797027    4.689097
     18          6           0        1.875592   -3.979306    4.012293
     19          6           0        2.353297   -3.798199    2.665305
     20          6           0        2.442517   -2.426223    6.139970
     21          6           0        1.016310   -5.100882    4.504060
     22          8           0        0.796082   -6.146921    3.802720
     23          6           0        0.504459   -4.981139    5.881271
     24          7           0        3.290811   -3.722026   -0.252756
     25          6           0        2.815749   -4.804845    0.372387
     26          6           0        2.677304   -5.963023   -0.570691
     27          6           0        2.929397   -5.374531   -2.033523
     28          6           0        3.268240   -3.914161   -1.645226
     29          6           0        3.627065   -7.143500   -0.324849
     30          6           0        1.822962   -5.619020   -3.090143
     31          6           0        0.576632   -4.848532   -2.715835
     32          7           0        3.894922   -1.026110   -1.239618
     33          6           0        4.032538   -1.717473   -2.451952
     34          6           0        4.589974   -0.766156   -3.430895
     35          6           0        4.754481    0.415605   -2.711018
     36          6           0        4.351497    0.207791   -1.360941
     37          6           0        4.930328   -1.062487   -4.780258
     38          6           0        5.200061    1.798608   -2.762212
     39          8           0        5.559414    2.561199   -3.660440
     40          6           0        5.295017    2.349955   -1.271298
     41          6           0        4.614065    3.691049   -1.238418
     42          8           0        3.382767    3.787876   -1.417012
     43          8           0        5.469675    4.612711   -0.770431
     44          6           0        4.847481    5.960918   -0.684599
     45          1           0        4.341513   -0.744776    4.871325
     46          1           0        2.033956   -5.730507    1.913002
     47          1           0        3.806305   -3.344035   -3.618971
     48          1           0        5.917451    2.773765    1.780516
     49          1           0        4.932847    1.681042    4.185502
     50          1           0        7.308922    1.046670    2.477369
     51          1           0        6.668948   -0.327943    3.429807
     52          1           0        7.187824    1.097533    4.283838
     53          1           0        3.145130    2.723312    2.990060
     54          1           0        3.338765    3.456607    1.347727
     55          1           0        5.282361    4.599306    3.080837
     56          1           0        3.921678    4.307263    4.096272
     57          1           0        3.108088   -1.591457    6.356133
     58          1           0        2.868278   -3.263313    6.692886
     59          1           0        1.428386   -2.232419    6.489698
     60          1           0        1.344373   -4.900320    6.571607
     61          1           0       -0.162290   -5.829923    6.029129
     62          1           0       -0.055955   -4.050001    5.969964
     63          1           0        1.675275   -6.387530   -0.524238
     64          1           0        3.829340   -5.786591   -2.490671
     65          1           0        3.114281   -8.092983   -0.169161
     66          1           0        4.258836   -6.895851    0.527692
     67          1           0        4.369904   -7.302856   -1.106010
     68          1           0        1.551711   -6.673815   -3.118010
     69          1           0        2.117743   -5.325652   -4.097759
     70          1           0        0.084662   -5.511745   -2.005240
     71          1           0       -0.048064   -4.685461   -3.594683
     72          1           0        0.821876   -3.927747   -2.186215
     73          1           0        4.567068   -0.226031   -5.377211
     74          1           0        4.484740   -2.002952   -5.103645
     75          1           0        6.016314   -1.118358   -4.706987
     76          1           0        6.355234    2.423160   -1.031086
     77          1           0        5.474342    6.641035   -1.261416
     78          1           0        4.713304    6.173309    0.376199
     79          1           0        3.889993    6.083127   -1.192162
     80         12           0       -4.173523    0.617562   -0.657786
     81          6           0       -1.352512    2.835758   -0.634395
     82          6           0       -5.301764    2.263988    2.108254
     83          6           0       -6.429669   -1.596338   -0.382265
     84          6           0       -2.294870   -1.526611   -2.662511
     85          7           0       -3.345999    2.314761    0.494160
     86          6           0       -2.298991    3.116886    0.372873
     87          6           0       -2.305690    4.333462    1.336958
     88          6           0       -3.249923    3.725448    2.484829
     89          6           0       -4.044921    2.728162    1.644560
     90          6           0       -2.485129    2.952683    3.546565
     91          6           0       -2.943908    5.609736    0.684397
     92          6           0       -2.705483    6.912004    1.451868
     93          1           0       -2.520779    8.144570    0.690866
     94          7           0       -5.886704    0.647477    0.343542
     95          6           0       -6.181519    1.392267    1.429665
     96          6           0       -7.559626    1.035170    1.800380
     97          6           0       -7.996230   -0.101103    0.944238
     98          6           0       -6.753344   -0.414483    0.268133
     99          6           0       -8.352452    1.800722    2.819595
    100          6           0       -9.311222   -0.799449    0.772998
    101          8           0       -9.404771   -1.915549    0.149786
    102          6           0      -10.470768   -0.185643    1.436466
    103          7           0       -4.268530   -1.377980   -1.233227
    104          6           0       -5.386515   -2.100128   -1.042065
    105          6           0       -5.318494   -3.416254   -1.779348
    106          6           0       -4.018097   -3.323137   -2.705557
    107          6           0       -3.486424   -1.944056   -2.257389
    108          6           0       -5.230621   -4.665741   -0.903307
    109          6           0       -4.215943   -3.581048   -4.224443
    110          6           0       -5.040133   -2.469723   -4.833581
    111          7           0       -2.261621    0.702186   -1.660546
    112          6           0       -1.654218   -0.317005   -2.426303
    113          6           0       -0.310631    0.165773   -2.805978
    114          6           0       -0.220004    1.433010   -2.210691
    115          6           0       -1.414359    1.711366   -1.492681
    116          6           0        0.652548   -0.562185   -3.559945
    117          6           0        0.618623    2.594093   -2.017592
    118          8           0        1.705839    2.963566   -2.459386
    119          6           0       -0.027380    3.501084   -0.883385
    120          6           0       -0.038530    4.922459   -1.375425
    121          8           0       -0.737722    5.248135   -2.350956
    122          8           0        0.603716    5.701633   -0.486174
    123          6           0        0.609605    7.122721   -0.924682
    124          1           0       -5.629012    2.561094    3.105003
    125          1           0       -7.219366   -2.350708   -0.410173
    126          1           0       -1.686025   -2.095429   -3.368499
    127          1           0       -1.337721    4.591377    1.749636
    128          1           0       -3.907855    4.485210    2.898643
    129          1           0       -1.442400    2.839352    3.289617
    130          1           0       -2.966359    1.985526    3.610312
    131          1           0       -2.620705    3.421865    4.525247
    132          1           0       -4.036736    5.543208    0.762142
    133          1           0       -2.615898    5.723215   -0.330571
    134          1           0       -1.918923    6.806217    2.208887
    135          1           0       -3.603726    7.143945    2.029259
    136          1           0       -7.713981    2.478427    3.399653
    137          1           0       -8.715146    1.073829    3.554402
    138          1           0       -9.208664    2.320051    2.383866
    139          1           0      -10.281494   -0.118243    2.505152
    140          1           0      -11.333196   -0.778092    1.124851
    141          1           0      -10.579879    0.841473    1.070775
    142          1           0       -6.189294   -3.552317   -2.408860
    143          1           0       -3.257360   -4.062657   -2.415364
    144          1           0       -6.042453   -5.392171   -1.096425
    145          1           0       -5.235564   -4.356704    0.133517
    146          1           0       -4.293926   -5.215751   -0.975974
    147          1           0       -4.777003   -4.505510   -4.381668
    148          1           0       -3.283867   -3.672936   -4.771965
    149          1           0       -6.067293   -2.773670   -4.610766
    150          1           0       -4.869979   -2.410621   -5.906704
    151          1           0       -4.859061   -1.518449   -4.319816
    152          1           0        1.075906    0.130198   -4.275393
    153          1           0        0.203804   -1.421191   -4.054437
    154          1           0        1.339521   -0.859786   -2.763224
    155          1           0        0.579484    3.383693    0.015232
    156          1           0        1.655112    7.445203   -0.949133
    157          1           0       -0.065049    7.653483   -0.226910
    158          1           0        0.299007    7.334906   -1.941032
 ---------------------------------------------------------------------

 SCF Done:  E(RCAM-B3LYP) =  -4069.78825849     A.U. after   19 cycles

 Excitation energies and oscillator strengths:

 Excited State   1:      Singlet-A      1.6254 eV  762.80 nm  f=0.1690  <S**2>=0.000
     309 -> 315        0.11416
     310 -> 316       -0.11385
     311 -> 313        0.47581
     312 -> 313       -0.12190
     312 -> 314        0.47591
 This state for optimization and/or second-order correction.
 Total Energy, E(TD-HF/TD-DFT) =  -4069.72852699
 Copying the excited state density for this state as the 1-particle RhoCI density.

 Excited State   2:      Singlet-A      1.7180 eV  721.69 nm  f=0.5646  <S**2>=0.000
     309 -> 315       -0.13130
     310 -> 316       -0.12971
     311 -> 313       -0.48054
     312 -> 314        0.48457

 Excited State   3:      Singlet-A      2.1737 eV  570.39 nm  f=0.0016  <S**2>=0.000
     309 -> 313        0.34727
     310 -> 314        0.27127
     311 -> 315       -0.14355
     312 -> 313        0.50544
     312 -> 316        0.11382

 Excited State   4:      Singlet-A      2.1847 eV  567.51 nm  f=0.0003  <S**2>=0.000
     309 -> 313       -0.33378
     310 -> 314       -0.33367
     311 -> 315        0.13725
     312 -> 313        0.47499
     312 -> 316       -0.13986

 Excited State   5:      Singlet-A      2.2051 eV  562.27 nm  f=0.1558  <S**2>=0.000
     309 -> 313       -0.41929
     310 -> 314        0.46807
     311 -> 315        0.19163
     312 -> 316        0.21317

 The electronic state is 1-A.
 Alpha  occ. eigenvalues --  -46.87698 -46.87137 -19.25842 -19.25472 -19.18716
 Alpha  occ. eigenvalues --  -19.18512 -19.18216 -19.17712 -19.17494 -19.16431
 Alpha  occ. eigenvalues --  -14.42362 -14.42026 -14.41372 -14.40828 -14.39290
 Alpha  occ. eigenvalues --  -14.38804 -14.38532 -14.38016 -10.38446 -10.37839
 Alpha  occ. eigenvalues --  -10.35354 -10.34906 -10.33934 -10.32594 -10.31576
 Alpha  occ. eigenvalues --  -10.31292 -10.31271 -10.30786 -10.30740 -10.30574
 Alpha  occ. eigenvalues --  -10.30425 -10.30380 -10.30183 -10.29823 -10.29783
 Alpha  occ. eigenvalues --  -10.29733 -10.29711 -10.29496 -10.29309 -10.29189
 Alpha  occ. eigenvalues --  -10.28989 -10.28768 -10.28651 -10.28522 -10.28460
 Alpha  occ. eigenvalues --  -10.28379 -10.28213 -10.28026 -10.27812 -10.27796
 Alpha  occ. eigenvalues --  -10.27634 -10.27605 -10.27556 -10.27459 -10.27456
 Alpha  occ. eigenvalues --  -10.27418 -10.27311 -10.27228 -10.27177 -10.27124
 Alpha  occ. eigenvalues --  -10.27024 -10.26942 -10.26935 -10.26862 -10.26684
 Alpha  occ. eigenvalues --  -10.26663 -10.26391 -10.26372 -10.26341 -10.26175
 Alpha  occ. eigenvalues --  -10.26144 -10.26024 -10.25968 -10.25849 -10.25809
 Alpha  occ. eigenvalues --  -10.25667 -10.25447 -10.25427 -10.25084 -10.25044
 Alpha  occ. eigenvalues --  -10.24966 -10.24681 -10.24623 -10.24434 -10.24204
 Alpha  occ. eigenvalues --  -10.24123  -3.16450  -3.15889  -1.91331  -1.90918
 Alpha  occ. eigenvalues --   -1.90772  -1.90760  -1.90360  -1.90195  -1.16076
 Alpha  occ. eigenvalues --   -1.15786  -1.08121  -1.07490  -1.07121  -1.06480
 Alpha  occ. eigenvalues --   -1.06310  -1.05369  -1.04471  -1.03990  -1.03672
 Alpha  occ. eigenvalues --   -1.03131  -1.03125  -1.02490  -1.02315  -1.01555
 Alpha  occ. eigenvalues --   -0.91728  -0.91332  -0.89504  -0.89094  -0.89004
 Alpha  occ. eigenvalues --   -0.88789  -0.88262  -0.87754  -0.87711  -0.87587
 Alpha  occ. eigenvalues --   -0.87218  -0.87170  -0.87121  -0.86597  -0.84886
 Alpha  occ. eigenvalues --   -0.84586  -0.83943  -0.83435  -0.82898  -0.82513
 Alpha  occ. eigenvalues --   -0.82474  -0.82219  -0.81286  -0.81088  -0.80395
 Alpha  occ. eigenvalues --   -0.79942  -0.78675  -0.78074  -0.77164  -0.76816
 Alpha  occ. eigenvalues --   -0.76716  -0.76477  -0.75725  -0.75369  -0.74821
 Alpha  occ. eigenvalues --   -0.74332  -0.72663  -0.72148  -0.71544  -0.71090
 Alpha  occ. eigenvalues --   -0.69991  -0.69365  -0.68766  -0.68392  -0.67488
 Alpha  occ. eigenvalues --   -0.67140  -0.67037  -0.66781  -0.65173  -0.64844
 Alpha  occ. eigenvalues --   -0.64727  -0.64457  -0.64278  -0.64208  -0.64186
 Alpha  occ. eigenvalues --   -0.63730  -0.61945  -0.61763  -0.60353  -0.59820
 Alpha  occ. eigenvalues --   -0.59695  -0.59370  -0.58849  -0.58458  -0.58325
 Alpha  occ. eigenvalues --   -0.57860  -0.57323  -0.57025  -0.56880  -0.56737
 Alpha  occ. eigenvalues --   -0.56167  -0.55708  -0.55619  -0.55419  -0.55401
 Alpha  occ. eigenvalues --   -0.55261  -0.55049  -0.54876  -0.54328  -0.54001
 Alpha  occ. eigenvalues --   -0.53792  -0.53524  -0.53229  -0.53159  -0.53019
 Alpha  occ. eigenvalues --   -0.52741  -0.52695  -0.52673  -0.52446  -0.52389
 Alpha  occ. eigenvalues --   -0.52242  -0.51978  -0.51735  -0.51504  -0.51248
 Alpha  occ. eigenvalues --   -0.51163  -0.50987  -0.50587  -0.50517  -0.50071
 Alpha  occ. eigenvalues --   -0.50039  -0.49827  -0.49685  -0.49529  -0.49394
 Alpha  occ. eigenvalues --   -0.49271  -0.49033  -0.48964  -0.48738  -0.48641
 Alpha  occ. eigenvalues --   -0.48481  -0.48357  -0.48230  -0.48050  -0.47883
 Alpha  occ. eigenvalues --   -0.47571  -0.47340  -0.47158  -0.46965  -0.46718
 Alpha  occ. eigenvalues --   -0.46648  -0.46406  -0.46251  -0.46227  -0.46187
 Alpha  occ. eigenvalues --   -0.45852  -0.45751  -0.45545  -0.45509  -0.45176
 Alpha  occ. eigenvalues --   -0.45020  -0.44698  -0.44472  -0.44305  -0.44127
 Alpha  occ. eigenvalues --   -0.44060  -0.43993  -0.43820  -0.43701  -0.43628
 Alpha  occ. eigenvalues --   -0.43556  -0.43406  -0.43316  -0.43158  -0.43059
 Alpha  occ. eigenvalues --   -0.42889  -0.42846  -0.42721  -0.42427  -0.42271
 Alpha  occ. eigenvalues --   -0.42104  -0.41947  -0.41621  -0.41526  -0.41450
 Alpha  occ. eigenvalues --   -0.41396  -0.41056  -0.40999  -0.40873  -0.40758
 Alpha  occ. eigenvalues --   -0.40508  -0.40475  -0.40377  -0.40302  -0.40259
 Alpha  occ. eigenvalues --   -0.40187  -0.39893  -0.39883  -0.39565  -0.39028
 Alpha  occ. eigenvalues --   -0.38464  -0.37934  -0.37671  -0.37311  -0.37272
 Alpha  occ. eigenvalues --   -0.37149  -0.36808  -0.36713  -0.36360  -0.36237
 Alpha  occ. eigenvalues --   -0.35743  -0.35318  -0.34174  -0.33709  -0.33245
 Alpha  occ. eigenvalues --   -0.33193  -0.32778  -0.32093  -0.31235  -0.30803
 Alpha  occ. eigenvalues --   -0.30777  -0.30436  -0.29574  -0.29319  -0.29156
 Alpha  occ. eigenvalues --   -0.28756  -0.28414  -0.27874  -0.23954  -0.23501
 Alpha  occ. eigenvalues --   -0.21029  -0.20553
 Alpha virt. eigenvalues --   -0.08637  -0.08171  -0.01671  -0.01203   0.00083
 Alpha virt. eigenvalues --    0.00544   0.02460   0.02635   0.03344   0.03811
 Alpha virt. eigenvalues --    0.04757   0.05112   0.05721   0.05960   0.06193

 Mulliken charges:
               1
     1  Mg   0.834218
     2  C   -0.003484
     3  C   -0.094390
     4  C   -0.046506
     5  C   -0.065727
     6  N   -0.255787
     7  C   -0.056985
     8  C   -0.010794
     9  C   -0.086575
    10  C    0.045297
    11  C    0.104949
    12  C    0.044070
    13  C   -0.070508
    14  H    0.035457
    15  N   -0.431834
    16  C    0.167215
    17  C   -0.177737
    18  C   -0.004422
    19  C    0.149345
    20  C    0.110351
    21  C    0.012295
    22  O   -0.250261
    23  C    0.062587
    24  N   -0.340996
    25  C    0.041447
    26  C   -0.028298
    27  C   -0.023010
    28  C    0.075310
    29  C    0.076257
    30  C    0.038218
    31  C   -0.012988
    32  N   -0.314242
    33  C    0.068035
    34  C   -0.167409
    35  C    0.014813
    36  C    0.088209
    37  C    0.126194
    38  C    0.060361
    39  O   -0.185134
    40  C   -0.009701
    41  C    0.209667
    42  O   -0.214261
    43  O   -0.309856
    44  C    0.158986
    45  H   -0.018223
    46  H   -0.017581
    47  H   -0.042546
    48  H    0.001739
    49  H   -0.005160
    50  H    0.025874
    51  H    0.016340
    52  H    0.016044
    53  H    0.008009
    54  H    0.054101
    55  H    0.018524
    56  H    0.016069
    57  H    0.005149
    58  H    0.026493
    59  H    0.038415
    60  H    0.037040
    61  H    0.035449
    62  H    0.031124
    63  H    0.015622
    64  H    0.009963
    65  H    0.022929
    66  H    0.013071
    67  H    0.004609
    68  H    0.006404
    69  H    0.004177
    70  H    0.010473
    71  H    0.017386
    72  H    0.029490
    73  H    0.049717
    74  H    0.007189
    75  H    0.045750
    76  H    0.032283
    77  H    0.039331
    78  H    0.042687
    79  H    0.050382
    80  Mg   0.834073
    81  C   -0.018723
    82  C   -0.088231
    83  C   -0.046368
    84  C   -0.067361
    85  N   -0.253437
    86  C   -0.051095
    87  C   -0.013554
    88  C   -0.090118
    89  C    0.043806
    90  C    0.114892
    91  C    0.062914
    92  C   -0.076694
    93  H    0.033458
    94  N   -0.423018
    95  C    0.160900
    96  C   -0.176372
    97  C   -0.009267
    98  C    0.150905
    99  C    0.100069
   100  C    0.014411
   101  O   -0.254957
   102  C    0.061684
   103  N   -0.350481
   104  C    0.037118
   105  C   -0.019893
   106  C   -0.034871
   107  C    0.089975
   108  C    0.073861
   109  C    0.034620
   110  C   -0.007344
   111  N   -0.324384
   112  C    0.078117
   113  C   -0.177412
   114  C    0.013115
   115  C    0.092351
   116  C    0.134097
   117  C    0.037850
   118  O   -0.139896
   119  C   -0.004356
   120  C    0.220527
   121  O   -0.252866
   122  O   -0.305661
   123  C    0.156339
   124  H   -0.022191
   125  H   -0.017058
   126  H   -0.043174
   127  H   -0.002901
   128  H   -0.005758
   129  H    0.020171
   130  H    0.013996
   131  H    0.013428
   132  H    0.013983
   133  H    0.038304
   134  H    0.018641
   135  H    0.018953
   136  H    0.006907
   137  H    0.024047
   138  H    0.038001
   139  H    0.037346
   140  H    0.034851
   141  H    0.033172
   142  H    0.013166
   143  H    0.013635
   144  H    0.023684
   145  H    0.012152
   146  H    0.005455
   147  H    0.005148
   148  H    0.001468
   149  H    0.010843
   150  H    0.016590
   151  H    0.031170
   152  H    0.043652
   153  H    0.000621
   154  H    0.064162
   155  H    0.036826
   156  H    0.029309
   157  H    0.047728
   158  H    0.054253
 Sum of Mulliken charges =  -0.00000

 Dipole moment (field-independent basis, Debye):
    X=              1.0701    Y=              0.8482    Z=              7.2543  Tot=              7.3817
 Quadrupole moment (field-independent basis, Debye-Ang):
   XX=           -519.1904   YY=           -496.8463   ZZ=           -486.5730
   XY=            -25.6133   XZ=              9.2926   YZ=             53.0697

 Normal termination of Gaussian 16 at Thu Sep  9 04:27:35 2021.
