 Gaussian 16, Revision A.03,
 Gaussian 16:  ES64L-G16RevA.03 25-Dec-2016

 -----------------------------------
 #p cam-b3lyp/Def2SVP td=(nstates=5)
 -----------------------------------

 --------------------------------
 TDDFT excited states in gaussian
 --------------------------------
 Symbolic Z-matrix:
 Charge =  0 Multiplicity = 1

                         Standard orientation:
 ---------------------------------------------------------------------
 Center     Atomic      Atomic             Coordinates (Angstroms)
 Number     Number       Type             X           Y           Z
 ---------------------------------------------------------------------
      1         12           0       15.601076   -0.868902    0.279095
      2          6           0       15.861948    2.374991   -1.211313
      3          6           0       16.447333    0.589601    3.245521
      4          6           0       15.821583   -3.778066    1.521980
      5          6           0       15.896396   -2.203349   -2.926790
      6          7           0       16.069109    1.225751    0.821330
      7          6           0       16.075442    2.383968    0.168899
      8          6           0       16.255536    3.618080    1.102658
      9          6           0       16.982051    2.902518    2.328278
     10          6           0       16.440812    1.495769    2.143773
     11          6           0       18.501347    2.865209    2.198472
     12          6           0       14.885803    4.242324    1.533799
     13          6           0       14.972949    5.631830    2.171789
     14          1           0       13.911677    6.591600    1.907421
     15          7           0       15.585761   -1.461525    2.163614
     16          6           0       15.946748   -0.730356    3.245449
     17          6           0       15.759585   -1.614532    4.415869
     18          6           0       15.441797   -2.978595    3.909473
     19          6           0       15.631907   -2.797603    2.492971
     20          6           0       15.837839   -1.132640    5.831992
     21          6           0       15.042027   -4.247046    4.594563
     22          8           0       15.039401   -5.374258    3.991272
     23          6           0       14.734612   -4.148121    6.032879
     24          7           0       16.046349   -2.734815   -0.544152
     25          6           0       16.017393   -3.843549    0.203414
     26          6           0       16.088318   -5.077304   -0.646737
     27          6           0       15.926622   -4.583601   -2.156659
     28          6           0       15.869531   -3.057275   -1.901043
     29          6           0       17.372891   -5.907233   -0.515969
     30          6           0       14.795619   -5.234369   -2.991974
     31          6           0       13.448759   -4.821087   -2.442187
     32          7           0       15.660335   -0.085783   -1.744332
     33          6           0       15.810913   -0.821118   -2.928935
     34          6           0       15.902620    0.152094   -4.032799
     35          6           0       15.815093    1.394506   -3.407822
     36          6           0       15.703819    1.209748   -2.000067
     37          6           0       16.105404   -0.161643   -5.405709
     38          6           0       15.814457    2.835722   -3.599531
     39          8           0       15.788188    3.579979   -4.580798
     40          6           0       15.967353    3.530759   -2.174971
     41          6           0       14.930726    4.617389   -2.085808
     42          8           0       13.714485    4.340004   -2.051447
     43          8           0       15.533402    5.785750   -1.817003
     44          6           0       14.558106    6.901040   -1.686317
     45          1           0       16.931364    0.893245    4.175820
     46          1           0       15.792523   -4.802985    1.897658
     47          1           0       15.904632   -2.547910   -3.962484
     48          1           0       16.893879    4.404175    0.698929
     49          1           0       16.659914    3.309835    3.286424
     50          1           0       18.826630    3.222662    1.221569
     51          1           0       18.779394    1.819734    2.333247
     52          1           0       18.973529    3.408783    3.017220
     53          1           0       14.481935    3.677424    2.373941
     54          1           0       14.194520    4.275309    0.690967
     55          1           0       15.949690    6.086684    2.004473
     56          1           0       14.910104    5.515410    3.253777
     57          1           0       16.248900   -0.125572    5.890205
     58          1           0       16.573230   -1.755992    6.340265
     59          1           0       14.878034   -1.204978    6.343727
     60          1           0       15.607348   -3.764660    6.561875
     61          1           0       14.382273   -5.134167    6.333579
     62          1           0       13.942386   -3.412474    6.174835
     63          1           0       15.278019   -5.764569   -0.406927
     64          1           0       16.827539   -4.762288   -2.744106
     65          1           0       17.196849   -6.944436   -0.229747
     66          1           0       18.024555   -5.408869    0.201149
     67          1           0       18.000869   -5.920910   -1.406404
     68          1           0       14.850492   -6.320302   -2.923524
     69          1           0       14.831779   -4.966373   -4.047967
     70          1           0       13.291753   -5.526484   -1.626959
     71          1           0       12.677205   -4.928377   -3.205341
     72          1           0       13.486071   -3.822501   -2.006390
     73          1           0       15.422355    0.474805   -5.968156
     74          1           0       15.916741   -1.216701   -5.602841
     75          1           0       17.156421    0.103121   -5.520243
     76          1           0       16.981106    3.927121   -2.126756
     77          1           0       14.857607    7.673948   -2.394235
     78          1           0       14.530498    7.166279   -0.629298
     79          1           0       13.541968    6.694896   -2.024409
     80         12           0      -16.149746   -0.511671   -0.206882
     81          6           0      -13.737589    2.135751    0.020493
     82          6           0      -18.014500    1.192239    2.085279
     83          6           0      -18.071641   -3.031089   -0.044792
     84          6           0      -13.630620   -2.503050   -1.561175
     85          7           0      -15.813658    1.405953    0.842888
     86          6           0      -14.890388    2.354807    0.803114
     87          6           0      -15.258303    3.643475    1.586400
     88          6           0      -16.307026    3.004688    2.621278
     89          6           0      -16.772833    1.810227    1.791242
     90          6           0      -15.656508    2.479809    3.890405
     91          6           0      -15.937497    4.724213    0.673868
     92          6           0      -16.042175    6.118058    1.296771
     93          1           0      -15.895456    7.281900    0.427052
     94          7           0      -18.009200   -0.667106    0.469029
     95          6           0      -18.611805    0.123023    1.382176
     96          6           0      -19.968855   -0.419383    1.550549
     97          6           0      -20.063586   -1.692187    0.785232
     98          6           0      -18.681981   -1.860523    0.381603
     99          6           0      -21.045019    0.301646    2.309129
    100          6           0      -21.205865   -2.612991    0.479450
    101          8           0      -21.015256   -3.785709   -0.001418
    102          6           0      -22.547708   -2.137357    0.846508
    103          7           0      -15.842251   -2.542595   -0.528031
    104          6           0      -16.859433   -3.417797   -0.442687
    105          6           0      -16.461105   -4.771271   -0.981047
    106          6           0      -15.034582   -4.556245   -1.671246
    107          6           0      -14.804451   -3.070200   -1.319003
    108          6           0      -16.362874   -5.894906    0.050542
    109          6           0      -14.897661   -4.993883   -3.155294
    110          6           0      -15.741801   -4.101540   -4.036508
    111          7           0      -14.113749   -0.210959   -0.864414
    112          6           0      -13.229448   -1.186309   -1.375085
    113          6           0      -11.922413   -0.527260   -1.574407
    114          6           0      -12.132403    0.790461   -1.140791
    115          6           0      -13.469868    0.936687   -0.683297
    116          6           0      -10.737254   -1.156572   -2.049244
    117          6           0      -11.523764    2.088206   -0.956121
    118          8           0      -10.437212    2.587287   -1.246055
    119          6           0      -12.500008    2.983873   -0.077982
    120          6           0      -12.622385    4.327245   -0.743486
    121          8           0      -13.160989    4.433039   -1.859421
    122          8           0      -12.282643    5.287230    0.135934
    123          6           0      -12.398732    6.638509   -0.474317
    124          1           0      -18.566548    1.528870    2.963226
    125          1           0      -18.723446   -3.905210   -0.112099
    126          1           0      -12.821669   -3.030369   -2.071281
    127          1           0      -14.435355    4.098636    2.124329
    128          1           0      -17.135214    3.681972    2.813003
    129          1           0      -14.578642    2.516324    3.835428
    130          1           0      -15.995655    1.457378    3.993623
    131          1           0      -16.043988    3.015300    4.761855
    132          1           0      -17.003519    4.485034    0.568365
    133          1           0      -15.440729    4.788680   -0.274656
    134          1           0      -15.408699    6.220672    2.186217
    135          1           0      -17.058496    6.253935    1.674430
    136          1           0      -20.634884    1.130570    2.899093
    137          1           0      -21.432771   -0.398345    3.057141
    138          1           0      -21.867728    0.625235    1.667942
    139          1           0      -22.578909   -1.933003    1.914088
    140          1           0      -23.239110   -2.893063    0.468703
    141          1           0      -22.732298   -1.184409    0.338146
    142          1           0      -17.165767   -5.112419   -1.729491
    143          1           0      -14.244694   -5.126269   -1.160365
    144          1           0      -17.008509   -6.761806   -0.185506
    145          1           0      -16.611514   -5.488991    1.022116
    146          1           0      -15.360010   -6.286012    0.213319
    147          1           0      -15.278063   -6.009787   -3.287188
    148          1           0      -13.874526   -4.983765   -3.515960
    149          1           0      -16.737516   -4.548232   -3.958362
    150          1           0      -15.379194   -4.122483   -5.062235
    151          1           0      -15.802548   -3.086908   -3.626030
    152          1           0      -10.289336   -0.478424   -2.763376
    153          1           0      -10.953378   -2.123264   -2.499323
    154          1           0      -10.180267   -1.254723   -1.113620
    155          1           0      -12.066451    3.059372    0.919966
    156          1           0      -11.425971    7.126248   -0.357995
    157          1           0      -13.264459    7.116735    0.021232
    158          1           0      -12.535857    6.693498   -1.547921
 ---------------------------------------------------------------------

 SCF Done:  E(RCAM-B3LYP) =  -4069.81173863     A.U. after   19 cycles

 Excitation energies and oscillator strengths:

 Excited State   1:      Singlet-A      1.6755 eV  739.96 nm  f=0.3607  <S**2>=0.000
     309 -> 316        0.17229
     311 -> 313        0.68090
     309 <- 316        0.10385
 This state for optimization and/or second-order correction.
 Total Energy, E(TD-HF/TD-DFT) =  -4069.75016356
 Copying the excited state density for this state as the 1-particle RhoCI density.

 Excited State   2:      Singlet-A      1.6799 eV  738.04 nm  f=0.4207  <S**2>=0.000
     310 -> 315        0.17423
     312 -> 314        0.68056
     310 <- 315        0.10433

 Excited State   3:      Singlet-A      2.1861 eV  567.15 nm  f=0.0944  <S**2>=0.000
     309 -> 313        0.64200
     311 -> 316       -0.27295

 Excited State   4:      Singlet-A      2.1925 eV  565.50 nm  f=0.1056  <S**2>=0.000
     310 -> 314        0.64025
     312 -> 315       -0.27808

 Excited State   5:      Singlet-A      3.0486 eV  406.70 nm  f=0.0000  <S**2>=0.000
     312 -> 313        0.70709

 The electronic state is 1-A.
 Alpha  occ. eigenvalues --  -46.87739 -46.87659 -19.26343 -19.26221 -19.19155
 Alpha  occ. eigenvalues --  -19.18956 -19.18760 -19.18714 -19.18111 -19.18046
 Alpha  occ. eigenvalues --  -14.42497 -14.42393 -14.41393 -14.41358 -14.39351
 Alpha  occ. eigenvalues --  -14.39346 -14.38598 -14.38529 -10.39085 -10.39016
 Alpha  occ. eigenvalues --  -10.35394 -10.35391 -10.34331 -10.34224 -10.31749
 Alpha  occ. eigenvalues --  -10.31614 -10.31348 -10.31307 -10.31023 -10.30852
 Alpha  occ. eigenvalues --  -10.30512 -10.30450 -10.30396 -10.30359 -10.30151
 Alpha  occ. eigenvalues --  -10.30141 -10.29893 -10.29864 -10.29574 -10.29436
 Alpha  occ. eigenvalues --  -10.29399 -10.29198 -10.28719 -10.28691 -10.28653
 Alpha  occ. eigenvalues --  -10.28477 -10.28403 -10.28308 -10.28141 -10.28060
 Alpha  occ. eigenvalues --  -10.27999 -10.27736 -10.27671 -10.27668 -10.27528
 Alpha  occ. eigenvalues --  -10.27517 -10.27482 -10.27467 -10.27464 -10.27446
 Alpha  occ. eigenvalues --  -10.27427 -10.27395 -10.27375 -10.27346 -10.27099
 Alpha  occ. eigenvalues --  -10.27047 -10.26691 -10.26644 -10.26415 -10.26357
 Alpha  occ. eigenvalues --  -10.26181 -10.26135 -10.26127 -10.26027 -10.25963
 Alpha  occ. eigenvalues --  -10.25933 -10.25844 -10.25786 -10.25399 -10.25385
 Alpha  occ. eigenvalues --  -10.24870 -10.24775 -10.24731 -10.24728 -10.24689
 Alpha  occ. eigenvalues --  -10.24627  -3.16482  -3.16409  -1.91364  -1.91291
 Alpha  occ. eigenvalues --   -1.90950  -1.90880  -1.90792  -1.90717  -1.16637
 Alpha  occ. eigenvalues --   -1.16569  -1.08653  -1.08568  -1.07162  -1.06966
 Alpha  occ. eigenvalues --   -1.06940  -1.06578  -1.04524  -1.04494  -1.03704
 Alpha  occ. eigenvalues --   -1.03662  -1.03177  -1.03037  -1.02354  -1.02110
 Alpha  occ. eigenvalues --   -0.91985  -0.91914  -0.89493  -0.89463  -0.89151
 Alpha  occ. eigenvalues --   -0.89131  -0.88231  -0.88219  -0.87813  -0.87790
 Alpha  occ. eigenvalues --   -0.87683  -0.87616  -0.87218  -0.87119  -0.84999
 Alpha  occ. eigenvalues --   -0.84925  -0.83880  -0.83875  -0.82931  -0.82912
 Alpha  occ. eigenvalues --   -0.82652  -0.82591  -0.81593  -0.81526  -0.80538
 Alpha  occ. eigenvalues --   -0.80440  -0.78741  -0.78634  -0.77162  -0.77143
 Alpha  occ. eigenvalues --   -0.76896  -0.76876  -0.75865  -0.75837  -0.74843
 Alpha  occ. eigenvalues --   -0.74802  -0.72717  -0.72697  -0.71616  -0.71580
 Alpha  occ. eigenvalues --   -0.69850  -0.69756  -0.68826  -0.68816  -0.67600
 Alpha  occ. eigenvalues --   -0.67584  -0.67199  -0.67162  -0.65270  -0.65228
 Alpha  occ. eigenvalues --   -0.64796  -0.64768  -0.64652  -0.64563  -0.64213
 Alpha  occ. eigenvalues --   -0.64202  -0.62274  -0.62237  -0.60386  -0.60339
 Alpha  occ. eigenvalues --   -0.59796  -0.59747  -0.58991  -0.58930  -0.58446
 Alpha  occ. eigenvalues --   -0.58423  -0.57550  -0.57525  -0.57252  -0.57235
 Alpha  occ. eigenvalues --   -0.56253  -0.56202  -0.55918  -0.55883  -0.55464
 Alpha  occ. eigenvalues --   -0.55450  -0.55282  -0.55245  -0.54485  -0.54465
 Alpha  occ. eigenvalues --   -0.53912  -0.53837  -0.53242  -0.53226  -0.53165
 Alpha  occ. eigenvalues --   -0.53140  -0.52900  -0.52856  -0.52700  -0.52668
 Alpha  occ. eigenvalues --   -0.52399  -0.52381  -0.51880  -0.51857  -0.51657
 Alpha  occ. eigenvalues --   -0.51559  -0.51198  -0.51138  -0.50518  -0.50475
 Alpha  occ. eigenvalues --   -0.49979  -0.49976  -0.49866  -0.49863  -0.49487
 Alpha  occ. eigenvalues --   -0.49458  -0.49200  -0.49157  -0.49103  -0.49039
 Alpha  occ. eigenvalues --   -0.48556  -0.48535  -0.48406  -0.48389  -0.48374
 Alpha  occ. eigenvalues --   -0.48337  -0.47638  -0.47593  -0.47241  -0.47117
 Alpha  occ. eigenvalues --   -0.46740  -0.46708  -0.46553  -0.46497  -0.46302
 Alpha  occ. eigenvalues --   -0.46269  -0.46105  -0.46083  -0.45818  -0.45763
 Alpha  occ. eigenvalues --   -0.45208  -0.45146  -0.44519  -0.44511  -0.44475
 Alpha  occ. eigenvalues --   -0.44450  -0.44126  -0.44088  -0.44076  -0.44032
 Alpha  occ. eigenvalues --   -0.43962  -0.43937  -0.43550  -0.43435  -0.43384
 Alpha  occ. eigenvalues --   -0.43329  -0.42970  -0.42927  -0.42898  -0.42639
 Alpha  occ. eigenvalues --   -0.42596  -0.42552  -0.41962  -0.41952  -0.41667
 Alpha  occ. eigenvalues --   -0.41647  -0.41476  -0.41458  -0.41085  -0.40989
 Alpha  occ. eigenvalues --   -0.40812  -0.40768  -0.40722  -0.40698  -0.40515
 Alpha  occ. eigenvalues --   -0.40492  -0.40226  -0.40175  -0.39424  -0.39384
 Alpha  occ. eigenvalues --   -0.38413  -0.38350  -0.37689  -0.37653  -0.37265
 Alpha  occ. eigenvalues --   -0.37264  -0.37205  -0.37198  -0.36767  -0.36652
 Alpha  occ. eigenvalues --   -0.36215  -0.36134  -0.34252  -0.34229  -0.33857
 Alpha  occ. eigenvalues --   -0.33707  -0.33174  -0.33129  -0.31290  -0.31273
 Alpha  occ. eigenvalues --   -0.30979  -0.30972  -0.29970  -0.29950  -0.29392
 Alpha  occ. eigenvalues --   -0.29326  -0.29264  -0.29209  -0.24035  -0.24023
 Alpha  occ. eigenvalues --   -0.21116  -0.21071
 Alpha virt. eigenvalues --   -0.08790  -0.08717  -0.01693  -0.01683  -0.00028
 Alpha virt. eigenvalues --   -0.00002   0.02210   0.02258   0.03185   0.03229
 Alpha virt. eigenvalues --    0.04730   0.04776   0.05161   0.05171   0.06184

 Mulliken charges:
               1
     1  Mg   0.838851
     2  C   -0.002917
     3  C   -0.094119
     4  C   -0.045887
     5  C   -0.063974
     6  N   -0.256787
     7  C   -0.052455
     8  C   -0.014030
     9  C   -0.086998
    10  C    0.046350
    11  C    0.104826
    12  C    0.053462
    13  C   -0.071830
    14  H    0.036252
    15  N   -0.433134
    16  C    0.168425
    17  C   -0.177157
    18  C   -0.004029
    19  C    0.148722
    20  C    0.110192
    21  C    0.012289
    22  O   -0.249664
    23  C    0.062469
    24  N   -0.341157
    25  C    0.041235
    26  C   -0.028172
    27  C   -0.023967
    28  C    0.074869
    29  C    0.076201
    30  C    0.035129
    31  C   -0.004505
    32  N   -0.310488
    33  C    0.080457
    34  C   -0.169692
    35  C    0.008368
    36  C    0.083028
    37  C    0.127299
    38  C    0.046151
    39  O   -0.188405
    40  C   -0.005340
    41  C    0.212877
    42  O   -0.256990
    43  O   -0.304846
    44  C    0.157668
    45  H   -0.017658
    46  H   -0.016880
    47  H   -0.041498
    48  H    0.000912
    49  H   -0.004036
    50  H    0.025447
    51  H    0.016408
    52  H    0.016602
    53  H    0.011246
    54  H    0.044207
    55  H    0.017801
    56  H    0.017929
    57  H    0.005853
    58  H    0.026746
    59  H    0.039574
    60  H    0.037290
    61  H    0.035606
    62  H    0.031561
    63  H    0.016559
    64  H    0.009405
    65  H    0.023162
    66  H    0.012505
    67  H    0.004700
    68  H    0.006311
    69  H    0.004732
    70  H    0.008767
    71  H    0.018220
    72  H    0.029038
    73  H    0.047642
    74  H    0.009114
    75  H    0.045949
    76  H    0.035093
    77  H    0.042922
    78  H    0.046384
    79  H    0.053807
    80  Mg   0.837843
    81  C   -0.016797
    82  C   -0.087779
    83  C   -0.045519
    84  C   -0.064894
    85  N   -0.254563
    86  C   -0.049844
    87  C   -0.015091
    88  C   -0.090503
    89  C    0.045731
    90  C    0.114383
    91  C    0.062533
    92  C   -0.077902
    93  H    0.034949
    94  N   -0.423493
    95  C    0.162905
    96  C   -0.174643
    97  C   -0.007803
    98  C    0.152112
    99  C    0.099368
   100  C    0.015554
   101  O   -0.253191
   102  C    0.061206
   103  N   -0.350064
   104  C    0.037521
   105  C   -0.019818
   106  C   -0.034838
   107  C    0.088928
   108  C    0.073659
   109  C    0.034731
   110  C   -0.007689
   111  N   -0.324126
   112  C    0.078471
   113  C   -0.163080
   114  C    0.002262
   115  C    0.096194
   116  C    0.131483
   117  C    0.042429
   118  O   -0.187736
   119  C    0.000881
   120  C    0.211285
   121  O   -0.250979
   122  O   -0.305649
   123  C    0.151994
   124  H   -0.019693
   125  H   -0.015584
   126  H   -0.040399
   127  H   -0.000647
   128  H   -0.004330
   129  H    0.022450
   130  H    0.014409
   131  H    0.016248
   132  H    0.013915
   133  H    0.037712
   134  H    0.020765
   135  H    0.019575
   136  H    0.008745
   137  H    0.026118
   138  H    0.039801
   139  H    0.038233
   140  H    0.036393
   141  H    0.033906
   142  H    0.014409
   143  H    0.012430
   144  H    0.025136
   145  H    0.011610
   146  H    0.005671
   147  H    0.006267
   148  H    0.003702
   149  H    0.010924
   150  H    0.017988
   151  H    0.030102
   152  H    0.046123
   153  H    0.008551
   154  H    0.046969
   155  H    0.035014
   156  H    0.043966
   157  H    0.049459
   158  H    0.053637
 Sum of Mulliken charges =  -0.00000

 Dipole moment (field-independent basis, Debye):
    X=             -0.8034    Y=              0.7241    Z=              7.6105  Tot=              7.6870
 Quadrupole moment (field-independent basis, Debye-Ang):
   XX=           -378.1421   YY=           -493.0900   ZZ=           -497.5397
   XY=            -30.5415   XZ=              6.3662   YZ=             54.7939

 Normal termination of Gaussian 16 at Sun Sep 12 17:14:03 2021.
