 Gaussian 16, Revision A.03,
 Gaussian 16:  ES64L-G16RevA.03 25-Dec-2016

 -----------------------------------
 #p cam-b3lyp/Def2SVP td=(nstates=5)
 -----------------------------------

 --------------------------------
 TDDFT excited states in gaussian
 --------------------------------
 Symbolic Z-matrix:
 Charge =  0 Multiplicity = 1

                         Standard orientation:
 ---------------------------------------------------------------------
 Center     Atomic      Atomic             Coordinates (Angstroms)
 Number     Number       Type             X           Y           Z
 ---------------------------------------------------------------------
      1         12           0       -4.885278    0.861986   -0.205292
      2          6           0       -5.367234   -2.232609    1.527745
      3          6           0       -5.719682    2.446878    2.699007
      4          6           0       -4.909464    3.587272   -1.826665
      5          6           0       -5.204221   -0.924609   -3.180526
      6          7           0       -5.450042    0.095060    1.793086
      7          6           0       -5.539113   -1.111839    2.343206
      8          6           0       -5.757829   -1.073292    3.885299
      9          6           0       -6.406965    0.377482    4.011291
     10          6           0       -5.795777    1.024729    2.781069
     11          6           0       -7.925205    0.380445    3.864859
     12          6           0       -4.411710   -1.169532    4.679295
     13          6           0       -4.555050   -1.466277    6.174872
     14          1           0       -3.556063   -2.303636    6.821559
     15          7           0       -4.780814    2.730420    0.427867
     16          6           0       -5.148223    3.194270    1.646530
     17          6           0       -4.877942    4.647982    1.627782
     18          6           0       -4.501818    5.022960    0.236374
     19          6           0       -4.744197    3.784052   -0.457699
     20          6           0       -4.939502    5.512172    2.849722
     21          6           0       -4.013086    6.298782   -0.373176
     22          8           0       -3.967331    6.474159   -1.638768
     23          6           0       -3.668207    7.384167    0.562795
     24          7           0       -5.252987    1.319256   -2.208621
     25          6           0       -5.141157    2.572582   -2.662111
     26          6           0       -5.170467    2.615483   -4.161190
     27          6           0       -5.081565    1.097529   -4.648698
     28          6           0       -5.099945    0.403611   -3.264353
     29          6           0       -6.403424    3.281317   -4.787683
     30          6           0       -3.942563    0.741908   -5.636943
     31          6           0       -2.604206    0.866700   -4.943889
     32          7           0       -5.048166   -1.228033   -0.767727
     33          6           0       -5.194207   -1.743489   -2.063741
     34          6           0       -5.372053   -3.201199   -1.931376
     35          6           0       -5.333444   -3.431867   -0.557642
     36          6           0       -5.169809   -2.193353    0.126170
     37          6           0       -5.598834   -4.113461   -2.999451
     38          6           0       -5.417049   -4.433621    0.492766
     39          8           0       -5.460981   -5.664489    0.515681
     40          6           0       -5.564452   -3.683668    1.889788
     41          6           0       -4.586290   -4.308850    2.846688
     42          8           0       -3.356271   -4.186791    2.674871
     43          8           0       -5.243275   -4.744489    3.932566
     44          6           0       -4.326630   -5.349537    4.935479
     45          1           0       -6.191203    3.046623    3.479978
     46          1           0       -4.813325    4.491179   -2.431767
     47          1           0       -5.224970   -1.557572   -4.069559
     48          1           0       -6.449917   -1.825075    4.265116
     49          1           0       -6.078685    0.893245    4.913479
     50          1           0       -8.298821   -0.599726    3.568892
     51          1           0       -8.141735    1.119342    3.093082
     52          1           0       -8.401329    0.748484    4.774051
     53          1           0       -3.952499   -0.182266    4.729219
     54          1           0       -3.749020   -1.908220    4.227069
     55          1           0       -5.559709   -1.813469    6.417828
     56          1           0       -4.453309   -0.528121    6.720502
     57          1           0       -5.402824    4.990530    3.686243
     58          1           0       -5.624184    6.330276    2.626954
     59          1           0       -3.962164    5.913505    3.118187
     60          1           0       -4.544146    7.635062    1.161404
     61          1           0       -3.253797    8.186455   -0.046671
     62          1           0       -2.913274    7.021667    1.261092
     63          1           0       -4.317087    3.167171   -4.553375
     64          1           0       -5.988752    0.779286   -5.162904
     65          1           0       -6.162621    4.111941   -5.451597
     66          1           0       -7.059291    3.604034   -3.979609
     67          1           0       -7.056335    2.606139   -5.340186
     68          1           0       -3.936153    1.438444   -6.474643
     69          1           0       -4.025137   -0.265855   -6.044187
     70          1           0       -2.384484    1.930368   -5.028535
     71          1           0       -1.851359    0.270226   -5.460271
     72          1           0       -2.682637    0.633687   -3.881797
     73          1           0       -4.968741   -4.980030   -2.799424
     74          1           0       -5.359062   -3.663178   -3.962445
     75          1           0       -6.665684   -4.302144   -2.880768
     76          1           0       -6.596357   -3.820437    2.211640
     77          1           0       -4.689004   -6.358221    5.134166
     78          1           0       -4.281586   -4.653839    5.773561
     79          1           0       -3.311454   -5.558655    4.596326
     80         12           0        5.656470    0.068499    0.077001
     81          6           0        3.060576   -1.917926   -1.404408
     82          6           0        3.740853    2.808226   -0.600428
     83          6           0        8.108061    1.878164    0.961445
     84          6           0        7.805326   -2.633324   -0.400807
     85          7           0        3.675130    0.288355   -0.881226
     86          6           0        2.755226   -0.542024   -1.348766
     87          6           0        1.403114    0.131330   -1.706478
     88          6           0        1.936814    1.625447   -1.954776
     89          6           0        3.177646    1.592815   -1.064861
     90          6           0        2.382011    1.875402   -3.386089
     91          6           0        0.376549    0.077649   -0.521024
     92          6           0       -1.061910    0.437629   -0.899176
     93          1           0       -2.153864   -0.264105   -0.230088
     94          7           0        5.714732    1.977243    0.617245
     95          6           0        4.844105    2.948163    0.269963
     96          6           0        5.338411    4.178538    0.907147
     97          6           0        6.661816    3.888742    1.523060
     98          6           0        6.894154    2.546301    1.029121
     99          6           0        4.536342    5.446335    0.959981
    100          6           0        7.573967    4.692258    2.399720
    101          8           0        8.783577    4.331756    2.622693
    102          6           0        7.038980    5.961508    2.913793
    103          7           0        7.712696   -0.238255    0.063233
    104          6           0        8.553444    0.690002    0.552533
    105          6           0        9.952716    0.139464    0.691606
    106          6           0        9.825303   -1.431405    0.420131
    107          6           0        8.323392   -1.506349    0.067912
    108          6           0       10.998677    0.735273   -0.250397
    109          6           0       10.375305   -2.382282    1.518308
    110          6           0        9.530106   -2.272258    2.766879
    111          7           0        5.456433   -1.981521   -0.575271
    112          6           0        6.488832   -2.932939   -0.727085
    113          6           0        5.879285   -4.148418   -1.304571
    114          6           0        4.528155   -3.809143   -1.471399
    115          6           0        4.314948   -2.469484   -1.047911
    116          6           0        6.571571   -5.344227   -1.646460
    117          6           0        3.235881   -4.276124   -1.919355
    118          8           0        2.787047   -5.356118   -2.301304
    119          6           0        2.253305   -3.030331   -2.013900
    120          6           0        0.960474   -3.406487   -1.343378
    121          8           0        0.924491   -3.630566   -0.120633
    122          8           0       -0.053424   -3.228065   -2.209710
    123          6           0       -1.358083   -3.577499   -1.587153
    124          1           0        3.326216    3.746650   -0.969636
    125          1           0        8.968207    2.421634    1.359258
    126          1           0        8.389151   -3.552094   -0.488407
    127          1           0        0.929939   -0.248447   -2.604052
    128          1           0        1.226664    2.363948   -1.591902
    129          1           0        2.376627    0.969423   -3.973722
    130          1           0        3.385152    2.275313   -3.316560
    131          1           0        1.773713    2.664271   -3.837749
    132          1           0        0.596200    0.893119    0.180049
    133          1           0        0.395188   -0.882985   -0.044085
    134          1           0       -1.214486    0.439188   -1.985297
    135          1           0       -1.250830    1.471604   -0.600492
    136          1           0        3.676368    5.406890    0.280059
    137          1           0        5.168891    6.242125    0.551979
    138          1           0        4.240841    5.715776    1.976226
    139          1           0        6.755132    6.598194    2.079210
    140          1           0        7.803161    6.347811    3.591045
    141          1           0        6.122137    5.752503    3.476223
    142          1           0       10.330820    0.293183    1.694851
    143          1           0       10.375333   -1.734793   -0.482783
    144          1           0       11.864319    1.174580    0.280399
    145          1           0       10.515585    1.478708   -0.870442
    146          1           0       11.401539    0.044620   -0.989260
    147          1           0       11.388379   -2.086972    1.802279
    148          1           0       10.417586   -3.421152    1.208541
    149          1           0        9.944734   -1.392948    3.268855
    150          1           0        9.636281   -3.164117    3.381167
    151          1           0        8.486579   -2.047831    2.517212
    152          1           0        5.959769   -6.167446   -1.302200
    153          1           0        7.563332   -5.371013   -1.199848
    154          1           0        6.613799   -5.240992   -2.734043
    155          1           0        2.114712   -2.801923   -3.071352
    156          1           0       -1.828659   -4.327124   -2.230829
    157          1           0       -1.893300   -2.618193   -1.456659
    158          1           0       -1.336539   -4.098172   -0.636956
 ---------------------------------------------------------------------

 SCF Done:  E(RCAM-B3LYP) =  -4069.81511052     A.U. after   19 cycles

 Excitation energies and oscillator strengths:

 Excited State   1:      Singlet-A      1.6495 eV  751.63 nm  f=0.0060  <S**2>=0.000
     309 -> 315        0.12321
     310 -> 316       -0.11234
     311 -> 313        0.50673
     312 -> 314       -0.46465
 This state for optimization and/or second-order correction.
 Total Energy, E(TD-HF/TD-DFT) =  -4069.75449092
 Copying the excited state density for this state as the 1-particle RhoCI density.

 Excited State   2:      Singlet-A      1.6974 eV  730.43 nm  f=0.7014  <S**2>=0.000
     309 -> 315        0.12105
     310 -> 316        0.13183
     311 -> 313        0.46234
     312 -> 314        0.50460

 Excited State   3:      Singlet-A      2.1811 eV  568.44 nm  f=0.0871  <S**2>=0.000
     309 -> 313        0.47809
     310 -> 314        0.43129
     311 -> 315       -0.20082
     312 -> 316       -0.18034

 Excited State   4:      Singlet-A      2.1849 eV  567.45 nm  f=0.1158  <S**2>=0.000
     309 -> 313       -0.42986
     310 -> 314        0.47686
     311 -> 315        0.18369
     312 -> 316       -0.20328

 Excited State   5:      Singlet-A      2.4068 eV  515.13 nm  f=0.0000  <S**2>=0.000
     312 -> 313        0.70619

 The electronic state is 1-A.
 Alpha  occ. eigenvalues --  -46.88010 -46.87473 -19.26267 -19.25501 -19.19159
 Alpha  occ. eigenvalues --  -19.19052 -19.18575 -19.18402 -19.18388 -19.17741
 Alpha  occ. eigenvalues --  -14.42672 -14.42325 -14.41681 -14.41170 -14.39640
 Alpha  occ. eigenvalues --  -14.39168 -14.38863 -14.38399 -10.39103 -10.38377
 Alpha  occ. eigenvalues --  -10.35791 -10.35258 -10.34604 -10.33903 -10.31636
 Alpha  occ. eigenvalues --  -10.31571 -10.31115 -10.31103 -10.30842 -10.30837
 Alpha  occ. eigenvalues --  -10.30800 -10.30522 -10.30471 -10.30207 -10.30201
 Alpha  occ. eigenvalues --  -10.30153 -10.29983 -10.29931 -10.29707 -10.29531
 Alpha  occ. eigenvalues --  -10.29265 -10.29213 -10.29046 -10.28871 -10.28629
 Alpha  occ. eigenvalues --  -10.28593 -10.28537 -10.28267 -10.28189 -10.28090
 Alpha  occ. eigenvalues --  -10.27964 -10.27960 -10.27882 -10.27795 -10.27788
 Alpha  occ. eigenvalues --  -10.27754 -10.27744 -10.27635 -10.27488 -10.27377
 Alpha  occ. eigenvalues --  -10.27340 -10.27311 -10.27284 -10.27267 -10.27231
 Alpha  occ. eigenvalues --  -10.26769 -10.26749 -10.26681 -10.26654 -10.26527
 Alpha  occ. eigenvalues --  -10.26376 -10.26328 -10.26285 -10.26110 -10.26011
 Alpha  occ. eigenvalues --  -10.25835 -10.25753 -10.25689 -10.25653 -10.25272
 Alpha  occ. eigenvalues --  -10.25172 -10.25143 -10.25069 -10.24654 -10.24606
 Alpha  occ. eigenvalues --  -10.24501  -3.16690  -3.16223  -1.91569  -1.91163
 Alpha  occ. eigenvalues --   -1.91106  -1.91007  -1.90694  -1.90531  -1.16623
 Alpha  occ. eigenvalues --   -1.15823  -1.08835  -1.08313  -1.07565  -1.06832
 Alpha  occ. eigenvalues --   -1.06661  -1.06193  -1.04810  -1.04310  -1.04006
 Alpha  occ. eigenvalues --   -1.03504  -1.03479  -1.02851  -1.02678  -1.01918
 Alpha  occ. eigenvalues --   -0.92196  -0.91726  -0.89805  -0.89338  -0.89310
 Alpha  occ. eigenvalues --   -0.89018  -0.88567  -0.88151  -0.88057  -0.87895
 Alpha  occ. eigenvalues --   -0.87604  -0.87570  -0.87522  -0.86966  -0.85156
 Alpha  occ. eigenvalues --   -0.84881  -0.84228  -0.83683  -0.83284  -0.82838
 Alpha  occ. eigenvalues --   -0.82790  -0.82469  -0.81725  -0.81146  -0.80791
 Alpha  occ. eigenvalues --   -0.80059  -0.79075  -0.78459  -0.77466  -0.77094
 Alpha  occ. eigenvalues --   -0.77036  -0.76639  -0.76081  -0.75490  -0.75142
 Alpha  occ. eigenvalues --   -0.74540  -0.73037  -0.72512  -0.71893  -0.71353
 Alpha  occ. eigenvalues --   -0.70240  -0.69602  -0.69075  -0.68706  -0.67892
 Alpha  occ. eigenvalues --   -0.67397  -0.67387  -0.67156  -0.65460  -0.65100
 Alpha  occ. eigenvalues --   -0.65059  -0.64809  -0.64568  -0.64537  -0.64288
 Alpha  occ. eigenvalues --   -0.63973  -0.62404  -0.61685  -0.60726  -0.60174
 Alpha  occ. eigenvalues --   -0.59993  -0.59632  -0.59224  -0.58771  -0.58733
 Alpha  occ. eigenvalues --   -0.58164  -0.57762  -0.57530  -0.57182  -0.56937
 Alpha  occ. eigenvalues --   -0.56560  -0.56057  -0.55997  -0.55767  -0.55567
 Alpha  occ. eigenvalues --   -0.55472  -0.55133  -0.54908  -0.54691  -0.54069
 Alpha  occ. eigenvalues --   -0.54045  -0.53772  -0.53560  -0.53429  -0.53103
 Alpha  occ. eigenvalues --   -0.53011  -0.52994  -0.52955  -0.52745  -0.52541
 Alpha  occ. eigenvalues --   -0.52505  -0.52262  -0.52102  -0.51789  -0.51652
 Alpha  occ. eigenvalues --   -0.51503  -0.51411  -0.50906  -0.50874  -0.50348
 Alpha  occ. eigenvalues --   -0.50331  -0.50186  -0.49840  -0.49719  -0.49713
 Alpha  occ. eigenvalues --   -0.49437  -0.49343  -0.49258  -0.48986  -0.48907
 Alpha  occ. eigenvalues --   -0.48788  -0.48740  -0.48663  -0.48250  -0.48182
 Alpha  occ. eigenvalues --   -0.48076  -0.47918  -0.47528  -0.47379  -0.47040
 Alpha  occ. eigenvalues --   -0.46886  -0.46741  -0.46613  -0.46546  -0.46462
 Alpha  occ. eigenvalues --   -0.46370  -0.46063  -0.45999  -0.45766  -0.45471
 Alpha  occ. eigenvalues --   -0.45445  -0.45014  -0.44826  -0.44780  -0.44489
 Alpha  occ. eigenvalues --   -0.44342  -0.44250  -0.44235  -0.44181  -0.43952
 Alpha  occ. eigenvalues --   -0.43893  -0.43679  -0.43653  -0.43578  -0.43277
 Alpha  occ. eigenvalues --   -0.43250  -0.42998  -0.42971  -0.42699  -0.42675
 Alpha  occ. eigenvalues --   -0.42406  -0.42276  -0.42085  -0.41926  -0.41826
 Alpha  occ. eigenvalues --   -0.41721  -0.41422  -0.41396  -0.41315  -0.41132
 Alpha  occ. eigenvalues --   -0.41115  -0.40831  -0.40780  -0.40619  -0.40572
 Alpha  occ. eigenvalues --   -0.40337  -0.40319  -0.40128  -0.39769  -0.39287
 Alpha  occ. eigenvalues --   -0.38718  -0.38269  -0.37921  -0.37694  -0.37580
 Alpha  occ. eigenvalues --   -0.37382  -0.37108  -0.37048  -0.36831  -0.36323
 Alpha  occ. eigenvalues --   -0.36291  -0.35732  -0.34487  -0.34055  -0.33842
 Alpha  occ. eigenvalues --   -0.33419  -0.33248  -0.32889  -0.31682  -0.31279
 Alpha  occ. eigenvalues --   -0.31131  -0.30758  -0.30234  -0.29731  -0.29634
 Alpha  occ. eigenvalues --   -0.29609  -0.29148  -0.28995  -0.24309  -0.23831
 Alpha  occ. eigenvalues --   -0.21403  -0.20935
 Alpha virt. eigenvalues --   -0.09052  -0.08597  -0.02020  -0.01508  -0.00346
 Alpha virt. eigenvalues --    0.00146   0.01910   0.02353   0.02721   0.03443
 Alpha virt. eigenvalues --    0.04508   0.05040   0.05211   0.05797   0.05999

 Mulliken charges:
               1
     1  Mg   0.787985
     2  C    0.001401
     3  C   -0.093549
     4  C   -0.046858
     5  C   -0.060439
     6  N   -0.252271
     7  C   -0.054314
     8  C   -0.013665
     9  C   -0.087156
    10  C    0.048527
    11  C    0.104745
    12  C    0.053036
    13  C   -0.072553
    14  H    0.038660
    15  N   -0.431771
    16  C    0.169887
    17  C   -0.177368
    18  C   -0.004716
    19  C    0.146567
    20  C    0.110164
    21  C    0.010347
    22  O   -0.250246
    23  C    0.063054
    24  N   -0.335166
    25  C    0.042308
    26  C   -0.028495
    27  C   -0.024543
    28  C    0.070902
    29  C    0.076227
    30  C    0.038563
    31  C   -0.022852
    32  N   -0.307222
    33  C    0.077325
    34  C   -0.177072
    35  C    0.006464
    36  C    0.075355
    37  C    0.128088
    38  C    0.043382
    39  O   -0.185568
    40  C   -0.006710
    41  C    0.213060
    42  O   -0.254030
    43  O   -0.305318
    44  C    0.156415
    45  H   -0.017212
    46  H   -0.018109
    47  H   -0.042560
    48  H    0.001377
    49  H   -0.003517
    50  H    0.025901
    51  H    0.016205
    52  H    0.017230
    53  H    0.011197
    54  H    0.046464
    55  H    0.017698
    56  H    0.017627
    57  H    0.006850
    58  H    0.027331
    59  H    0.039001
    60  H    0.038539
    61  H    0.035213
    62  H    0.030069
    63  H    0.014898
    64  H    0.010381
    65  H    0.023181
    66  H    0.013218
    67  H    0.005497
    68  H    0.007035
    69  H    0.006345
    70  H    0.006552
    71  H    0.020208
    72  H    0.044382
    73  H    0.046060
    74  H    0.010476
    75  H    0.047373
    76  H    0.035999
    77  H    0.043412
    78  H    0.046253
    79  H    0.057292
    80  Mg   0.837649
    81  C   -0.015042
    82  C   -0.088166
    83  C   -0.045955
    84  C   -0.065488
    85  N   -0.254147
    86  C   -0.048599
    87  C   -0.021220
    88  C   -0.091081
    89  C    0.044969
    90  C    0.114152
    91  C    0.081342
    92  C   -0.139529
    93  H    0.085875
    94  N   -0.423344
    95  C    0.162354
    96  C   -0.174992
    97  C   -0.008406
    98  C    0.151991
    99  C    0.099331
   100  C    0.015143
   101  O   -0.253724
   102  C    0.061467
   103  N   -0.350219
   104  C    0.037368
   105  C   -0.019637
   106  C   -0.034860
   107  C    0.089266
   108  C    0.073831
   109  C    0.034834
   110  C   -0.007615
   111  N   -0.324307
   112  C    0.078927
   113  C   -0.163240
   114  C    0.002796
   115  C    0.096210
   116  C    0.131381
   117  C    0.043028
   118  O   -0.185942
   119  C    0.001455
   120  C    0.210160
   121  O   -0.246957
   122  O   -0.310594
   123  C    0.143948
   124  H   -0.019216
   125  H   -0.016193
   126  H   -0.040738
   127  H    0.002111
   128  H   -0.002608
   129  H    0.021799
   130  H    0.014126
   131  H    0.017609
   132  H    0.011702
   133  H    0.042883
   134  H    0.031055
   135  H    0.039376
   136  H    0.008973
   137  H    0.025836
   138  H    0.038145
   139  H    0.038100
   140  H    0.035741
   141  H    0.033102
   142  H    0.013991
   143  H    0.012169
   144  H    0.024670
   145  H    0.011560
   146  H    0.005354
   147  H    0.005843
   148  H    0.003608
   149  H    0.010592
   150  H    0.017719
   151  H    0.030502
   152  H    0.046770
   153  H    0.008061
   154  H    0.046606
   155  H    0.033285
   156  H    0.039620
   157  H    0.056971
   158  H    0.068020
 Sum of Mulliken charges =  -0.00000

 Dipole moment (field-independent basis, Debye):
    X=             -2.9274    Y=              7.0356    Z=              1.6593  Tot=              7.7989
 Quadrupole moment (field-independent basis, Debye-Ang):
   XX=           -486.8081   YY=           -544.8688   ZZ=           -474.1886
   XY=            -28.3536   XZ=            -22.8056   YZ=              5.7676

 Normal termination of Gaussian 16 at Fri Sep 10 17:49:59 2021.
