 Gaussian 16, Revision A.03,
 Gaussian 16:  ES64L-G16RevA.03 25-Dec-2016

 -----------------------------------
 #p cam-b3lyp/Def2SVP td=(nstates=5)
 -----------------------------------

 --------------------------------
 TDDFT excited states in gaussian
 --------------------------------
 Symbolic Z-matrix:
 Charge =  0 Multiplicity = 1

                         Standard orientation:
 ---------------------------------------------------------------------
 Center     Atomic      Atomic             Coordinates (Angstroms)
 Number     Number       Type             X           Y           Z
 ---------------------------------------------------------------------
      1         12           0        4.108804    0.336893    1.079612
      2          6           0        4.646340   -2.683761   -0.764003
      3          6           0        5.672741    1.990907   -1.462317
      4          6           0        4.052519    2.942763    2.885961
      5          6           0        3.634217   -1.646600    3.905596
      6          7           0        5.001016   -0.367220   -0.820080
      7          6           0        5.088279   -1.541992   -1.436088
      8          6           0        5.624695   -1.436252   -2.895009
      9          6           0        6.419409   -0.059568   -2.771851
     10          6           0        5.630043    0.576256   -1.641121
     11          6           0        7.867662   -0.230002   -2.324618
     12          6           0        4.469563   -1.338749   -3.947574
     13          6           0        4.891389   -1.560306   -5.403023
     14          1           0        3.973983   -2.244616   -6.301596
     15          7           0        4.314203    2.239793    0.590090
     16          6           0        4.968345    2.732314   -0.489172
     17          6           0        4.838061    4.203099   -0.408548
     18          6           0        4.218534    4.533705    0.904837
     19          6           0        4.194026    3.236941    1.531877
     20          6           0        5.232739    5.126266   -1.520187
     21          6           0        3.736272    5.816716    1.504369
     22          8           0        3.445745    5.920852    2.745064
     23          6           0        3.696697    6.986562    0.608302
     24          7           0        4.094398    0.632267    3.146054
     25          6           0        4.009384    1.861295    3.666866
     26          6           0        3.731061    1.812016    5.139974
     27          6           0        3.400562    0.286503    5.476624
     28          6           0        3.640271   -0.322205    4.072956
     29          6           0        4.864337    2.301926    6.051940
     30          6           0        2.053074   -0.001279    6.185057
     31          6           0        0.905362    0.308749    5.250317
     32          7           0        3.954112   -1.788049    1.494024
     33          6           0        3.779031   -2.392059    2.747496
     34          6           0        3.842495   -3.850063    2.537100
     35          6           0        4.068101   -3.993516    1.169486
     36          6           0        4.167119   -2.706292    0.568201
     37          6           0        3.755969   -4.843114    3.552381
     38          6           0        4.273100   -4.934530    0.080301
     39          8           0        4.204815   -6.159376   -0.031867
     40          6           0        4.776928   -4.123681   -1.194262
     41          6           0        3.964100   -4.581350   -2.374584
     42          8           0        2.742255   -4.336945   -2.443331
     43          8           0        4.788035   -5.020694   -3.338249
     44          6           0        4.046546   -5.462336   -4.549571
     45          1           0        6.350270    2.581096   -2.082455
     46          1           0        3.918463    3.814380    3.529972
     47          1           0        3.410484   -2.329551    4.727164
     48          1           0        6.306631   -2.234891   -3.187521
     49          1           0        6.335392    0.541222   -3.677232
     50          1           0        8.077853   -1.260702   -2.039312
     51          1           0        7.987965    0.434089   -1.468461
     52          1           0        8.554465    0.137341   -3.087597
     53          1           0        4.125667   -0.306277   -4.009197
     54          1           0        3.660994   -2.026631   -3.697852
     55          1           0        5.887367   -1.999461   -5.466899
     56          1           0        4.993754   -0.586027   -5.881041
     57          1           0        5.808292    4.607837   -2.286030
     58          1           0        5.930205    5.850643   -1.100034
     59          1           0        4.374524    5.646435   -1.945890
     60          1           0        4.697372    7.175912    0.219272
     61          1           0        3.242266    7.791610    1.184705
     62          1           0        3.072315    6.750048   -0.253764
     63          1           0        2.870679    2.428860    5.396238
     64          1           0        4.147322   -0.158137    6.134893
     65          1           0        4.570326    3.113038    6.718543
     66          1           0        5.700923    2.598814    5.420061
     67          1           0        5.321977    1.528408    6.668100
     68          1           0        1.938636    0.641063    7.057551
     69          1           0        1.954195   -1.034366    6.518533
     70          1           0        0.773942    1.383096    5.374171
     71          1           0        0.009081   -0.232023    5.556023
     72          1           0        1.180079    0.131837    4.210260
     73          1           0        3.102381   -5.622852    3.161483
     74          1           0        3.365146   -4.427232    4.480768
     75          1           0        4.801645   -5.139073    3.635003
     76          1           0        5.835597   -4.352314   -1.312867
     77          1           0        4.345694   -6.490850   -4.751813
     78          1           0        4.241958   -4.717509   -5.321227
     79          1           0        2.968031   -5.579777   -4.438426
     80         12           0       -3.613552    0.621008   -0.747145
     81          6           0       -6.369195   -1.495298    0.151045
     82          6           0       -5.908267    3.003985   -1.577998
     83          6           0       -1.240944    2.339016   -1.966392
     84          6           0       -1.649432   -2.251615   -0.936779
     85          7           0       -5.824264    0.634402   -0.677494
     86          6           0       -6.760725   -0.204105   -0.259994
     87          6           0       -8.189276    0.401000   -0.208472
     88          6           0       -7.994189    1.570623   -1.291439
     89          6           0       -6.487558    1.780914   -1.155370
     90          6           0       -8.287990    1.127727   -2.715115
     91          6           0       -8.542072    0.981002    1.206147
     92          6           0      -10.022395    1.306647    1.416743
     93          1           0      -10.600869    1.091887    2.740275
     94          7           0       -3.518873    2.555767   -1.178779
     95          6           0       -4.550423    3.376278   -1.468521
     96          6           0       -3.953875    4.694976   -1.731844
     97          6           0       -2.473004    4.547665   -1.735352
     98          6           0       -2.351260    3.106402   -1.645662
     99          6           0       -4.772716    5.945454   -1.870552
    100          6           0       -1.352065    5.538903   -1.819986
    101          8           0       -0.144797    5.172451   -2.045914
    102          6           0       -1.723327    6.958179   -1.723634
    103          7           0       -1.775143    0.103266   -1.568429
    104          6           0       -0.908943    1.047889   -1.975009
    105          6           0        0.447258    0.453331   -2.271002
    106          6           0        0.379059   -1.055345   -1.744864
    107          6           0       -1.098402   -1.100673   -1.297167
    108          6           0        0.870917    0.461216   -3.739618
    109          6           0        1.471749   -1.498103   -0.733593
    110          6           0        1.290189   -0.765288    0.576147
    111          7           0       -3.869545   -1.472080   -0.276467
    112          6           0       -2.927399   -2.508360   -0.456923
    113          6           0       -3.599592   -3.774760   -0.100805
    114          6           0       -4.903414   -3.386864    0.242798
    115          6           0       -5.040435   -1.980590    0.090799
    116          6           0       -3.018353   -5.072402   -0.167326
    117          6           0       -6.198065   -3.848597    0.689320
    118          8           0       -6.653186   -4.928140    1.065057
    119          6           0       -7.241439   -2.660367    0.528462
    120          6           0       -8.031275   -2.559818    1.804619
    121          8           0       -7.475774   -2.230606    2.867467
    122          8           0       -9.342793   -2.655591    1.519805
    123          6           0      -10.168018   -2.550366    2.752584
    124          1           0       -6.544633    3.733392   -2.079870
    125          1           0       -0.358360    2.897512   -2.286707
    126          1           0       -1.076467   -3.179334   -0.875720
    127          1           0       -8.978666   -0.270406   -0.524457
    128          1           0       -8.532281    2.469830   -1.002914
    129          1           0       -8.465832    0.064422   -2.777675
    130          1           0       -7.415141    1.400035   -3.293943
    131          1           0       -9.116861    1.710077   -3.127609
    132          1           0       -8.113462    1.987315    1.297604
    133          1           0       -8.202621    0.323692    1.982900
    134          1           0      -10.657186    0.858681    0.642593
    135          1           0      -10.162606    2.382744    1.288733
    136          1           0       -5.839307    5.716982   -1.987097
    137          1           0       -4.488918    6.409692   -2.821245
    138          1           0       -4.594083    6.657736   -1.062218
    139          1           0       -2.426287    7.202220   -2.516570
    140          1           0       -0.779690    7.507144   -1.715041
    141          1           0       -2.249650    7.118577   -0.776068
    142          1           0        1.225887    0.978706   -1.731715
    143          1           0        0.480538   -1.778652   -2.567275
    144          1           0        1.830799    0.982973   -3.914182
    145          1           0        0.079701    0.916070   -4.320677
    146          1           0        0.959963   -0.521357   -4.199857
    147          1           0        2.463358   -1.228398   -1.105266
    148          1           0        1.478166   -2.566418   -0.544826
    149          1           0        1.792048    0.190104    0.395996
    150          1           0        1.762620   -1.312045    1.389716
    151          1           0        0.231611   -0.551317    0.763947
    152          1           0       -3.310260   -5.590991    0.736198
    153          1           0       -1.935955   -5.018750   -0.263809
    154          1           0       -3.493103   -5.452421   -1.075873
    155          1           0       -7.875114   -2.894488   -0.327815
    156          1           0      -10.798372   -3.444100    2.792337
    157          1           0      -10.682752   -1.573514    2.685048
    158          1           0       -9.655408   -2.610563    3.705501
 ---------------------------------------------------------------------

 SCF Done:  E(RCAM-B3LYP) =  -4069.81332816     A.U. after   19 cycles

 Excitation energies and oscillator strengths:

 Excited State   1:      Singlet-A      1.6256 eV  762.69 nm  f=0.0019  <S**2>=0.000
     309 -> 315       -0.11182
     310 -> 316        0.11304
     311 -> 313       -0.47926
     312 -> 314        0.49035
 This state for optimization and/or second-order correction.
 Total Energy, E(TD-HF/TD-DFT) =  -4069.75358816
 Copying the excited state density for this state as the 1-particle RhoCI density.

 Excited State   2:      Singlet-A      1.7090 eV  725.48 nm  f=0.6644  <S**2>=0.000
     309 -> 315        0.13116
     310 -> 316        0.12634
     311 -> 313        0.48846
     312 -> 314        0.47795

 Excited State   3:      Singlet-A      2.1735 eV  570.43 nm  f=0.0666  <S**2>=0.000
     309 -> 313        0.52576
     310 -> 314        0.37041
     311 -> 315       -0.21841
     312 -> 316       -0.14545

 Excited State   4:      Singlet-A      2.1822 eV  568.16 nm  f=0.1317  <S**2>=0.000
     309 -> 313       -0.36492
     310 -> 314        0.52480
     311 -> 315        0.15932
     312 -> 316       -0.22277

 Excited State   5:      Singlet-A      2.2490 eV  551.28 nm  f=0.0017  <S**2>=0.000
     312 -> 313        0.70052

 The electronic state is 1-A.
 Alpha  occ. eigenvalues --  -46.87586 -46.87346 -19.26748 -19.26163 -19.19721
 Alpha  occ. eigenvalues --  -19.18962 -19.18661 -19.18619 -19.18231 -19.17795
 Alpha  occ. eigenvalues --  -14.42447 -14.42195 -14.41349 -14.40999 -14.39292
 Alpha  occ. eigenvalues --  -14.39059 -14.38307 -14.38278 -10.39630 -10.38884
 Alpha  occ. eigenvalues --  -10.35324 -10.35236 -10.34478 -10.33969 -10.32041
 Alpha  occ. eigenvalues --  -10.31597 -10.31529 -10.30991 -10.30852 -10.30779
 Alpha  occ. eigenvalues --  -10.30637 -10.30492 -10.30072 -10.30068 -10.30021
 Alpha  occ. eigenvalues --  -10.29918 -10.29710 -10.29619 -10.29512 -10.29125
 Alpha  occ. eigenvalues --  -10.29095 -10.29091 -10.28871 -10.28756 -10.28499
 Alpha  occ. eigenvalues --  -10.28493 -10.28241 -10.28209 -10.28139 -10.27903
 Alpha  occ. eigenvalues --  -10.27721 -10.27706 -10.27701 -10.27524 -10.27380
 Alpha  occ. eigenvalues --  -10.27365 -10.27361 -10.27347 -10.27342 -10.27267
 Alpha  occ. eigenvalues --  -10.27190 -10.27189 -10.27187 -10.26974 -10.26931
 Alpha  occ. eigenvalues --  -10.26805 -10.26715 -10.26501 -10.26402 -10.26292
 Alpha  occ. eigenvalues --  -10.25995 -10.25986 -10.25980 -10.25811 -10.25790
 Alpha  occ. eigenvalues --  -10.25443 -10.25349 -10.25319 -10.25094 -10.24966
 Alpha  occ. eigenvalues --  -10.24887 -10.24798 -10.24770 -10.24578 -10.24431
 Alpha  occ. eigenvalues --  -10.24380  -3.16287  -3.16097  -1.91164  -1.90979
 Alpha  occ. eigenvalues --   -1.90765  -1.90605  -1.90567  -1.90404  -1.17116
 Alpha  occ. eigenvalues --   -1.16453  -1.08740  -1.08404  -1.07239  -1.07010
 Alpha  occ. eigenvalues --   -1.06909  -1.06745  -1.04614  -1.04204  -1.03716
 Alpha  occ. eigenvalues --   -1.03345  -1.03190  -1.02693  -1.02369  -1.01784
 Alpha  occ. eigenvalues --   -0.92032  -0.91691  -0.89448  -0.89294  -0.89071
 Alpha  occ. eigenvalues --   -0.88890  -0.88203  -0.87930  -0.87718  -0.87683
 Alpha  occ. eigenvalues --   -0.87432  -0.87352  -0.87100  -0.86905  -0.85051
 Alpha  occ. eigenvalues --   -0.84746  -0.83868  -0.83587  -0.82823  -0.82779
 Alpha  occ. eigenvalues --   -0.82587  -0.82429  -0.81724  -0.81335  -0.80611
 Alpha  occ. eigenvalues --   -0.80185  -0.78686  -0.78360  -0.77203  -0.77016
 Alpha  occ. eigenvalues --   -0.76875  -0.76658  -0.75992  -0.75584  -0.74850
 Alpha  occ. eigenvalues --   -0.74536  -0.72734  -0.72365  -0.71688  -0.71277
 Alpha  occ. eigenvalues --   -0.69773  -0.69416  -0.68907  -0.68579  -0.67637
 Alpha  occ. eigenvalues --   -0.67313  -0.67230  -0.67001  -0.65392  -0.65024
 Alpha  occ. eigenvalues --   -0.64927  -0.64646  -0.64441  -0.64360  -0.64196
 Alpha  occ. eigenvalues --   -0.63791  -0.62477  -0.61989  -0.60309  -0.60071
 Alpha  occ. eigenvalues --   -0.59887  -0.59532  -0.58996  -0.58663  -0.58532
 Alpha  occ. eigenvalues --   -0.58122  -0.57803  -0.57290  -0.57263  -0.56908
 Alpha  occ. eigenvalues --   -0.56394  -0.56138  -0.55894  -0.55650  -0.55509
 Alpha  occ. eigenvalues --   -0.55371  -0.55235  -0.55064  -0.54650  -0.54341
 Alpha  occ. eigenvalues --   -0.53990  -0.53674  -0.53307  -0.53194  -0.53056
 Alpha  occ. eigenvalues --   -0.52974  -0.52890  -0.52687  -0.52551  -0.52507
 Alpha  occ. eigenvalues --   -0.52350  -0.52285  -0.51907  -0.51636  -0.51498
 Alpha  occ. eigenvalues --   -0.51427  -0.51222  -0.50966  -0.50348  -0.50297
 Alpha  occ. eigenvalues --   -0.50067  -0.49868  -0.49744  -0.49672  -0.49434
 Alpha  occ. eigenvalues --   -0.49309  -0.49222  -0.49129  -0.48959  -0.48861
 Alpha  occ. eigenvalues --   -0.48595  -0.48447  -0.48330  -0.48307  -0.48186
 Alpha  occ. eigenvalues --   -0.48086  -0.47665  -0.47350  -0.47250  -0.46852
 Alpha  occ. eigenvalues --   -0.46768  -0.46619  -0.46483  -0.46366  -0.46252
 Alpha  occ. eigenvalues --   -0.46147  -0.46007  -0.45800  -0.45732  -0.45479
 Alpha  occ. eigenvalues --   -0.45149  -0.44999  -0.44527  -0.44512  -0.44291
 Alpha  occ. eigenvalues --   -0.44206  -0.44147  -0.44052  -0.43935  -0.43898
 Alpha  occ. eigenvalues --   -0.43853  -0.43714  -0.43588  -0.43462  -0.43231
 Alpha  occ. eigenvalues --   -0.43089  -0.43040  -0.42937  -0.42696  -0.42589
 Alpha  occ. eigenvalues --   -0.42559  -0.42178  -0.41975  -0.41737  -0.41698
 Alpha  occ. eigenvalues --   -0.41523  -0.41373  -0.41219  -0.41113  -0.40877
 Alpha  occ. eigenvalues --   -0.40812  -0.40640  -0.40595  -0.40485  -0.40461
 Alpha  occ. eigenvalues --   -0.40186  -0.40056  -0.39997  -0.39270  -0.39175
 Alpha  occ. eigenvalues --   -0.38403  -0.38046  -0.37821  -0.37429  -0.37286
 Alpha  occ. eigenvalues --   -0.37227  -0.37062  -0.36940  -0.36779  -0.36511
 Alpha  occ. eigenvalues --   -0.36240  -0.35817  -0.34335  -0.34084  -0.33922
 Alpha  occ. eigenvalues --   -0.33642  -0.33137  -0.32845  -0.31211  -0.31156
 Alpha  occ. eigenvalues --   -0.30967  -0.30661  -0.30098  -0.29695  -0.29301
 Alpha  occ. eigenvalues --   -0.29188  -0.29073  -0.28906  -0.24038  -0.23709
 Alpha  occ. eigenvalues --   -0.21129  -0.20793
 Alpha virt. eigenvalues --   -0.08754  -0.08496  -0.01728  -0.01374   0.00017
 Alpha virt. eigenvalues --    0.00168   0.02163   0.02511   0.03335   0.04545
 Alpha virt. eigenvalues --    0.04635   0.05021   0.05160   0.05391   0.06185

 Mulliken charges:
               1
     1  Mg   0.689606
     2  C   -0.009562
     3  C   -0.091932
     4  C   -0.042983
     5  C   -0.060402
     6  N   -0.248726
     7  C   -0.058364
     8  C   -0.014323
     9  C   -0.083960
    10  C    0.048118
    11  C    0.105510
    12  C    0.042566
    13  C   -0.070392
    14  H    0.035428
    15  N   -0.423243
    16  C    0.167979
    17  C   -0.170704
    18  C    0.000449
    19  C    0.151205
    20  C    0.108548
    21  C    0.017181
    22  O   -0.250266
    23  C    0.056386
    24  N   -0.327479
    25  C    0.045294
    26  C   -0.028062
    27  C   -0.022098
    28  C    0.073655
    29  C    0.076544
    30  C    0.034881
    31  C   -0.006867
    32  N   -0.318476
    33  C    0.074408
    34  C   -0.170796
    35  C    0.011707
    36  C    0.069842
    37  C    0.127797
    38  C    0.042847
    39  O   -0.188943
    40  C   -0.006261
    41  C    0.218211
    42  O   -0.261687
    43  O   -0.302659
    44  C    0.156417
    45  H   -0.018332
    46  H   -0.017006
    47  H   -0.042860
    48  H   -0.001872
    49  H   -0.004029
    50  H    0.025862
    51  H    0.017773
    52  H    0.016760
    53  H    0.012812
    54  H    0.045496
    55  H    0.018789
    56  H    0.018913
    57  H    0.004651
    58  H    0.025709
    59  H    0.050554
    60  H    0.035092
    61  H    0.033243
    62  H    0.045220
    63  H    0.017214
    64  H    0.008990
    65  H    0.023337
    66  H    0.012255
    67  H    0.004958
    68  H    0.006288
    69  H    0.004993
    70  H    0.008398
    71  H    0.020241
    72  H    0.031532
    73  H    0.045786
    74  H    0.009887
    75  H    0.045725
    76  H    0.035700
    77  H    0.045044
    78  H    0.047810
    79  H    0.052750
    80  Mg   0.836968
    81  C   -0.017883
    82  C   -0.088530
    83  C   -0.045821
    84  C   -0.069119
    85  N   -0.254679
    86  C   -0.049641
    87  C   -0.015103
    88  C   -0.090359
    89  C    0.045357
    90  C    0.114656
    91  C    0.062635
    92  C   -0.077496
    93  H    0.034131
    94  N   -0.423101
    95  C    0.162298
    96  C   -0.175441
    97  C   -0.009426
    98  C    0.152323
    99  C    0.099532
   100  C    0.016431
   101  O   -0.259234
   102  C    0.061873
   103  N   -0.349466
   104  C    0.034705
   105  C   -0.022541
   106  C   -0.018313
   107  C    0.084573
   108  C    0.072553
   109  C    0.010544
   110  C   -0.010239
   111  N   -0.324127
   112  C    0.078708
   113  C   -0.161518
   114  C    0.001723
   115  C    0.096714
   116  C    0.129885
   117  C    0.042486
   118  O   -0.188063
   119  C    0.001016
   120  C    0.211159
   121  O   -0.251464
   122  O   -0.305617
   123  C    0.152243
   124  H   -0.020962
   125  H   -0.017858
   126  H   -0.025801
   127  H   -0.001078
   128  H   -0.005021
   129  H    0.022133
   130  H    0.014258
   131  H    0.015370
   132  H    0.013953
   133  H    0.037458
   134  H    0.020564
   135  H    0.019308
   136  H    0.008387
   137  H    0.024461
   138  H    0.038954
   139  H    0.038304
   140  H    0.031513
   141  H    0.035829
   142  H    0.019241
   143  H    0.023573
   144  H    0.025259
   145  H    0.007225
   146  H    0.009312
   147  H    0.040175
   148  H    0.025549
   149  H    0.021103
   150  H    0.084812
   151  H    0.025139
   152  H    0.044950
   153  H    0.017348
   154  H    0.046604
   155  H    0.034516
   156  H    0.043568
   157  H    0.049238
   158  H    0.053210
 Sum of Mulliken charges =  -0.00000

 Dipole moment (field-independent basis, Debye):
    X=              1.1574    Y=              6.4961    Z=             -4.1707  Tot=              7.8060
 Quadrupole moment (field-independent basis, Debye-Ang):
   XX=           -456.9182   YY=           -539.2206   ZZ=           -483.4938
   XY=            -28.2154   XZ=             -4.6769   YZ=             -5.7214

 Normal termination of Gaussian 16 at Wed Sep  8 14:36:14 2021.
