 Gaussian 16, Revision A.03,
 Gaussian 16:  ES64L-G16RevA.03 25-Dec-2016

 -----------------------------------
 #p cam-b3lyp/Def2SVP td=(nstates=5)
 -----------------------------------

 --------------------------------
 TDDFT excited states in gaussian
 --------------------------------
 Symbolic Z-matrix:
 Charge =  0 Multiplicity = 1

                         Standard orientation:
 ---------------------------------------------------------------------
 Center     Atomic      Atomic             Coordinates (Angstroms)
 Number     Number       Type             X           Y           Z
 ---------------------------------------------------------------------
      1         12           0        4.271343    1.111308    0.495265
      2          6           0        5.259244   -1.719175   -1.460402
      3          6           0        4.682414    3.006889   -2.312021
      4          6           0        3.845280    3.683110    2.301069
      5          6           0        5.032828   -0.767491    3.330035
      6          7           0        4.893588    0.593962   -1.565271
      7          6           0        5.186592   -0.536687   -2.200056
      8          6           0        5.335380   -0.359505   -3.740784
      9          6           0        5.695442    1.193123   -3.782012
     10          6           0        5.020879    1.633167   -2.494669
     11          6           0        7.190599    1.474896   -3.674256
     12          6           0        4.002036   -0.658886   -4.505176
     13          6           0        4.141538   -0.827472   -6.020917
     14          1           0        3.293593   -1.796444   -6.698731
     15          7           0        3.794078    2.962308   -0.003598
     16          6           0        4.021290    3.563878   -1.195980
     17          6           0        3.483902    4.935687   -1.069356
     18          6           0        3.097280    5.143353    0.353842
     19          6           0        3.594078    3.931451    0.953727
     20          6           0        3.335666    5.871653   -2.229419
     21          6           0        2.401336    6.261902    1.062816
     22          8           0        2.371645    6.344698    2.338291
     23          6           0        1.823546    7.319289    0.213620
     24          7           0        4.622618    1.501934    2.515575
     25          6           0        4.294888    2.679886    3.057799
     26          6           0        4.372614    2.632311    4.555008
     27          6           0        4.588776    1.097244    4.937889
     28          6           0        4.684399    0.508742    3.508626
     29          6           0        5.481623    3.478917    5.194827
     30          6           0        3.575176    0.469893    5.927566
     31          6           0        2.211807    0.382136    5.279012
     32          7           0        4.844846   -0.941216    0.906711
     33          6           0        5.134210   -1.500803    2.159629
     34          6           0        5.577303   -2.886861    1.921765
     35          6           0        5.530456   -3.032976    0.536738
     36          6           0        5.111407   -1.807166   -0.054937
     37          6           0        6.011714   -3.805431    2.917733
     38          6           0        5.760568   -3.931907   -0.582560
     39          8           0        6.033816   -5.128079   -0.692108
     40          6           0        5.711368   -3.080458   -1.927344
     41          6           0        4.832246   -3.817899   -2.900295
     42          8           0        3.608616   -3.942678   -2.689287
     43          8           0        5.517534   -4.051087   -4.030138
     44          6           0        4.693262   -4.754204   -5.049136
     45          1           0        5.002953    3.733577   -3.061101
     46          1           0        3.604293    4.512065    2.969796
     47          1           0        5.205793   -1.440151    4.172094
     48          1           0        6.141306   -0.940604   -4.189373
     49          1           0        5.242131    1.693419   -4.637544
     50          1           0        7.752509    0.566679   -3.456723
     51          1           0        7.293802    2.190943   -2.858708
     52          1           0        7.554265    1.983579   -4.567433
     53          1           0        3.364141    0.224415   -4.474678
     54          1           0        3.507440   -1.537119   -4.088754
     55          1           0        5.183524   -0.961529   -6.312812
     56          1           0        3.844862    0.107032   -6.497242
     57          1           0        3.856499    5.501613   -3.111659
     58          1           0        3.862614    6.789016   -1.967732
     59          1           0        2.290884    6.096409   -2.444471
     60          1           0        2.613424    7.769367   -0.388104
     61          1           0        1.289415    7.987996    0.887701
     62          1           0        1.124058    6.865168   -0.488832
     63          1           0        3.446404    2.985965    5.006106
     64          1           0        5.558457    0.924981    5.405564
     65          1           0        5.114639    4.204882    5.920777
     66          1           0        6.034055    3.970893    4.394784
     67          1           0        6.270176    2.906248    5.682322
     68          1           0        3.470020    1.097937    6.811562
     69          1           0        3.860838   -0.527662    6.261531
     70          1           0        1.799748    1.377206    5.442952
     71          1           0        1.604472   -0.377946    5.771587
     72          1           0        2.292126    0.236152    4.201643
     73          1           0        5.548305   -4.761361    2.673973
     74          1           0        5.728495   -3.470905    3.915472
     75          1           0        7.089719   -3.780270    2.759217
     76          1           0        6.737606   -2.998168   -2.283977
     77          1           0        5.230677   -5.661086   -5.326597
     78          1           0        4.486616   -4.027924   -5.835406
     79          1           0        3.749015   -5.173306   -4.699723
     80         12           0       -4.420881   -1.234139    0.445419
     81          6           0       -4.911199    1.420836   -1.918853
     82          6           0       -4.175743    1.162526    2.860054
     83          6           0       -3.541003   -3.509238    2.474487
     84          6           0       -3.572635   -3.283967   -2.242406
     85          7           0       -4.545297    0.972471    0.358014
     86          6           0       -4.795981    1.867240   -0.585846
     87          6           0       -5.010533    3.312413   -0.061443
     88          6           0       -4.198935    3.190318    1.318875
     89          6           0       -4.340385    1.687784    1.553499
     90          6           0       -2.720965    3.514805    1.178732
     91          6           0       -6.524688    3.638616    0.189423
     92          6           0       -6.835955    5.121292    0.405090
     93          1           0       -8.096337    5.649879   -0.109226
     94          7           0       -4.411682   -1.251756    2.429894
     95          6           0       -4.329545   -0.185243    3.252751
     96          6           0       -4.340518   -0.729698    4.619359
     97          6           0       -4.269678   -2.213731    4.533643
     98          6           0       -4.045492   -2.385270    3.112231
     99          6           0       -4.492847    0.133553    5.837968
    100          6           0       -4.372284   -3.298414    5.562769
    101          8           0       -4.043926   -4.509178    5.299980
    102          6           0       -4.779478   -2.884278    6.913396
    103          7           0       -3.463469   -3.061311    0.186322
    104          6           0       -3.247886   -3.882782    1.228747
    105          6           0       -2.798628   -5.247533    0.763969
    106          6           0       -2.990762   -5.245465   -0.823688
    107          6           0       -3.453997   -3.785323   -1.020632
    108          6           0       -1.355991   -5.623583    1.101270
    109          6           0       -3.856921   -6.383769   -1.429260
    110          6           0       -5.297264   -6.220292   -1.000206
    111          7           0       -4.438191   -1.061799   -1.708197
    112          6           0       -4.017125   -2.031035   -2.644875
    113          6           0       -4.109783   -1.412272   -3.983150
    114          6           0       -4.559994   -0.108117   -3.728246
    115          6           0       -4.716211    0.079537   -2.328293
    116          6           0       -3.752714   -2.033152   -5.213245
    117          6           0       -4.928425    1.155851   -4.324360
    118          8           0       -5.075018    1.563243   -5.475999
    119          6           0       -5.051216    2.242071   -3.170486
    120          6           0       -6.338011    2.993612   -3.375065
    121          8           0       -7.432945    2.415490   -3.258828
    122          8           0       -6.071139    4.309727   -3.458618
    123          6           0       -7.317444    5.098159   -3.650753
    124          1           0       -3.857373    1.838073    3.654512
    125          1           0       -3.326518   -4.362434    3.122204
    126          1           0       -3.419594   -3.888562   -3.138906
    127          1           0       -4.577231    4.089154   -0.680079
    128          1           0       -4.686376    3.748002    2.114337
    129          1           0       -2.436357    3.659743    0.147165
    130          1           0       -2.192966    2.670250    1.601819
    131          1           0       -2.463027    4.375017    1.803118
    132          1           0       -6.819247    3.240384    1.168902
    133          1           0       -7.134112    3.253240   -0.604757
    134          1           0       -5.999399    5.765521    0.108274
    135          1           0       -6.944930    5.300585    1.477473
    136          1           0       -4.355923    1.195292    5.598479
    137          1           0       -3.657124   -0.104423    6.504908
    138          1           0       -5.430461   -0.047455    6.367860
    139          1           0       -4.074506   -2.148761    7.293510
    140          1           0       -4.882647   -3.809277    7.484016
    141          1           0       -5.751852   -2.383531    6.847518
    142          1           0       -3.418942   -6.025403    1.192003
    143          1           0       -2.030264   -5.344197   -1.350483
    144          1           0       -1.274086   -6.559850    1.685030
    145          1           0       -0.905222   -4.799782    1.638579
    146          1           0       -0.693889   -5.729925    0.243649
    147          1           0       -3.527767   -7.353663   -1.048304
    148          1           0       -3.812181   -6.431094   -2.512193
    149          1           0       -5.313916   -6.684673   -0.009674
    150          1           0       -5.963094   -6.736069   -1.689176
    151          1           0       -5.552125   -5.161830   -0.872365
    152          1           0       -4.530924   -1.787328   -5.923494
    153          1           0       -3.643792   -3.109585   -5.098374
    154          1           0       -2.795609   -1.542292   -5.408866
    155          1           0       -4.180255    2.894785   -3.240978
    156          1           0       -7.180021    5.697404   -4.556136
    157          1           0       -7.473262    5.646412   -2.702665
    158          1           0       -8.222633    4.553683   -3.892885
 ---------------------------------------------------------------------

 SCF Done:  E(RCAM-B3LYP) =  -4069.81236717     A.U. after   19 cycles

 Excitation energies and oscillator strengths:

 Excited State   1:      Singlet-A      1.6658 eV  744.30 nm  f=0.2423  <S**2>=0.000
     310 -> 316       -0.14128
     311 -> 313        0.39022
     312 -> 314        0.56471
 This state for optimization and/or second-order correction.
 Total Energy, E(TD-HF/TD-DFT) =  -4069.75115118
 Copying the excited state density for this state as the 1-particle RhoCI density.

 Excited State   2:      Singlet-A      1.6803 eV  737.87 nm  f=0.4317  <S**2>=0.000
     309 -> 315       -0.14401
     311 -> 313        0.56368
     312 -> 314       -0.38954

 Excited State   3:      Singlet-A      2.1827 eV  568.03 nm  f=0.0852  <S**2>=0.000
     309 -> 313        0.20540
     310 -> 314        0.60985
     312 -> 316        0.25611

 Excited State   4:      Singlet-A      2.1922 eV  565.57 nm  f=0.1100  <S**2>=0.000
     309 -> 313        0.60699
     310 -> 314       -0.20383
     311 -> 315        0.26323

 Excited State   5:      Singlet-A      2.3455 eV  528.61 nm  f=0.0000  <S**2>=0.000
     312 -> 313        0.70707

 The electronic state is 1-A.
 Alpha  occ. eigenvalues --  -46.87915 -46.87445 -19.26413 -19.26309 -19.19166
 Alpha  occ. eigenvalues --  -19.19092 -19.19006 -19.18547 -19.18294 -19.17933
 Alpha  occ. eigenvalues --  -14.42559 -14.42289 -14.41574 -14.41112 -14.39528
 Alpha  occ. eigenvalues --  -14.39146 -14.38704 -14.38396 -10.39220 -10.39018
 Alpha  occ. eigenvalues --  -10.35640 -10.35227 -10.34512 -10.34112 -10.31803
 Alpha  occ. eigenvalues --  -10.31743 -10.31502 -10.31115 -10.31019 -10.30838
 Alpha  occ. eigenvalues --  -10.30680 -10.30639 -10.30339 -10.30190 -10.30168
 Alpha  occ. eigenvalues --  -10.30053 -10.29866 -10.29757 -10.29632 -10.29378
 Alpha  occ. eigenvalues --  -10.29219 -10.29214 -10.28820 -10.28577 -10.28568
 Alpha  occ. eigenvalues --  -10.28555 -10.28486 -10.28220 -10.28183 -10.27959
 Alpha  occ. eigenvalues --  -10.27913 -10.27831 -10.27818 -10.27716 -10.27649
 Alpha  occ. eigenvalues --  -10.27611 -10.27575 -10.27521 -10.27457 -10.27311
 Alpha  occ. eigenvalues --  -10.27291 -10.27282 -10.27278 -10.27116 -10.26975
 Alpha  occ. eigenvalues --  -10.26946 -10.26752 -10.26618 -10.26574 -10.26349
 Alpha  occ. eigenvalues --  -10.26295 -10.26287 -10.26138 -10.25936 -10.25814
 Alpha  occ. eigenvalues --  -10.25803 -10.25696 -10.25680 -10.25587 -10.24953
 Alpha  occ. eigenvalues --  -10.24923 -10.24878 -10.24813 -10.24697 -10.24456
 Alpha  occ. eigenvalues --  -10.24454  -3.16658  -3.16195  -1.91539  -1.91126
 Alpha  occ. eigenvalues --   -1.91077  -1.90968  -1.90665  -1.90503  -1.16764
 Alpha  occ. eigenvalues --   -1.16596  -1.08752  -1.08551  -1.07414  -1.06878
 Alpha  occ. eigenvalues --   -1.06800  -1.06784  -1.04691  -1.04297  -1.03884
 Alpha  occ. eigenvalues --   -1.03447  -1.03357  -1.02806  -1.02533  -1.01890
 Alpha  occ. eigenvalues --   -0.92090  -0.91812  -0.89659  -0.89262  -0.89232
 Alpha  occ. eigenvalues --   -0.88974  -0.88429  -0.87979  -0.87907  -0.87777
 Alpha  occ. eigenvalues --   -0.87614  -0.87466  -0.87410  -0.86948  -0.85073
 Alpha  occ. eigenvalues --   -0.84821  -0.84086  -0.83572  -0.83131  -0.82761
 Alpha  occ. eigenvalues --   -0.82733  -0.82473  -0.81704  -0.81463  -0.80720
 Alpha  occ. eigenvalues --   -0.80279  -0.78919  -0.78454  -0.77334  -0.77033
 Alpha  occ. eigenvalues --   -0.76954  -0.76696  -0.76024  -0.75674  -0.75033
 Alpha  occ. eigenvalues --   -0.74478  -0.72891  -0.72491  -0.71788  -0.71335
 Alpha  occ. eigenvalues --   -0.70060  -0.69438  -0.68974  -0.68652  -0.67770
 Alpha  occ. eigenvalues --   -0.67406  -0.67312  -0.67052  -0.65380  -0.65110
 Alpha  occ. eigenvalues --   -0.64974  -0.64739  -0.64577  -0.64470  -0.64406
 Alpha  occ. eigenvalues --   -0.63921  -0.62425  -0.62134  -0.60581  -0.60129
 Alpha  occ. eigenvalues --   -0.59894  -0.59622  -0.59109  -0.58777  -0.58628
 Alpha  occ. eigenvalues --   -0.58228  -0.57708  -0.57447  -0.57434  -0.57008
 Alpha  occ. eigenvalues --   -0.56428  -0.56095  -0.56033  -0.55763  -0.55654
 Alpha  occ. eigenvalues --   -0.55480  -0.55309  -0.55008  -0.54663  -0.54249
 Alpha  occ. eigenvalues --   -0.53975  -0.53742  -0.53434  -0.53337  -0.53045
 Alpha  occ. eigenvalues --   -0.53034  -0.52972  -0.52883  -0.52741  -0.52597
 Alpha  occ. eigenvalues --   -0.52513  -0.52112  -0.52023  -0.51718  -0.51715
 Alpha  occ. eigenvalues --   -0.51511  -0.51315  -0.51022  -0.50717  -0.50301
 Alpha  occ. eigenvalues --   -0.50171  -0.50055  -0.49797  -0.49631  -0.49554
 Alpha  occ. eigenvalues --   -0.49336  -0.49320  -0.49186  -0.49047  -0.48939
 Alpha  occ. eigenvalues --   -0.48706  -0.48614  -0.48586  -0.48404  -0.48186
 Alpha  occ. eigenvalues --   -0.48063  -0.47814  -0.47420  -0.47399  -0.46914
 Alpha  occ. eigenvalues --   -0.46894  -0.46643  -0.46492  -0.46483  -0.46359
 Alpha  occ. eigenvalues --   -0.46288  -0.46062  -0.45931  -0.45839  -0.45658
 Alpha  occ. eigenvalues --   -0.45341  -0.44879  -0.44698  -0.44636  -0.44350
 Alpha  occ. eigenvalues --   -0.44287  -0.44281  -0.44182  -0.44144  -0.43960
 Alpha  occ. eigenvalues --   -0.43851  -0.43791  -0.43616  -0.43494  -0.43412
 Alpha  occ. eigenvalues --   -0.43177  -0.43146  -0.42839  -0.42825  -0.42798
 Alpha  occ. eigenvalues --   -0.42688  -0.42280  -0.42138  -0.41827  -0.41738
 Alpha  occ. eigenvalues --   -0.41622  -0.41479  -0.41263  -0.41253  -0.40998
 Alpha  occ. eigenvalues --   -0.40962  -0.40765  -0.40701  -0.40561  -0.40507
 Alpha  occ. eigenvalues --   -0.40299  -0.40192  -0.40094  -0.39602  -0.39111
 Alpha  occ. eigenvalues --   -0.38601  -0.38045  -0.37827  -0.37496  -0.37451
 Alpha  occ. eigenvalues --   -0.37354  -0.37042  -0.36980  -0.36849  -0.36654
 Alpha  occ. eigenvalues --   -0.36321  -0.35965  -0.34404  -0.34045  -0.33914
 Alpha  occ. eigenvalues --   -0.33765  -0.33310  -0.32962  -0.31535  -0.31160
 Alpha  occ. eigenvalues --   -0.31100  -0.30764  -0.30151  -0.29841  -0.29582
 Alpha  occ. eigenvalues --   -0.29442  -0.29145  -0.29033  -0.24199  -0.23821
 Alpha  occ. eigenvalues --   -0.21246  -0.20902
 Alpha virt. eigenvalues --   -0.08899  -0.08594  -0.01879  -0.01456  -0.00199
 Alpha virt. eigenvalues --    0.00142   0.02071   0.02374   0.02835   0.03492
 Alpha virt. eigenvalues --    0.04621   0.04940   0.04964   0.05246   0.06111

 Mulliken charges:
               1
     1  Mg   0.838902
     2  C   -0.002983
     3  C   -0.093217
     4  C   -0.046688
     5  C   -0.063750
     6  N   -0.256838
     7  C   -0.052038
     8  C   -0.014192
     9  C   -0.087143
    10  C    0.046336
    11  C    0.104705
    12  C    0.053221
    13  C   -0.072173
    14  H    0.036246
    15  N   -0.433086
    16  C    0.168265
    17  C   -0.176911
    18  C   -0.004601
    19  C    0.148574
    20  C    0.109972
    21  C    0.010973
    22  O   -0.250971
    23  C    0.062760
    24  N   -0.341120
    25  C    0.041422
    26  C   -0.027993
    27  C   -0.023932
    28  C    0.074757
    29  C    0.076185
    30  C    0.035184
    31  C   -0.004407
    32  N   -0.310531
    33  C    0.080603
    34  C   -0.169464
    35  C    0.008246
    36  C    0.082995
    37  C    0.127353
    38  C    0.045787
    39  O   -0.188394
    40  C   -0.005247
    41  C    0.213103
    42  O   -0.258253
    43  O   -0.304396
    44  C    0.157958
    45  H   -0.017042
    46  H   -0.017651
    47  H   -0.041182
    48  H    0.001049
    49  H   -0.003158
    50  H    0.025454
    51  H    0.016325
    52  H    0.017169
    53  H    0.012200
    54  H    0.043453
    55  H    0.017851
    56  H    0.019224
    57  H    0.006831
    58  H    0.026880
    59  H    0.039901
    60  H    0.038431
    61  H    0.034450
    62  H    0.030929
    63  H    0.015115
    64  H    0.009800
    65  H    0.022701
    66  H    0.012894
    67  H    0.005090
    68  H    0.005657
    69  H    0.005707
    70  H    0.005982
    71  H    0.019023
    72  H    0.029909
    73  H    0.047710
    74  H    0.009556
    75  H    0.046193
    76  H    0.035556
    77  H    0.043208
    78  H    0.047082
    79  H    0.052427
    80  Mg   0.837823
    81  C   -0.017467
    82  C   -0.088407
    83  C   -0.045492
    84  C   -0.061998
    85  N   -0.254724
    86  C   -0.050124
    87  C   -0.014947
    88  C   -0.090366
    89  C    0.045612
    90  C    0.113980
    91  C    0.062620
    92  C   -0.077493
    93  H    0.034092
    94  N   -0.423554
    95  C    0.163116
    96  C   -0.174896
    97  C   -0.008012
    98  C    0.152367
    99  C    0.099580
   100  C    0.015050
   101  O   -0.252907
   102  C    0.061392
   103  N   -0.350126
   104  C    0.038792
   105  C   -0.020868
   106  C   -0.035274
   107  C    0.089261
   108  C    0.071402
   109  C    0.034481
   110  C   -0.007455
   111  N   -0.324027
   112  C    0.078098
   113  C   -0.163032
   114  C    0.001404
   115  C    0.096475
   116  C    0.131891
   117  C    0.041581
   118  O   -0.189707
   119  C    0.001249
   120  C    0.211194
   121  O   -0.250867
   122  O   -0.306198
   123  C    0.152123
   124  H   -0.019142
   125  H   -0.015155
   126  H   -0.039782
   127  H   -0.002370
   128  H   -0.004336
   129  H    0.019712
   130  H    0.015464
   131  H    0.019404
   132  H    0.014081
   133  H    0.037381
   134  H    0.020054
   135  H    0.019895
   136  H    0.009014
   137  H    0.025274
   138  H    0.039335
   139  H    0.037515
   140  H    0.036030
   141  H    0.033794
   142  H    0.013350
   143  H    0.017875
   144  H    0.023942
   145  H    0.012245
   146  H    0.014542
   147  H    0.006878
   148  H    0.003204
   149  H    0.010672
   150  H    0.016931
   151  H    0.029296
   152  H    0.044962
   153  H    0.008953
   154  H    0.046269
   155  H    0.032986
   156  H    0.042977
   157  H    0.049530
   158  H    0.053632
 Sum of Mulliken charges =  -0.00000

 Dipole moment (field-independent basis, Debye):
    X=              2.9290    Y=              5.2950    Z=              1.2998  Tot=              6.1892
 Quadrupole moment (field-independent basis, Debye-Ang):
   XX=           -522.0471   YY=           -511.4429   ZZ=           -486.3272
   XY=              7.1607   XZ=            -35.7206   YZ=              8.4082

 Normal termination of Gaussian 16 at Thu Sep  9 21:46:00 2021.
