 Gaussian 16, Revision A.03,
 Gaussian 16:  ES64L-G16RevA.03 25-Dec-2016

 -----------------------------------
 #p cam-b3lyp/Def2SVP td=(nstates=5)
 -----------------------------------

 --------------------------------
 TDDFT excited states in gaussian
 --------------------------------
 Symbolic Z-matrix:
 Charge =  0 Multiplicity = 1

                         Standard orientation:
 ---------------------------------------------------------------------
 Center     Atomic      Atomic             Coordinates (Angstroms)
 Number     Number       Type             X           Y           Z
 ---------------------------------------------------------------------
      1         12           0        7.854922   -0.719564    0.193083
      2          6           0        8.100788    2.562184   -1.214716
      3          6           0        8.625493    0.678199    3.208965
      4          6           0        8.090537   -3.654597    1.370659
      5          6           0        8.228500   -1.972928   -3.037270
      6          7           0        8.284742    1.367334    0.793716
      7          6           0        8.288014    2.540833    0.169168
      8          6           0        8.434007    3.754432    1.135210
      9          6           0        9.146669    3.019098    2.357256
     10          6           0        8.627758    1.610342    2.129087
     11          6           0       10.668509    3.004415    2.255818
     12          6           0        7.048194    4.350535    1.554630
     13          6           0        7.104790    5.725364    2.226938
     14          1           0        6.036043    6.677490    1.965054
     15          7           0        7.811863   -1.357310    2.062381
     16          6           0        8.142586   -0.647693    3.167981
     17          6           0        7.945098   -1.561984    4.313299
     18          6           0        7.655096   -2.917491    3.768695
     19          6           0        7.869528   -2.700192    2.360797
     20          6           0        7.990158   -1.113190    5.741691
     21          6           0        7.259340   -4.207017    4.415714
     22          8           0        7.283100   -5.319394    3.785931
     23          6           0        6.923503   -4.146530    5.849798
     24          7           0        8.340436   -2.559351   -0.665460
     25          6           0        8.312092   -3.685955    0.054917
     26          6           0        8.415465   -4.897978   -0.822723
     27          6           0        8.275794   -4.370361   -2.323345
     28          6           0        8.193601   -2.851455   -2.032761
     29          6           0        9.708253   -5.714245   -0.687009
     30          6           0        7.169532   -5.015396   -3.195431
     31          6           0        5.807147   -4.632725   -2.661982
     32          7           0        7.942007    0.112499   -1.809698
     33          6           0        8.124712   -0.592253   -3.008288
     34          6           0        8.224327    0.408221   -4.086804
     35          6           0        8.108497    1.634078   -3.434346
     36          6           0        7.973097    1.414236   -2.033765
     37          6           0        8.457179    0.130092   -5.462616
     38          6           0        8.092332    3.079347   -3.591812
     39          8           0        8.074728    3.846499   -4.555483
     40          6           0        8.209020    3.741963   -2.148500
     41          6           0        7.156544    4.812749   -2.053537
     42          8           0        5.943664    4.519032   -2.049138
     43          8           0        7.738450    5.981975   -1.745578
     44          6           0        6.746122    7.081204   -1.607254
     45          1           0        9.087774    0.965657    4.155329
     46          1           0        8.068005   -4.688510    1.721306
     47          1           0        8.260892   -2.292445   -4.080492
     48          1           0        9.069364    4.558102    0.762570
     49          1           0        8.801093    3.399178    3.318421
     50          1           0       11.007422    3.389313    1.294095
     51          1           0       10.957829    1.959666    2.371089
     52          1           0       11.117864    3.534234    3.096145
     53          1           0        6.636059    3.760533    2.373228
     54          1           0        6.372590    4.394826    0.699690
     55          1           0        8.078388    6.196595    2.089251
     56          1           0        7.023056    5.582260    3.304454
     57          1           0        8.386624   -0.102612    5.831650
     58          1           0        8.724028   -1.739049    6.249080
     59          1           0        7.021896   -1.210080    6.233030
     60          1           0        7.780910   -3.764682    6.404408
     61          1           0        6.578679   -5.143938    6.120211
     62          1           0        6.119029   -3.424724    5.993905
     63          1           0        7.609983   -5.601135   -0.614888
     64          1           0        9.189949   -4.523346   -2.897444
     65          1           0        9.540632   -6.760181   -0.428891
     66          1           0       10.339563   -5.224880    0.054112
     67          1           0       10.353077   -5.698525   -1.565286
     68          1           0        7.237528   -6.101863   -3.151703
     69          1           0        7.222082   -4.721737   -4.243884
     70          1           0        5.644146   -5.359406   -1.866873
     71          1           0        5.051651   -4.731596   -3.442150
     72          1           0        5.822939   -3.644468   -2.201998
     73          1           0        7.776486    0.771011   -6.022838
     74          1           0        8.286314   -0.922276   -5.688294
     75          1           0        9.506562    0.410992   -5.550625
     76          1           0        9.216323    4.150035   -2.071432
     77          1           0        7.048653    7.874629   -2.290764
     78          1           0        6.695014    7.320669   -0.544969
     79          1           0        5.739385    6.870192   -1.969600
     80         12           0       -8.018591   -0.742909   -0.341645
     81          6           0       -7.852799    2.689212    0.693777
     82          6           0       -7.249485   -1.593592    2.870730
     83          6           0       -7.713583   -3.747296   -1.315325
     84          6           0       -7.640734    0.373015   -3.621529
     85          7           0       -7.625865    0.479761    1.459203
     86          6           0       -7.651487    1.772465    1.746619
     87          6           0       -7.530028    2.097492    3.259623
     88          6           0       -6.784081    0.756973    3.734420
     89          6           0       -7.273351   -0.194227    2.644239
     90          6           0       -5.269723    0.847127    3.645265
     91          6           0       -8.929570    2.252050    3.952014
     92          6           0       -8.890093    2.870948    5.350997
     93          1           0       -9.987470    3.744801    5.756729
     94          7           0       -8.035290   -2.436269    0.693156
     95          6           0       -7.716514   -2.597816    1.994523
     96          6           0       -7.868561   -4.034774    2.270606
     97          6           0       -8.143588   -4.732821    0.985380
     98          6           0       -7.949965   -3.644897    0.047820
     99          6           0       -7.829352   -4.605303    3.658549
    100          6           0       -8.506627   -6.148623    0.653856
    101          8           0       -8.465783   -6.590299   -0.548675
    102          6           0       -8.821083   -7.027886    1.789423
    103          7           0       -7.509227   -1.587057   -2.172034
    104          6           0       -7.501767   -2.921099   -2.339945
    105          6           0       -7.376928   -3.286438   -3.799857
    106          6           0       -7.546065   -1.913452   -4.602297
    107          6           0       -7.655144   -0.936108   -3.411383
    108          6           0       -6.064930   -3.955965   -4.208223
    109          6           0       -8.646392   -1.869481   -5.697749
    110          6           0      -10.013887   -1.959292   -5.059576
    111          7           0       -7.971979    1.174346   -1.336642
    112          6           0       -7.777505    1.415893   -2.714287
    113          6           0       -7.709294    2.880624   -2.894105
    114          6           0       -7.846862    3.393000   -1.595248
    115          6           0       -7.970408    2.322564   -0.668756
    116          6           0       -7.492931    3.558204   -4.127067
    117          6           0       -7.904996    4.595731   -0.796019
    118          8           0       -7.940387    5.800852   -1.041307
    119          6           0       -7.784538    4.190592    0.736218
    120          6           0       -8.859172    4.919636    1.495286
    121          8           0      -10.059662    4.669043    1.288853
    122          8           0       -8.292862    5.630501    2.487431
    123          6           0       -9.319679    6.362563    3.275824
    124          1           0       -6.791500   -1.962838    3.788766
    125          1           0       -7.710280   -4.762705   -1.718326
    126          1           0       -7.622647    0.802954   -4.625277
    127          1           0       -6.921401    2.963471    3.490781
    128          1           0       -7.137191    0.432812    4.709911
    129          1           0       -4.948028    1.758805    3.164122
    130          1           0       -4.957065   -0.014733    3.070389
    131          1           0       -4.825758    0.724841    4.637369
    132          1           0       -9.319227    1.255908    4.198177
    133          1           0       -9.603192    2.808390    3.329635
    134          1           0       -7.923565    3.342731    5.565889
    135          1           0       -8.966072    2.067806    6.088030
    136          1           0       -7.446852   -3.875535    4.382788
    137          1           0       -7.079108   -5.403421    3.655108
    138          1           0       -8.789070   -5.023757    3.969205
    139          1           0       -7.968675   -7.065996    2.463511
    140          1           0       -9.142578   -7.972799    1.347102
    141          1           0       -9.649709   -6.586681    2.354532
    142          1           0       -8.165636   -3.966643   -4.097106
    143          1           0       -6.629123   -1.644161   -5.146855
    144          1           0       -6.209178   -4.942250   -4.688340
    145          1           0       -5.440927   -4.048551   -3.329248
    146          1           0       -5.436377   -3.370592   -4.877148
    147          1           0       -8.555791   -2.733660   -6.360432
    148          1           0       -8.602112   -0.981195   -6.319022
    149          1           0      -10.148764   -3.035446   -4.915437
    150          1           0      -10.773832   -1.551635   -5.723173
    151          1           0      -10.017188   -1.490997   -4.068438
    152          1           0       -8.184953    4.389478   -4.151110
    153          1           0       -7.638387    2.894112   -4.976539
    154          1           0       -6.445887    3.849556   -4.008382
    155          1           0       -6.785036    4.470247    1.071416
    156          1           0       -9.036937    7.419742    3.265109
    157          1           0       -9.354120    5.860315    4.260867
    158          1           0      -10.323922    6.408108    2.871030
 ---------------------------------------------------------------------

 SCF Done:  E(RCAM-B3LYP) =  -4069.81172563     A.U. after   19 cycles

 Excitation energies and oscillator strengths:

 Excited State   1:      Singlet-A      1.6713 eV  741.83 nm  f=0.1113  <S**2>=0.000
     310 -> 316        0.14107
     311 -> 313       -0.39500
     312 -> 314        0.56116
 This state for optimization and/or second-order correction.
 Total Energy, E(TD-HF/TD-DFT) =  -4069.75030580
 Copying the excited state density for this state as the 1-particle RhoCI density.

 Excited State   2:      Singlet-A      1.6835 eV  736.46 nm  f=0.6413  <S**2>=0.000
     309 -> 315        0.14422
     310 -> 316        0.10118
     311 -> 313        0.56049
     312 -> 314        0.39464

 Excited State   3:      Singlet-A      2.1857 eV  567.24 nm  f=0.0758  <S**2>=0.000
     309 -> 313       -0.10850
     310 -> 314        0.63337
     312 -> 316       -0.26909

 Excited State   4:      Singlet-A      2.1923 eV  565.54 nm  f=0.1206  <S**2>=0.000
     309 -> 313        0.63152
     310 -> 314        0.10770
     311 -> 315       -0.27425

 Excited State   5:      Singlet-A      2.7655 eV  448.33 nm  f=0.0000  <S**2>=0.000
     312 -> 313        0.70710

 The electronic state is 1-A.
 Alpha  occ. eigenvalues --  -46.87834 -46.87591 -19.26307 -19.26286 -19.19113
 Alpha  occ. eigenvalues --  -19.19027 -19.18868 -19.18653 -19.18195 -19.17982
 Alpha  occ. eigenvalues --  -14.42486 -14.42431 -14.41486 -14.41288 -14.39442
 Alpha  occ. eigenvalues --  -14.39283 -14.38622 -14.38528 -10.39088 -10.39041
 Alpha  occ. eigenvalues --  -10.35503 -10.35331 -10.34414 -10.34160 -10.31725
 Alpha  occ. eigenvalues --  -10.31668 -10.31437 -10.31243 -10.30962 -10.30945
 Alpha  occ. eigenvalues --  -10.30604 -10.30544 -10.30326 -10.30290 -10.30247
 Alpha  occ. eigenvalues --  -10.30069 -10.29955 -10.29819 -10.29669 -10.29367
 Alpha  occ. eigenvalues --  -10.29331 -10.29295 -10.28777 -10.28671 -10.28632
 Alpha  occ. eigenvalues --  -10.28556 -10.28401 -10.28337 -10.28146 -10.28089
 Alpha  occ. eigenvalues --  -10.27930 -10.27829 -10.27763 -10.27626 -10.27604
 Alpha  occ. eigenvalues --  -10.27536 -10.27536 -10.27484 -10.27439 -10.27437
 Alpha  occ. eigenvalues --  -10.27417 -10.27412 -10.27398 -10.27298 -10.27180
 Alpha  occ. eigenvalues --  -10.26987 -10.26730 -10.26655 -10.26481 -10.26363
 Alpha  occ. eigenvalues --  -10.26261 -10.26218 -10.26064 -10.26056 -10.25973
 Alpha  occ. eigenvalues --  -10.25872 -10.25860 -10.25755 -10.25468 -10.25312
 Alpha  occ. eigenvalues --  -10.24867 -10.24824 -10.24800 -10.24724 -10.24665
 Alpha  occ. eigenvalues --  -10.24619  -3.16577  -3.16341  -1.91458  -1.91223
 Alpha  occ. eigenvalues --   -1.91045  -1.90887  -1.90811  -1.90648  -1.16636
 Alpha  occ. eigenvalues --   -1.16599  -1.08651  -1.08590  -1.07270  -1.06906
 Alpha  occ. eigenvalues --   -1.06898  -1.06650  -1.04616  -1.04429  -1.03797
 Alpha  occ. eigenvalues --   -1.03594  -1.03271  -1.02967  -1.02447  -1.02041
 Alpha  occ. eigenvalues --   -0.92003  -0.91920  -0.89554  -0.89423  -0.89217
 Alpha  occ. eigenvalues --   -0.89099  -0.88322  -0.88147  -0.87904  -0.87716
 Alpha  occ. eigenvalues --   -0.87708  -0.87619  -0.87322  -0.87058  -0.85013
 Alpha  occ. eigenvalues --   -0.84945  -0.83969  -0.83804  -0.83019  -0.82870
 Alpha  occ. eigenvalues --   -0.82681  -0.82597  -0.81606  -0.81539  -0.80627
 Alpha  occ. eigenvalues --   -0.80382  -0.78839  -0.78568  -0.77252  -0.77083
 Alpha  occ. eigenvalues --   -0.76959  -0.76841  -0.75949  -0.75781  -0.74929
 Alpha  occ. eigenvalues --   -0.74732  -0.72809  -0.72628  -0.71704  -0.71515
 Alpha  occ. eigenvalues --   -0.69942  -0.69686  -0.68906  -0.68771  -0.67677
 Alpha  occ. eigenvalues --   -0.67537  -0.67254  -0.67150  -0.65315  -0.65216
 Alpha  occ. eigenvalues --   -0.64883  -0.64705  -0.64649  -0.64595  -0.64303
 Alpha  occ. eigenvalues --   -0.64133  -0.62314  -0.62222  -0.60486  -0.60273
 Alpha  occ. eigenvalues --   -0.59836  -0.59738  -0.59020  -0.58925  -0.58536
 Alpha  occ. eigenvalues --   -0.58360  -0.57607  -0.57492  -0.57342  -0.57168
 Alpha  occ. eigenvalues --   -0.56345  -0.56138  -0.55993  -0.55835  -0.55560
 Alpha  occ. eigenvalues --   -0.55393  -0.55367  -0.55180  -0.54546  -0.54425
 Alpha  occ. eigenvalues --   -0.53924  -0.53861  -0.53338  -0.53257  -0.53161
 Alpha  occ. eigenvalues --   -0.53084  -0.52942  -0.52845  -0.52800  -0.52613
 Alpha  occ. eigenvalues --   -0.52472  -0.52331  -0.51945  -0.51800  -0.51650
 Alpha  occ. eigenvalues --   -0.51606  -0.51225  -0.51136  -0.50628  -0.50417
 Alpha  occ. eigenvalues --   -0.50068  -0.49962  -0.49921  -0.49797  -0.49551
 Alpha  occ. eigenvalues --   -0.49429  -0.49248  -0.49142  -0.49124  -0.49044
 Alpha  occ. eigenvalues --   -0.48618  -0.48503  -0.48498  -0.48478  -0.48304
 Alpha  occ. eigenvalues --   -0.48279  -0.47730  -0.47535  -0.47333  -0.47054
 Alpha  occ. eigenvalues --   -0.46830  -0.46644  -0.46585  -0.46501  -0.46393
 Alpha  occ. eigenvalues --   -0.46203  -0.46191  -0.46014  -0.45844  -0.45757
 Alpha  occ. eigenvalues --   -0.45235  -0.45137  -0.44605  -0.44547  -0.44453
 Alpha  occ. eigenvalues --   -0.44417  -0.44181  -0.44119  -0.44067  -0.44052
 Alpha  occ. eigenvalues --   -0.44013  -0.43880  -0.43516  -0.43497  -0.43418
 Alpha  occ. eigenvalues --   -0.43324  -0.43058  -0.42876  -0.42836  -0.42722
 Alpha  occ. eigenvalues --   -0.42675  -0.42485  -0.42040  -0.41902  -0.41735
 Alpha  occ. eigenvalues --   -0.41603  -0.41564  -0.41403  -0.41173  -0.40926
 Alpha  occ. eigenvalues --   -0.40903  -0.40870  -0.40667  -0.40643  -0.40604
 Alpha  occ. eigenvalues --   -0.40424  -0.40263  -0.40183  -0.39476  -0.39354
 Alpha  occ. eigenvalues --   -0.38502  -0.38281  -0.37776  -0.37607  -0.37355
 Alpha  occ. eigenvalues --   -0.37294  -0.37197  -0.37141  -0.36729  -0.36719
 Alpha  occ. eigenvalues --   -0.36217  -0.36153  -0.34321  -0.34185  -0.33810
 Alpha  occ. eigenvalues --   -0.33783  -0.33220  -0.33107  -0.31397  -0.31212
 Alpha  occ. eigenvalues --   -0.31071  -0.30906  -0.30053  -0.29887  -0.29490
 Alpha  occ. eigenvalues --   -0.29357  -0.29259  -0.29138  -0.24116  -0.23966
 Alpha  occ. eigenvalues --   -0.21164  -0.21048
 Alpha virt. eigenvalues --   -0.08812  -0.08722  -0.01788  -0.01615  -0.00101
 Alpha virt. eigenvalues --    0.00035   0.02168   0.02279   0.03078   0.03289
 Alpha virt. eigenvalues --    0.04687   0.04791   0.05087   0.05216   0.06155

 Mulliken charges:
               1
     1  Mg   0.838628
     2  C   -0.002925
     3  C   -0.094210
     4  C   -0.045931
     5  C   -0.063976
     6  N   -0.256790
     7  C   -0.052415
     8  C   -0.013991
     9  C   -0.086978
    10  C    0.046291
    11  C    0.104807
    12  C    0.053498
    13  C   -0.071920
    14  H    0.036518
    15  N   -0.433112
    16  C    0.168305
    17  C   -0.177286
    18  C   -0.004159
    19  C    0.148654
    20  C    0.110201
    21  C    0.012106
    22  O   -0.249656
    23  C    0.062584
    24  N   -0.341149
    25  C    0.041224
    26  C   -0.028190
    27  C   -0.024003
    28  C    0.074895
    29  C    0.076162
    30  C    0.035120
    31  C   -0.004494
    32  N   -0.310523
    33  C    0.080504
    34  C   -0.169671
    35  C    0.008464
    36  C    0.083011
    37  C    0.127292
    38  C    0.046199
    39  O   -0.188131
    40  C   -0.005334
    41  C    0.212922
    42  O   -0.257042
    43  O   -0.304835
    44  C    0.157554
    45  H   -0.017630
    46  H   -0.016889
    47  H   -0.041411
    48  H    0.001088
    49  H   -0.004100
    50  H    0.025554
    51  H    0.016420
    52  H    0.016690
    53  H    0.010945
    54  H    0.044228
    55  H    0.017970
    56  H    0.017776
    57  H    0.005895
    58  H    0.026821
    59  H    0.039087
    60  H    0.037439
    61  H    0.035426
    62  H    0.031060
    63  H    0.016500
    64  H    0.009547
    65  H    0.023213
    66  H    0.012551
    67  H    0.004823
    68  H    0.006450
    69  H    0.004790
    70  H    0.008745
    71  H    0.018178
    72  H    0.028893
    73  H    0.047687
    74  H    0.009125
    75  H    0.046125
    76  H    0.035240
    77  H    0.043163
    78  H    0.046397
    79  H    0.053984
    80  Mg   0.838038
    81  C   -0.016830
    82  C   -0.087857
    83  C   -0.045451
    84  C   -0.064489
    85  N   -0.254548
    86  C   -0.049770
    87  C   -0.015107
    88  C   -0.090540
    89  C    0.045792
    90  C    0.114408
    91  C    0.062595
    92  C   -0.077737
    93  H    0.034674
    94  N   -0.423501
    95  C    0.162877
    96  C   -0.174694
    97  C   -0.007840
    98  C    0.152103
    99  C    0.099406
   100  C    0.015530
   101  O   -0.253235
   102  C    0.061225
   103  N   -0.349988
   104  C    0.037581
   105  C   -0.019892
   106  C   -0.034905
   107  C    0.088921
   108  C    0.073570
   109  C    0.034735
   110  C   -0.007661
   111  N   -0.324167
   112  C    0.078497
   113  C   -0.162832
   114  C    0.002348
   115  C    0.096246
   116  C    0.131435
   117  C    0.042591
   118  O   -0.187830
   119  C    0.000831
   120  C    0.211198
   121  O   -0.251082
   122  O   -0.305630
   123  C    0.152097
   124  H   -0.019919
   125  H   -0.015604
   126  H   -0.040173
   127  H   -0.000759
   128  H   -0.004646
   129  H    0.022720
   130  H    0.014744
   131  H    0.015707
   132  H    0.013884
   133  H    0.037682
   134  H    0.020598
   135  H    0.019425
   136  H    0.008536
   137  H    0.026110
   138  H    0.039581
   139  H    0.038243
   140  H    0.036275
   141  H    0.033765
   142  H    0.014248
   143  H    0.012890
   144  H    0.024930
   145  H    0.011821
   146  H    0.006044
   147  H    0.006229
   148  H    0.003791
   149  H    0.010829
   150  H    0.017843
   151  H    0.030041
   152  H    0.045862
   153  H    0.008574
   154  H    0.047776
   155  H    0.035212
   156  H    0.043784
   157  H    0.049309
   158  H    0.053534
 Sum of Mulliken charges =  -0.00000

 Dipole moment (field-independent basis, Debye):
    X=              3.7892    Y=             -2.1994    Z=              7.3365  Tot=              8.5451
 Quadrupole moment (field-independent basis, Debye-Ang):
   XX=           -517.9194   YY=           -539.4943   ZZ=           -459.4767
   XY=             24.5093   XZ=              5.1201   YZ=             37.1347

 Normal termination of Gaussian 16 at Sun Sep 12 04:31:33 2021.
