 Gaussian 16, Revision A.03,
 Gaussian 16:  ES64L-G16RevA.03 25-Dec-2016

 -----------------------------------
 #p cam-b3lyp/Def2SVP td=(nstates=5)
 -----------------------------------

 --------------------------------
 TDDFT excited states in gaussian
 --------------------------------
 Symbolic Z-matrix:
 Charge =  0 Multiplicity = 1

                         Standard orientation:
 ---------------------------------------------------------------------
 Center     Atomic      Atomic             Coordinates (Angstroms)
 Number     Number       Type             X           Y           Z
 ---------------------------------------------------------------------
      1         12           0        6.801611   -0.499437    0.341622
      2          6           0        6.981709    2.594964   -1.448479
      3          6           0        7.528300    1.265897    3.169799
      4          6           0        7.096285   -3.266532    1.862468
      5          6           0        7.216557   -2.121649   -2.714831
      6          7           0        7.183043    1.653373    0.688850
      7          6           0        7.163345    2.743503   -0.071675
      8          6           0        7.278546    4.066907    0.742392
      9          6           0        8.001815    3.499097    2.044879
     10          6           0        7.514855    2.061968    1.986109
     11          6           0        9.524038    3.506244    1.948506
     12          6           0        5.878210    4.677929    1.085093
     13          6           0        5.901784    6.124232    1.588087
     14          1           0        4.813603    7.014174    1.212302
     15          7           0        6.764400   -0.909761    2.273745
     16          6           0        7.074708   -0.065788    3.287009
     17          6           0        6.892303   -0.840653    4.533201
     18          6           0        6.634405   -2.257694    4.154284
     19          6           0        6.850142   -2.205678    2.730862
     20          6           0        6.921325   -0.223301    5.897673
     21          6           0        6.264158   -3.469032    4.950343
     22          8           0        6.314992   -4.647960    4.458287
     23          6           0        5.920851   -3.244895    6.366303
     24          7           0        7.330997   -2.417464   -0.289691
     25          6           0        7.324186   -3.450141    0.560318
     26          6           0        7.457871   -4.755857   -0.165750
     27          6           0        7.313206   -4.414801   -1.718975
     28          6           0        7.196530   -2.874247   -1.612441
     29          6           0        8.767611   -5.521059    0.068889
     30          6           0        6.225124   -5.183988   -2.509448
     31          6           0        4.852386   -4.770650   -2.027950
     32          7           0        6.879164    0.088770   -1.746210
     33          6           0        7.082453   -0.750078   -2.851507
     34          6           0        7.164833    0.116145   -4.041860
     35          6           0        7.019369    1.408375   -3.541033
     36          6           0        6.882731    1.354717   -2.124438
     37          6           0        7.409690   -0.319337   -5.374090
     38          6           0        6.972263    2.823703   -3.870400
     39          8           0        6.942060    3.469470   -4.919002
     40          6           0        7.068152    3.656667   -2.516589
     41          6           0        5.992090    4.707442   -2.552270
     42          8           0        4.785922    4.389450   -2.514797
     43          8           0        6.546926    5.917768   -2.385504
     44          6           0        5.530187    7.003300   -2.381439
     45          1           0        7.980063    1.674726    4.075729
     46          1           0        7.094863   -4.251312    2.334319
     47          1           0        7.260465   -2.562881   -3.712248
     48          1           0        7.897775    4.834158    0.277305
     49          1           0        7.643832    3.983656    2.953049
     50          1           0        9.858620    3.780762    0.948198
     51          1           0        9.835650    2.489487    2.188499
     52          1           0        9.958036    4.142659    2.720127
     53          1           0        5.475534    4.181078    1.967732
     54          1           0        5.205519    4.604576    0.229855
     55          1           0        6.865424    6.597149    1.396629
     56          1           0        5.818521    6.109286    2.674845
     57          1           0        7.295186    0.799349    5.866684
     58          1           0        7.666506   -0.767479    6.477574
     59          1           0        5.953291   -0.282230    6.395437
     60          1           0        6.767279   -2.780456    6.872668
     61          1           0        5.596767   -4.210210    6.753584
     62          1           0        5.100155   -2.529110    6.421608
     63          1           0        6.667075   -5.446842    0.123398
     64          1           0        8.232976   -4.614995   -2.269084
     65          1           0        8.621801   -6.532071    0.450070
     66          1           0        9.384835   -4.932619    0.747169
     67          1           0        9.415746   -5.596186   -0.803862
     68          1           0        6.316690   -6.255636   -2.335863
     69          1           0        6.275789   -5.016779   -3.585424
     70          1           0        4.701876   -5.400431   -1.151848
     71          1           0        4.102631   -4.978933   -2.791950
     72          1           0        4.844549   -3.734355   -1.689547
     73          1           0        6.717573    0.234652   -6.008156
     74          1           0        7.262879   -1.394685   -5.472459
     75          1           0        8.453046   -0.027707   -5.493314
     76          1           0        8.065938    4.093337   -2.487218
     77          1           0        5.818248    7.715785   -3.154498
     78          1           0        5.469237    7.366938   -1.355545
     79          1           0        4.529893    6.728108   -2.717624
     80         12           0       -6.411069   -0.862067   -0.118297
     81          6           0       -8.973880    1.624898    0.236756
     82          6           0       -4.171328    1.697537   -0.376298
     83          6           0       -4.199919   -3.005714   -0.881865
     84          6           0       -8.919947   -3.126232   -0.969667
     85          7           0       -6.661715    1.334783   -0.061218
     86          6           0       -7.674287    2.164506    0.140298
     87          6           0       -7.261987    3.649648    0.324556
     88          6           0       -5.855810    3.606680   -0.449843
     89          6           0       -5.516425    2.129900   -0.258528
     90          6           0       -5.980671    3.878949   -1.939682
     91          6           0       -7.074926    4.035184    1.833995
     92          6           0       -6.975687    5.537746    2.106413
     93          1           0       -7.559635    6.061896    3.337973
     94          7           0       -4.430987   -0.734332   -0.079536
     95          6           0       -3.685919    0.386984   -0.173436
     96          6           0       -2.284116   -0.055242   -0.113716
     97          6           0       -2.259945   -1.542964   -0.142734
     98          6           0       -3.658826   -1.824443   -0.395675
     99          6           0       -1.135797    0.898944    0.042152
    100          6           0       -1.157762   -2.545978    0.016430
    101          8           0       -1.323290   -3.781392   -0.282219
    102          6           0        0.148168   -2.022774    0.443387
    103          7           0       -6.511781   -2.729151   -1.027259
    104          6           0       -5.407191   -3.477597   -1.193515
    105          6           0       -5.759783   -4.884685   -1.613256
    106          6           0       -7.347855   -4.993753   -1.459275
    107          6           0       -7.662308   -3.539722   -1.044199
    108          6           0       -5.358668   -5.274804   -3.035688
    109          6           0       -7.891458   -6.148982   -0.574609
    110          6           0       -7.513002   -5.914636    0.870122
    111          7           0       -8.571240   -0.847746   -0.157574
    112          6           0       -9.423771   -1.894370   -0.572108
    113          6           0      -10.805410   -1.373105   -0.529774
    114          6           0      -10.657699   -0.041801   -0.112313
    115          6           0       -9.279612    0.252292    0.071729
    116          6           0      -11.977463   -2.092194   -0.897670
    117          6           0      -11.353429    1.184759    0.204282
    118          8           0      -12.535037    1.510484    0.311208
    119          6           0      -10.285076    2.355678    0.322498
    120          6           0      -10.577091    3.125539    1.581280
    121          8           0      -10.447665    2.588061    2.695271
    122          8           0      -10.749050    4.424085    1.273744
    123          6           0      -11.030287    5.230518    2.491275
    124          1           0       -3.420040    2.420459   -0.695391
    125          1           0       -3.486592   -3.814710   -1.055509
    126          1           0       -9.765878   -3.798976   -1.126168
    127          1           0       -7.923934    4.366603   -0.146145
    128          1           0       -5.115898    4.234501    0.039796
    129          1           0       -7.012297    3.939888   -2.253027
    130          1           0       -5.483787    3.053400   -2.432244
    131          1           0       -5.413927    4.775159   -2.207900
    132          1           0       -6.077096    3.718188    2.163513
    133          1           0       -7.854592    3.609631    2.435367
    134          1           0       -7.296660    6.135035    1.244341
    135          1           0       -5.922364    5.798158    2.235646
    136          1           0       -1.448133    1.936061   -0.131753
    137          1           0       -0.431832    0.687466   -0.770004
    138          1           0       -0.618723    0.783338    0.997099
    139          1           0        0.492051   -1.281165   -0.273701
    140          1           0        0.781598   -2.900211    0.587434
    141          1           0        0.020833   -1.501454    1.398706
    142          1           0       -5.292644   -5.611582   -0.960186
    143          1           0       -7.840940   -5.157429   -2.428768
    144          1           0       -4.706508   -6.167630   -3.075936
    145          1           0       -4.871075   -4.426618   -3.497612
    146          1           0       -6.188795   -5.462065   -3.714676
    147          1           0       -7.432633   -7.097060   -0.865779
    148          1           0       -8.966566   -6.276832   -0.643807
    149          1           0       -6.492125   -6.304470    0.924150
    150          1           0       -8.179766   -6.460909    1.534238
    151          1           0       -7.469051   -4.842987    1.096602
    152          1           0      -12.723682   -1.877670   -0.144253
    153          1           0      -11.781914   -3.159913   -0.971979
    154          1           0      -12.183261   -1.643708   -1.873258
    155          1           0      -10.380128    2.977084   -0.568791
    156          1           0      -11.972920    5.757712    2.314610
    157          1           0      -10.128885    5.850954    2.653462
    158          1           0      -11.255676    4.695041    3.406103
 ---------------------------------------------------------------------

 SCF Done:  E(RCAM-B3LYP) =  -4069.81211119     A.U. after   19 cycles

 Excitation energies and oscillator strengths:

 Excited State   1:      Singlet-A      1.6748 eV  740.30 nm  f=0.4092  <S**2>=0.000
     310 -> 316       -0.16863
     311 -> 313       -0.16048
     312 -> 314        0.66704
     310 <- 316       -0.10174
 This state for optimization and/or second-order correction.
 Total Energy, E(TD-HF/TD-DFT) =  -4069.75056427
 Copying the excited state density for this state as the 1-particle RhoCI density.

 Excited State   2:      Singlet-A      1.6791 eV  738.40 nm  f=0.3797  <S**2>=0.000
     309 -> 315        0.17095
     311 -> 313        0.66672
     312 -> 314        0.16057
     309 <- 315        0.10253

 Excited State   3:      Singlet-A      2.1863 eV  567.11 nm  f=0.0350  <S**2>=0.000
     309 -> 313       -0.22279
     310 -> 314        0.60319
     312 -> 316        0.25599

 Excited State   4:      Singlet-A      2.1950 eV  564.86 nm  f=0.1521  <S**2>=0.000
     309 -> 313        0.60075
     310 -> 314        0.22097
     311 -> 315       -0.26266

 Excited State   5:      Singlet-A      2.5945 eV  477.87 nm  f=0.0000  <S**2>=0.000
     312 -> 313        0.70688

 The electronic state is 1-A.
 Alpha  occ. eigenvalues --  -46.87980 -46.87527 -19.26548 -19.26268 -19.19299
 Alpha  occ. eigenvalues --  -19.19074 -19.18938 -19.18560 -19.18358 -19.17931
 Alpha  occ. eigenvalues --  -14.42632 -14.42363 -14.41607 -14.41227 -14.39579
 Alpha  occ. eigenvalues --  -14.39214 -14.38771 -14.38467 -10.39348 -10.39001
 Alpha  occ. eigenvalues --  -10.35569 -10.35237 -10.34582 -10.34110 -10.31952
 Alpha  occ. eigenvalues --  -10.31691 -10.31591 -10.31175 -10.31097 -10.30880
 Alpha  occ. eigenvalues --  -10.30748 -10.30672 -10.30342 -10.30270 -10.30224
 Alpha  occ. eigenvalues --  -10.30065 -10.30001 -10.29793 -10.29776 -10.29416
 Alpha  occ. eigenvalues --  -10.29288 -10.29255 -10.28967 -10.28810 -10.28596
 Alpha  occ. eigenvalues --  -10.28578 -10.28548 -10.28313 -10.28263 -10.28001
 Alpha  occ. eigenvalues --  -10.27962 -10.27900 -10.27859 -10.27747 -10.27633
 Alpha  occ. eigenvalues --  -10.27586 -10.27570 -10.27524 -10.27518 -10.27406
 Alpha  occ. eigenvalues --  -10.27367 -10.27352 -10.27315 -10.27266 -10.27193
 Alpha  occ. eigenvalues --  -10.26980 -10.26938 -10.26596 -10.26516 -10.26405
 Alpha  occ. eigenvalues --  -10.26237 -10.26187 -10.26166 -10.26042 -10.25986
 Alpha  occ. eigenvalues --  -10.25862 -10.25802 -10.25740 -10.25500 -10.25293
 Alpha  occ. eigenvalues --  -10.25008 -10.24940 -10.24736 -10.24641 -10.24636
 Alpha  occ. eigenvalues --  -10.24559  -3.16725  -3.16277  -1.91608  -1.91193
 Alpha  occ. eigenvalues --   -1.91159  -1.91035  -1.90748  -1.90584  -1.16898
 Alpha  occ. eigenvalues --   -1.16561  -1.08822  -1.08543  -1.07336  -1.06916
 Alpha  occ. eigenvalues --   -1.06858  -1.06812  -1.04764  -1.04359  -1.03922
 Alpha  occ. eigenvalues --   -1.03529  -1.03403  -1.02905  -1.02579  -1.01977
 Alpha  occ. eigenvalues --   -0.92157  -0.91858  -0.89633  -0.89391  -0.89372
 Alpha  occ. eigenvalues --   -0.89022  -0.88389  -0.88103  -0.88035  -0.87848
 Alpha  occ. eigenvalues --   -0.87666  -0.87549  -0.87426  -0.86942  -0.85177
 Alpha  occ. eigenvalues --   -0.84873  -0.84027  -0.83766  -0.83083  -0.82825
 Alpha  occ. eigenvalues --   -0.82773  -0.82516  -0.81789  -0.81488  -0.80776
 Alpha  occ. eigenvalues --   -0.80319  -0.78955  -0.78473  -0.77374  -0.77112
 Alpha  occ. eigenvalues --   -0.77008  -0.76786  -0.76111  -0.75705  -0.75014
 Alpha  occ. eigenvalues --   -0.74682  -0.72932  -0.72564  -0.71833  -0.71451
 Alpha  occ. eigenvalues --   -0.69966  -0.69647  -0.69056  -0.68697  -0.67809
 Alpha  occ. eigenvalues --   -0.67472  -0.67421  -0.67073  -0.65485  -0.65149
 Alpha  occ. eigenvalues --   -0.65032  -0.64789  -0.64644  -0.64534  -0.64383
 Alpha  occ. eigenvalues --   -0.64085  -0.62503  -0.62173  -0.60584  -0.60185
 Alpha  occ. eigenvalues --   -0.59997  -0.59664  -0.59150  -0.58865  -0.58670
 Alpha  occ. eigenvalues --   -0.58296  -0.57793  -0.57451  -0.57442  -0.57107
 Alpha  occ. eigenvalues --   -0.56479  -0.56202  -0.56062  -0.55776  -0.55679
 Alpha  occ. eigenvalues --   -0.55476  -0.55314  -0.55137  -0.54677  -0.54384
 Alpha  occ. eigenvalues --   -0.54101  -0.53786  -0.53449  -0.53403  -0.53104
 Alpha  occ. eigenvalues --   -0.53095  -0.53008  -0.52916  -0.52781  -0.52496
 Alpha  occ. eigenvalues --   -0.52485  -0.52296  -0.52073  -0.51813  -0.51767
 Alpha  occ. eigenvalues --   -0.51524  -0.51359  -0.51081  -0.50704  -0.50292
 Alpha  occ. eigenvalues --   -0.50140  -0.50052  -0.49831  -0.49735  -0.49688
 Alpha  occ. eigenvalues --   -0.49391  -0.49346  -0.49279  -0.49059  -0.48979
 Alpha  occ. eigenvalues --   -0.48783  -0.48603  -0.48577  -0.48432  -0.48262
 Alpha  occ. eigenvalues --   -0.48183  -0.47853  -0.47451  -0.47450  -0.46958
 Alpha  occ. eigenvalues --   -0.46948  -0.46754  -0.46582  -0.46518  -0.46425
 Alpha  occ. eigenvalues --   -0.46317  -0.46128  -0.46009  -0.45965  -0.45712
 Alpha  occ. eigenvalues --   -0.45309  -0.45088  -0.44758  -0.44655  -0.44394
 Alpha  occ. eigenvalues --   -0.44345  -0.44295  -0.44244  -0.44185  -0.43998
 Alpha  occ. eigenvalues --   -0.43948  -0.43789  -0.43686  -0.43550  -0.43449
 Alpha  occ. eigenvalues --   -0.43259  -0.43189  -0.42927  -0.42826  -0.42778
 Alpha  occ. eigenvalues --   -0.42745  -0.42425  -0.42132  -0.41871  -0.41852
 Alpha  occ. eigenvalues --   -0.41716  -0.41545  -0.41339  -0.41305  -0.41038
 Alpha  occ. eigenvalues --   -0.40969  -0.40857  -0.40674  -0.40593  -0.40564
 Alpha  occ. eigenvalues --   -0.40461  -0.40378  -0.40112  -0.39484  -0.39319
 Alpha  occ. eigenvalues --   -0.38586  -0.38236  -0.37969  -0.37544  -0.37467
 Alpha  occ. eigenvalues --   -0.37446  -0.37144  -0.37069  -0.36935  -0.36679
 Alpha  occ. eigenvalues --   -0.36363  -0.36103  -0.34460  -0.34123  -0.34033
 Alpha  occ. eigenvalues --   -0.33766  -0.33360  -0.33042  -0.31468  -0.31203
 Alpha  occ. eigenvalues --   -0.31121  -0.30840  -0.30221  -0.29838  -0.29616
 Alpha  occ. eigenvalues --   -0.29498  -0.29177  -0.29075  -0.24255  -0.23903
 Alpha  occ. eigenvalues --   -0.21293  -0.20979
 Alpha virt. eigenvalues --   -0.08941  -0.08650  -0.01911  -0.01550  -0.00219
 Alpha virt. eigenvalues --    0.00121   0.02029   0.02329   0.02755   0.03337
 Alpha virt. eigenvalues --    0.04527   0.04841   0.04855   0.05259   0.05940

 Mulliken charges:
               1
     1  Mg   0.835984
     2  C   -0.003981
     3  C   -0.094571
     4  C   -0.045410
     5  C   -0.063360
     6  N   -0.256873
     7  C   -0.053030
     8  C   -0.013750
     9  C   -0.086865
    10  C    0.045857
    11  C    0.104703
    12  C    0.053546
    13  C   -0.071586
    14  H    0.034895
    15  N   -0.433375
    16  C    0.167997
    17  C   -0.177383
    18  C   -0.003919
    19  C    0.148380
    20  C    0.110133
    21  C    0.012339
    22  O   -0.248531
    23  C    0.062533
    24  N   -0.341221
    25  C    0.041337
    26  C   -0.028312
    27  C   -0.024136
    28  C    0.074911
    29  C    0.076013
    30  C    0.034835
    31  C   -0.004374
    32  N   -0.310414
    33  C    0.079951
    34  C   -0.169671
    35  C    0.008299
    36  C    0.082170
    37  C    0.127349
    38  C    0.045655
    39  O   -0.188498
    40  C   -0.005131
    41  C    0.213262
    42  O   -0.259063
    43  O   -0.304269
    44  C    0.157839
    45  H   -0.017315
    46  H   -0.015923
    47  H   -0.040794
    48  H    0.001186
    49  H   -0.004150
    50  H    0.025649
    51  H    0.016841
    52  H    0.016978
    53  H    0.010370
    54  H    0.042588
    55  H    0.018692
    56  H    0.018229
    57  H    0.005833
    58  H    0.027420
    59  H    0.039376
    60  H    0.037487
    61  H    0.036584
    62  H    0.030997
    63  H    0.017677
    64  H    0.009595
    65  H    0.023889
    66  H    0.012328
    67  H    0.004988
    68  H    0.007170
    69  H    0.004653
    70  H    0.010421
    71  H    0.020761
    72  H    0.026574
    73  H    0.047379
    74  H    0.009722
    75  H    0.046300
    76  H    0.035561
    77  H    0.043525
    78  H    0.046419
    79  H    0.052545
    80  Mg   0.837424
    81  C   -0.016891
    82  C   -0.087753
    83  C   -0.045454
    84  C   -0.064956
    85  N   -0.254506
    86  C   -0.050079
    87  C   -0.015105
    88  C   -0.090343
    89  C    0.045422
    90  C    0.114210
    91  C    0.062607
    92  C   -0.077580
    93  H    0.034059
    94  N   -0.423611
    95  C    0.162542
    96  C   -0.173684
    97  C   -0.007809
    98  C    0.152285
    99  C    0.098428
   100  C    0.015730
   101  O   -0.253429
   102  C    0.059878
   103  N   -0.350005
   104  C    0.037661
   105  C   -0.019872
   106  C   -0.034667
   107  C    0.088674
   108  C    0.073665
   109  C    0.034829
   110  C   -0.007616
   111  N   -0.323960
   112  C    0.078115
   113  C   -0.163480
   114  C    0.002089
   115  C    0.095919
   116  C    0.131559
   117  C    0.042109
   118  O   -0.188479
   119  C    0.000980
   120  C    0.211196
   121  O   -0.251267
   122  O   -0.305566
   123  C    0.152167
   124  H   -0.017903
   125  H   -0.015702
   126  H   -0.040844
   127  H   -0.000820
   128  H   -0.004282
   129  H    0.022160
   130  H    0.015160
   131  H    0.016838
   132  H    0.013702
   133  H    0.037407
   134  H    0.020878
   135  H    0.019437
   136  H    0.010236
   137  H    0.030557
   138  H    0.038689
   139  H    0.040117
   140  H    0.037192
   141  H    0.033133
   142  H    0.014228
   143  H    0.012223
   144  H    0.024776
   145  H    0.012018
   146  H    0.005532
   147  H    0.005978
   148  H    0.003441
   149  H    0.010875
   150  H    0.017602
   151  H    0.030198
   152  H    0.045612
   153  H    0.008237
   154  H    0.046718
   155  H    0.034943
   156  H    0.043698
   157  H    0.049387
   158  H    0.053324
 Sum of Mulliken charges =  -0.00000

 Dipole moment (field-independent basis, Debye):
    X=              5.8344    Y=              2.5935    Z=              2.6637  Tot=              6.9182
 Quadrupole moment (field-independent basis, Debye-Ang):
   XX=           -556.8587   YY=           -474.9051   ZZ=           -510.9022
   XY=             16.2584   XZ=             44.9529   YZ=             42.0065

 Normal termination of Gaussian 16 at Sat Sep 11 18:09:47 2021.
