 Gaussian 16, Revision A.03,
 Gaussian 16:  ES64L-G16RevA.03 25-Dec-2016

 -----------------------------------
 #p cam-b3lyp/Def2SVP td=(nstates=5)
 -----------------------------------

 --------------------------------
 TDDFT excited states in gaussian
 --------------------------------
 Symbolic Z-matrix:
 Charge =  0 Multiplicity = 1

                         Standard orientation:
 ---------------------------------------------------------------------
 Center     Atomic      Atomic             Coordinates (Angstroms)
 Number     Number       Type             X           Y           Z
 ---------------------------------------------------------------------
      1         12           0        5.123165   -0.580715    0.430223
      2          6           0        5.591489    2.690058   -0.946341
      3          6           0        6.095228    0.707670    3.436587
      4          6           0        5.155656   -3.541512    1.565673
      5          6           0        5.296186   -1.814416   -2.824574
      6          7           0        5.738619    1.456047    1.041340
      7          6           0        5.818096    2.634156    0.430674
      8          6           0        6.091065    3.818280    1.405718
      9          6           0        6.778397    3.010708    2.596265
     10          6           0        6.140387    1.651739    2.368071
     11          6           0        8.290281    2.874796    2.447148
     12          6           0        4.771417    4.518206    1.875146
     13          6           0        4.959513    5.874371    2.561289
     14          1           0        3.964006    6.913172    2.344018
     15          7           0        5.085070   -1.239225    2.292417
     16          6           0        5.505457   -0.574256    3.395312
     17          6           0        5.269229   -1.485715    4.535540
     18          6           0        4.854025   -2.805605    3.984551
     19          6           0        5.042723   -2.586460    2.573259
     20          6           0        5.393641   -1.062214    5.966945
     21          6           0        4.374813   -4.068022    4.628594
     22          8           0        4.289322   -5.169696    3.985492
     23          6           0        4.088463   -4.000894    6.073080
     24          7           0        5.431846   -2.441362   -0.464396
     25          6           0        5.334087   -3.572064    0.243374
     26          6           0        5.312348   -4.775972   -0.651094
     27          6           0        5.170613   -4.217690   -2.140385
     28          6           0        5.220582   -2.701354   -1.829742
     29          6           0        6.538253   -5.695654   -0.565347
     30          6           0        3.989881   -4.759055   -2.984905
     31          6           0        2.679724   -4.275344   -2.404724
     32          7           0        5.216834    0.269793   -1.564497
     33          6           0        5.305535   -0.430415   -2.776320
     34          6           0        5.453259    0.573887   -3.845724
     35          6           0        5.456904    1.795764   -3.175763
     36          6           0        5.346515    1.567815   -1.774283
     37          6           0        5.621134    0.297328   -5.231280
     38          6           0        5.553149    3.239708   -3.315841
     39          8           0        5.568656    4.019302   -4.269510
     40          6           0        5.766699    3.870326   -1.869278
     41          6           0        4.807798    5.021043   -1.729029
     42          8           0        3.575796    4.826046   -1.690137
     43          8           0        5.491569    6.135079   -1.425842
     44          6           0        4.596206    7.308681   -1.243805
     45          1           0        6.607661    0.943537    4.371317
     46          1           0        5.060027   -4.575087    1.904814
     47          1           0        5.271048   -2.120753   -3.871942
     48          1           0        6.777903    4.573281    1.022767
     49          1           0        6.493953    3.403814    3.572114
     50          1           0        8.630055    3.244645    1.479839
     51          1           0        8.497346    1.808599    2.541171
     52          1           0        8.806272    3.354748    3.279119
     53          1           0        4.337751    3.951865    2.699315
     54          1           0        4.076102    4.628886    1.042312
     55          1           0        5.963487    6.267460    2.398724
     56          1           0        4.899045    5.723134    3.639097
     57          1           0        5.873226   -0.088265    6.056206
     58          1           0        6.089380   -1.752306    6.443841
     59          1           0        4.436002   -1.087640    6.487148
     60          1           0        4.990356   -3.697287    6.605021
     61          1           0        3.672283   -4.970967    6.342530
     62          1           0        3.349844   -3.218677    6.250639
     63          1           0        4.459187   -5.414754   -0.426370
     64          1           0        6.051603   -4.435771   -2.744514
     65          1           0        6.294308   -6.728207   -0.314289
     66          1           0        7.229242   -5.269292    0.161316
     67          1           0        7.155400   -5.719588   -1.463108
     68          1           0        3.970909   -5.847975   -2.955952
     69          1           0        4.034352   -4.455826   -4.031005
     70          1           0        2.482475   -4.997662   -1.613407
     71          1           0        1.895475   -4.301958   -3.161993
     72          1           0        2.789432   -3.298167   -1.934005
     73          1           0        4.977997    0.998887   -5.762467
     74          1           0        5.358819   -0.734546   -5.463721
     75          1           0        6.686688    0.493915   -5.348775
     76          1           0        6.805622    4.194721   -1.818994
     77          1           0        4.941242    8.084694   -1.927170
     78          1           0        4.596788    7.536475   -0.177731
     79          1           0        3.565195    7.184665   -1.576936
     80         12           0       -5.417738    0.256429    0.401507
     81          6           0       -4.676343   -1.167480   -2.808150
     82          6           0       -5.531164   -2.926981    1.621195
     83          6           0       -6.511420    1.447378    3.131513
     84          6           0       -6.362046    3.168844   -1.263386
     85          7           0       -5.123844   -1.710402   -0.566707
     86          6           0       -4.785669   -2.125073   -1.778341
     87          6           0       -4.472944   -3.642458   -1.874851
     88          6           0       -5.320746   -4.143859   -0.606511
     89          6           0       -5.299164   -2.862278    0.224018
     90          6           0       -6.766392   -4.472180   -0.940647
     91          6           0       -2.944046   -3.949835   -1.701670
     92          6           0       -2.525461   -5.369522   -2.090298
     93          1           0       -1.217799   -5.564472   -2.710383
     94          7           0       -5.470617   -0.537854    2.219438
     95          6           0       -5.488862   -1.850140    2.533858
     96          6           0       -5.548538   -1.911169    4.002492
     97          6           0       -5.730328   -0.528654    4.522421
     98          6           0       -5.936537    0.193972    3.283319
     99          6           0       -5.356970   -3.185523    4.772397
    100          6           0       -5.732592    0.045714    5.906720
    101          8           0       -6.146509    1.235897    6.141219
    102          6           0       -5.323973   -0.857883    6.992092
    103          7           0       -6.505759    1.968325    0.857554
    104          6           0       -6.805465    2.278140    2.131176
    105          6           0       -7.347306    3.683653    2.237648
    106          6           0       -7.121723    4.341311    0.797446
    107          6           0       -6.544566    3.119779    0.049040
    108          6           0       -8.821263    3.800808    2.625115
    109          6           0       -6.332034    5.678030    0.750053
    110          6           0       -4.892916    5.441672    1.148127
    111          7           0       -5.341401    0.979283   -1.633121
    112          6           0       -5.814953    2.218787   -2.116306
    113          6           0       -5.646907    2.206867   -3.583972
    114          6           0       -5.104256    0.942254   -3.857379
    115          6           0       -4.964111    0.209555   -2.647828
    116          6           0       -6.023880    3.252668   -4.472969
    117          6           0       -4.628005    0.056533   -4.895356
    118          8           0       -4.426270    0.164278   -6.104255
    119          6           0       -4.447520   -1.396308   -4.276446
    120          6           0       -3.103162   -1.919132   -4.702903
    121          8           0       -2.058155   -1.373326   -4.307085
    122          8           0       -3.267209   -3.100172   -5.326299
    123          6           0       -1.960674   -3.664137   -5.758403
    124          1           0       -5.814058   -3.885913    2.056291
    125          1           0       -6.804017    1.947225    4.057803
    126          1           0       -6.541508    4.076102   -1.844203
    127          1           0       -4.832536   -4.123923   -2.776330
    128          1           0       -4.809352   -4.946801   -0.081994
    129          1           0       -7.017063   -4.200583   -1.955311
    130          1           0       -7.366078   -3.907612   -0.238730
    131          1           0       -6.971351   -5.526230   -0.732601
    132          1           0       -2.701636   -3.968846   -0.631335
    133          1           0       -2.348924   -3.237642   -2.239481
    134          1           0       -3.304009   -5.886139   -2.664680
    135          1           0       -2.426067   -5.963797   -1.178723
    136          1           0       -5.407517   -4.063293    4.116388
    137          1           0       -6.222426   -3.291730    5.435393
    138          1           0       -4.447382   -3.179810    5.376781
    139          1           0       -5.978842   -1.725891    7.005169
    140          1           0       -5.303736   -0.241852    7.893185
    141          1           0       -4.315108   -1.227998    6.778044
    142          1           0       -6.797302    4.255324    2.975069
    143          1           0       -8.075494    4.587774    0.308151
    144          1           0       -8.986664    4.410481    3.533411
    145          1           0       -9.219363    2.803707    2.758717
    146          1           0       -9.471080    4.207335    1.852033
    147          1           0       -6.742132    6.386056    1.474393
    148          1           0       -6.357122    6.160314   -0.221422
    149          1           0       -4.932816    5.461507    2.241333
    150          1           0       -4.253730    6.233155    0.762066
    151          1           0       -4.560977    4.440825    0.848487
    152          1           0       -5.214227    3.365908   -5.181582
    153          1           0       -6.216879    4.179714   -3.937151
    154          1           0       -6.936444    2.827117   -4.898887
    155          1           0       -5.264545   -2.015112   -4.649444
    156          1           0       -2.032713   -3.848930   -6.834663
    157          1           0       -1.783828   -4.540962   -5.107495
    158          1           0       -1.094599   -3.014299   -5.712889
 ---------------------------------------------------------------------

 SCF Done:  E(RCAM-B3LYP) =  -4069.81124537     A.U. after   19 cycles

 Excitation energies and oscillator strengths:

 Excited State   1:      Singlet-A      1.6563 eV  748.56 nm  f=0.0052  <S**2>=0.000
     309 -> 315        0.11358
     310 -> 316       -0.12462
     311 -> 313        0.50877
     312 -> 314        0.46191
 This state for optimization and/or second-order correction.
 Total Energy, E(TD-HF/TD-DFT) =  -4069.75037769
 Copying the excited state density for this state as the 1-particle RhoCI density.

 Excited State   2:      Singlet-A      1.6962 eV  730.95 nm  f=0.7170  <S**2>=0.000
     309 -> 315        0.13264
     310 -> 316        0.11995
     311 -> 313       -0.46030
     312 -> 314        0.50683

 Excited State   3:      Singlet-A      2.1827 eV  568.04 nm  f=0.0270  <S**2>=0.000
     309 -> 314        0.30349
     310 -> 313        0.56779
     311 -> 316        0.23858
     312 -> 315       -0.12695

 Excited State   4:      Singlet-A      2.1927 eV  565.44 nm  f=0.1578  <S**2>=0.000
     309 -> 314        0.56438
     310 -> 313       -0.30091
     311 -> 316       -0.13166
     312 -> 315       -0.24671

 Excited State   5:      Singlet-A      2.5722 eV  482.02 nm  f=0.0000  <S**2>=0.000
     312 -> 313        0.70708

 The electronic state is 1-A.
 Alpha  occ. eigenvalues --  -46.87625 -46.87520 -19.26255 -19.26079 -19.19023
 Alpha  occ. eigenvalues --  -19.18791 -19.18736 -19.18629 -19.17969 -19.17900
 Alpha  occ. eigenvalues --  -14.42363 -14.42285 -14.41295 -14.41223 -14.39244
 Alpha  occ. eigenvalues --  -14.39219 -14.38451 -14.38399 -10.38957 -10.38858
 Alpha  occ. eigenvalues --  -10.35376 -10.35311 -10.34187 -10.34079 -10.31725
 Alpha  occ. eigenvalues --  -10.31490 -10.31223 -10.31165 -10.30901 -10.30758
 Alpha  occ. eigenvalues --  -10.30385 -10.30340 -10.30259 -10.30213 -10.30079
 Alpha  occ. eigenvalues --  -10.30018 -10.29762 -10.29756 -10.29464 -10.29308
 Alpha  occ. eigenvalues --  -10.29264 -10.29102 -10.28601 -10.28590 -10.28573
 Alpha  occ. eigenvalues --  -10.28382 -10.28269 -10.28197 -10.28017 -10.27959
 Alpha  occ. eigenvalues --  -10.27861 -10.27620 -10.27564 -10.27534 -10.27432
 Alpha  occ. eigenvalues --  -10.27408 -10.27395 -10.27370 -10.27360 -10.27358
 Alpha  occ. eigenvalues --  -10.27351 -10.27338 -10.27261 -10.27235 -10.26966
 Alpha  occ. eigenvalues --  -10.26918 -10.26570 -10.26535 -10.26392 -10.26375
 Alpha  occ. eigenvalues --  -10.26118 -10.26091 -10.26002 -10.25916 -10.25859
 Alpha  occ. eigenvalues --  -10.25795 -10.25672 -10.25609 -10.25366 -10.25304
 Alpha  occ. eigenvalues --  -10.24728 -10.24648 -10.24641 -10.24601 -10.24569
 Alpha  occ. eigenvalues --  -10.24559  -3.16367  -3.16269  -1.91248  -1.91151
 Alpha  occ. eigenvalues --   -1.90836  -1.90740  -1.90677  -1.90577  -1.16540
 Alpha  occ. eigenvalues --   -1.16424  -1.08506  -1.08419  -1.07144  -1.06885
 Alpha  occ. eigenvalues --   -1.06813  -1.06417  -1.04416  -1.04361  -1.03606
 Alpha  occ. eigenvalues --   -1.03529  -1.03067  -1.02902  -1.02245  -1.01973
 Alpha  occ. eigenvalues --   -0.91851  -0.91796  -0.89391  -0.89361  -0.89028
 Alpha  occ. eigenvalues --   -0.89027  -0.88166  -0.88093  -0.87675  -0.87641
 Alpha  occ. eigenvalues --   -0.87551  -0.87514  -0.87150  -0.87011  -0.84880
 Alpha  occ. eigenvalues --   -0.84829  -0.83820  -0.83750  -0.82883  -0.82840
 Alpha  occ. eigenvalues --   -0.82543  -0.82506  -0.81486  -0.81409  -0.80438
 Alpha  occ. eigenvalues --   -0.80328  -0.78650  -0.78509  -0.77073  -0.77019
 Alpha  occ. eigenvalues --   -0.76786  -0.76779  -0.75759  -0.75724  -0.74773
 Alpha  occ. eigenvalues --   -0.74686  -0.72609  -0.72561  -0.71522  -0.71458
 Alpha  occ. eigenvalues --   -0.69799  -0.69624  -0.68723  -0.68709  -0.67490
 Alpha  occ. eigenvalues --   -0.67478  -0.67091  -0.67075  -0.65149  -0.65123
 Alpha  occ. eigenvalues --   -0.64691  -0.64642  -0.64536  -0.64469  -0.64136
 Alpha  occ. eigenvalues --   -0.64076  -0.62169  -0.62120  -0.60317  -0.60224
 Alpha  occ. eigenvalues --   -0.59669  -0.59641  -0.58862  -0.58830  -0.58345
 Alpha  occ. eigenvalues --   -0.58296  -0.57422  -0.57395  -0.57166  -0.57113
 Alpha  occ. eigenvalues --   -0.56151  -0.56075  -0.55800  -0.55784  -0.55386
 Alpha  occ. eigenvalues --   -0.55347  -0.55200  -0.55124  -0.54369  -0.54368
 Alpha  occ. eigenvalues --   -0.53792  -0.53735  -0.53168  -0.53111  -0.53074
 Alpha  occ. eigenvalues --   -0.53026  -0.52781  -0.52757  -0.52641  -0.52576
 Alpha  occ. eigenvalues --   -0.52329  -0.52263  -0.51721  -0.51703  -0.51547
 Alpha  occ. eigenvalues --   -0.51465  -0.51070  -0.51030  -0.50486  -0.50382
 Alpha  occ. eigenvalues --   -0.49926  -0.49865  -0.49804  -0.49747  -0.49383
 Alpha  occ. eigenvalues --   -0.49376  -0.49081  -0.49053  -0.48979  -0.48938
 Alpha  occ. eigenvalues --   -0.48435  -0.48423  -0.48354  -0.48300  -0.48256
 Alpha  occ. eigenvalues --   -0.48237  -0.47558  -0.47481  -0.47159  -0.47005
 Alpha  occ. eigenvalues --   -0.46646  -0.46579  -0.46438  -0.46400  -0.46206
 Alpha  occ. eigenvalues --   -0.46142  -0.45995  -0.45956  -0.45693  -0.45632
 Alpha  occ. eigenvalues --   -0.45091  -0.45080  -0.44416  -0.44394  -0.44377
 Alpha  occ. eigenvalues --   -0.44350  -0.44018  -0.44006  -0.43953  -0.43947
 Alpha  occ. eigenvalues --   -0.43856  -0.43832  -0.43446  -0.43318  -0.43266
 Alpha  occ. eigenvalues --   -0.43242  -0.42869  -0.42822  -0.42771  -0.42565
 Alpha  occ. eigenvalues --   -0.42482  -0.42426  -0.41868  -0.41831  -0.41543
 Alpha  occ. eigenvalues --   -0.41535  -0.41382  -0.41339  -0.40993  -0.40865
 Alpha  occ. eigenvalues --   -0.40747  -0.40716  -0.40628  -0.40584  -0.40444
 Alpha  occ. eigenvalues --   -0.40367  -0.40119  -0.40083  -0.39344  -0.39288
 Alpha  occ. eigenvalues --   -0.38350  -0.38228  -0.37590  -0.37539  -0.37187
 Alpha  occ. eigenvalues --   -0.37137  -0.37097  -0.37072  -0.36653  -0.36530
 Alpha  occ. eigenvalues --   -0.36091  -0.36026  -0.34116  -0.34115  -0.33722
 Alpha  occ. eigenvalues --   -0.33552  -0.33038  -0.33015  -0.31266  -0.31188
 Alpha  occ. eigenvalues --   -0.30878  -0.30842  -0.29825  -0.29804  -0.29299
 Alpha  occ. eigenvalues --   -0.29200  -0.29131  -0.29062  -0.23913  -0.23899
 Alpha  occ. eigenvalues --   -0.20981  -0.20964
 Alpha virt. eigenvalues --   -0.08657  -0.08613  -0.01599  -0.01554   0.00074
 Alpha virt. eigenvalues --    0.00086   0.02349   0.02381   0.03276   0.03485
 Alpha virt. eigenvalues --    0.04709   0.04881   0.05288   0.05312   0.05803

 Mulliken charges:
               1
     1  Mg   0.840252
     2  C   -0.002569
     3  C   -0.094150
     4  C   -0.046324
     5  C   -0.063052
     6  N   -0.256650
     7  C   -0.052187
     8  C   -0.014086
     9  C   -0.086942
    10  C    0.046121
    11  C    0.104916
    12  C    0.053477
    13  C   -0.071629
    14  H    0.036055
    15  N   -0.432853
    16  C    0.168058
    17  C   -0.177604
    18  C   -0.004745
    19  C    0.148527
    20  C    0.110295
    21  C    0.011454
    22  O   -0.250944
    23  C    0.062831
    24  N   -0.341159
    25  C    0.041120
    26  C   -0.027880
    27  C   -0.023876
    28  C    0.075063
    29  C    0.076369
    30  C    0.034917
    31  C   -0.004943
    32  N   -0.311075
    33  C    0.082156
    34  C   -0.167284
    35  C    0.008831
    36  C    0.084493
    37  C    0.127002
    38  C    0.047409
    39  O   -0.187614
    40  C   -0.005912
    41  C    0.212789
    42  O   -0.255553
    43  O   -0.305150
    44  C    0.157723
    45  H   -0.018081
    46  H   -0.017930
    47  H   -0.041434
    48  H    0.000828
    49  H   -0.004246
    50  H    0.025336
    51  H    0.016230
    52  H    0.016278
    53  H    0.011294
    54  H    0.044770
    55  H    0.017597
    56  H    0.017769
    57  H    0.005859
    58  H    0.026180
    59  H    0.038700
    60  H    0.037574
    61  H    0.034165
    62  H    0.030776
    63  H    0.015440
    64  H    0.009231
    65  H    0.022267
    66  H    0.012620
    67  H    0.004502
    68  H    0.004650
    69  H    0.004518
    70  H    0.006940
    71  H    0.017436
    72  H    0.033046
    73  H    0.049885
    74  H    0.009182
    75  H    0.045311
    76  H    0.034748
    77  H    0.042650
    78  H    0.045965
    79  H    0.054079
    80  Mg   0.838695
    81  C   -0.016546
    82  C   -0.087586
    83  C   -0.045684
    84  C   -0.064618
    85  N   -0.254516
    86  C   -0.049636
    87  C   -0.015303
    88  C   -0.090567
    89  C    0.045659
    90  C    0.114436
    91  C    0.062462
    92  C   -0.078721
    93  H    0.034443
    94  N   -0.423305
    95  C    0.162714
    96  C   -0.174938
    97  C   -0.008296
    98  C    0.152013
    99  C    0.099521
   100  C    0.015070
   101  O   -0.253778
   102  C    0.061480
   103  N   -0.350130
   104  C    0.037465
   105  C   -0.019654
   106  C   -0.034902
   107  C    0.089203
   108  C    0.073831
   109  C    0.034733
   110  C   -0.007626
   111  N   -0.324439
   112  C    0.079286
   113  C   -0.161827
   114  C    0.002565
   115  C    0.097222
   116  C    0.131195
   117  C    0.043498
   118  O   -0.187395
   119  C    0.000421
   120  C    0.211106
   121  O   -0.249397
   122  O   -0.305734
   123  C    0.152000
   124  H   -0.019922
   125  H   -0.016110
   126  H   -0.040187
   127  H   -0.000992
   128  H   -0.004157
   129  H    0.022244
   130  H    0.014319
   131  H    0.016014
   132  H    0.014838
   133  H    0.038075
   134  H    0.020438
   135  H    0.020411
   136  H    0.008987
   137  H    0.025628
   138  H    0.039259
   139  H    0.038330
   140  H    0.035502
   141  H    0.033211
   142  H    0.014040
   143  H    0.012181
   144  H    0.024635
   145  H    0.011472
   146  H    0.005466
   147  H    0.005582
   148  H    0.003956
   149  H    0.009967
   150  H    0.018676
   151  H    0.031241
   152  H    0.047470
   153  H    0.008747
   154  H    0.046430
   155  H    0.034641
   156  H    0.043692
   157  H    0.048369
   158  H    0.053321
 Sum of Mulliken charges =  -0.00000

 Dipole moment (field-independent basis, Debye):
    X=              0.5932    Y=             -3.0629    Z=              6.1815  Tot=              6.9242
 Quadrupole moment (field-independent basis, Debye-Ang):
   XX=           -481.5021   YY=           -473.6747   ZZ=           -527.2973
   XY=             10.9532   XZ=             19.2568   YZ=             28.4294

 Normal termination of Gaussian 16 at Fri Sep 10 14:41:42 2021.
