 Gaussian 16, Revision A.03,
 Gaussian 16:  ES64L-G16RevA.03 25-Dec-2016

 -----------------------------------
 #p cam-b3lyp/Def2SVP td=(nstates=5)
 -----------------------------------

 --------------------------------
 TDDFT excited states in gaussian
 --------------------------------
 Symbolic Z-matrix:
 Charge =  0 Multiplicity = 1

                         Standard orientation:
 ---------------------------------------------------------------------
 Center     Atomic      Atomic             Coordinates (Angstroms)
 Number     Number       Type             X           Y           Z
 ---------------------------------------------------------------------
      1         12           0        7.532058    0.819223    0.430075
      2          6           0        7.923454   -2.350284   -1.186479
      3          6           0        8.466088    2.268820   -2.514296
      4          6           0        7.634284    3.597423    1.955780
      5          6           0        7.741962   -0.871528    3.470300
      6          7           0        8.096410   -0.038046   -1.531364
      7          6           0        8.148447   -1.266093   -2.037686
      8          6           0        8.390423   -1.290131   -3.576596
      9          6           0        9.094712    0.130545   -3.742895
     10          6           0        8.490488    0.842827   -2.545610
     11          6           0       10.609770    0.083103   -3.573046
     12          6           0        7.053124   -1.365044   -4.387613
     13          6           0        7.206671   -1.719536   -5.869542
     14          1           0        6.186609   -2.542106   -6.502157
     15          7           0        7.506087    2.666671   -0.269289
     16          6           0        7.907816    3.073379   -1.497494
     17          6           0        7.691459    4.535764   -1.533569
     18          6           0        7.309703    4.973224   -0.162079
     19          6           0        7.495986    3.751591    0.578387
     20          6           0        7.802492    5.353372   -2.783744
     21          6           0        6.860034    6.286837    0.395011
     22          8           0        6.802770    6.508414    1.652866
     23          6           0        6.569083    7.350345   -0.583427
     24          7           0        7.887873    1.333277    2.421753
     25          6           0        7.816198    2.605107    2.829544
     26          6           0        7.825689    2.699887    4.326496
     27          6           0        7.673539    1.204393    4.865106
     28          6           0        7.685890    0.461751    3.506209
     29          6           0        9.073455    3.341875    4.948543
     30          6           0        6.508134    0.925873    5.847285
     31          6           0        5.185358    1.074991    5.129564
     32          7           0        7.609188   -1.254163    1.067389
     33          6           0        7.717484   -1.728470    2.382676
     34          6           0        7.842951   -3.195482    2.303918
     35          6           0        7.815408   -3.473012    0.938610
     36          6           0        7.707646   -2.254292    0.209638
     37          6           0        8.020441   -4.077096    3.406500
     38          6           0        7.876738   -4.513670   -0.074862
     39          8           0        7.875259   -5.745362   -0.054230
     40          6           0        8.071803   -3.819485   -1.494680
     41          6           0        7.084854   -4.441884   -2.444343
     42          8           0        5.857889   -4.268880   -2.296042
     43          8           0        7.740636   -4.939405   -3.504044
     44          6           0        6.816560   -5.545576   -4.499431
     45          1           0        8.970647    2.822911   -3.308238
     46          1           0        7.563151    4.525074    2.527481
     47          1           0        7.726507   -1.472994    4.381043
     48          1           0        9.059468   -2.079705   -3.919198
     49          1           0        8.798713    0.625755   -4.667489
     50          1           0       10.942474   -0.899009   -3.237361
     51          1           0       10.842553    0.840405   -2.824181
     52          1           0       11.112155    0.401086   -4.486979
     53          1           0        6.631647   -0.364013   -4.479013
     54          1           0        6.357079   -2.062525   -3.920315
     55          1           0        8.201109   -2.111646   -6.084601
     56          1           0        7.147629   -0.798164   -6.449015
     57          1           0        8.258013    4.785866   -3.594289
     58          1           0        8.513830    6.153228   -2.578961
     59          1           0        6.844660    5.780470   -3.081194
     60          1           0        7.462185    7.547682   -1.176703
     61          1           0        6.176095    8.188314   -0.008781
     62          1           0        5.811250    6.991259   -1.280346
     63          1           0        6.987874    3.295968    4.685912
     64          1           0        8.560855    0.871535    5.404133
     65          1           0        8.854212    4.203714    5.579314
     66          1           0        9.752314    3.611592    4.140030
     67          1           0        9.692896    2.663208    5.534308
     68          1           0        6.515640    1.651362    6.660031
     69          1           0        6.547413   -0.069206    6.290598
     70          1           0        5.004097    2.148316    5.173703
     71          1           0        4.403592    0.525108    5.654618
     72          1           0        5.270229    0.801853    4.077576
     73          1           0        7.361525   -4.926549    3.226978
     74          1           0        7.783838   -3.584568    4.349388
     75          1           0        9.081134   -4.308785    3.311074
     76          1           0        9.102405   -4.005232   -1.795478
     77          1           0        7.144028   -6.573243   -4.657222
     78          1           0        6.809341   -4.878765   -5.361821
     79          1           0        5.789583   -5.705268   -4.169043
     80         12           0       -8.311985    0.192801   -0.196433
     81          6           0       -5.677508   -2.036854    0.787068
     82          6           0       -6.008731    2.707575   -0.121954
     83          6           0      -10.690477    2.249599   -0.620443
     84          6           0      -10.574966   -2.218792    0.903048
     85          7           0       -6.153127    0.208209    0.284561
     86          6           0       -5.246202   -0.709285    0.584603
     87          6           0       -3.783693   -0.189140    0.593826
     88          6           0       -4.082910    1.364952    0.866123
     89          6           0       -5.489304    1.450031    0.276640
     90          6           0       -4.162339    1.712710    2.343318
     91          6           0       -3.064612   -0.402783   -0.784309
     92          6           0       -1.547671   -0.203186   -0.755932
     93          1           0       -0.718064   -1.050720   -1.607934
     94          7           0       -8.285080    2.076250   -0.821311
     95          6           0       -7.258920    2.948292   -0.733038
     96          6           0       -7.749221    4.206865   -1.315932
     97          6           0       -9.201134    4.055494   -1.605348
     98          6           0       -9.458760    2.766918   -0.994369
     99          6           0       -6.848132    5.368500   -1.619343
    100          6           0      -10.196216    4.931973   -2.303762
    101          8           0      -11.456508    4.709899   -2.231750
    102          6           0       -9.658088    6.111475   -2.997076
    103          7           0      -10.332284    0.131950    0.290398
    104          6           0      -11.156967    1.136517   -0.054088
    105          6           0      -12.602309    0.751033    0.152740
    106          6           0      -12.586793   -0.814103    0.480878
    107          6           0      -11.061211   -1.054489    0.495461
    108          6           0      -13.336927    1.496981    1.266431
    109          6           0      -13.470709   -1.728864   -0.410499
    110          6           0      -12.923841   -1.760654   -1.819511
    111          7           0       -8.191471   -1.843933    0.514390
    112          6           0       -9.258962   -2.661090    0.946618
    113          6           0       -8.669043   -3.920465    1.444996
    114          6           0       -7.286778   -3.738045    1.288229
    115          6           0       -7.031996   -2.447642    0.750236
    116          6           0       -9.390558   -5.014137    2.001252
    117          6           0       -5.984681   -4.339561    1.465432
    118          8           0       -5.580059   -5.451914    1.801133
    119          6           0       -4.877830   -3.216258    1.266778
    120          6           0       -3.819007   -3.764496    0.349792
    121          8           0       -4.085591   -4.031332   -0.835257
    122          8           0       -2.621910   -3.678827    0.958043
    123          6           0       -1.537883   -4.200360    0.083569
    124          1           0       -5.422480    3.602017    0.090564
    125          1           0      -11.554680    2.877589   -0.849028
    126          1           0      -11.219282   -3.058716    1.171498
    127          1           0       -3.163095   -0.592489    1.384996
    128          1           0       -3.398164    2.001963    0.312313
    129          1           0       -4.121563    0.832272    2.967247
    130          1           0       -5.105991    2.225928    2.474376
    131          1           0       -3.386058    2.438535    2.601970
    132          1           0       -3.348267    0.409447   -1.465900
    133          1           0       -3.294366   -1.369626   -1.188112
    134          1           0       -1.153526   -0.183962    0.267408
    135          1           0       -1.321038    0.790822   -1.149150
    136          1           0       -5.865785    5.250022   -1.145682
    137          1           0       -7.282103    6.246489   -1.128761
    138          1           0       -6.763478    5.567550   -2.689807
    139          1           0       -9.125445    6.737220   -2.284897
    140          1           0      -10.509704    6.562945   -3.509703
    141          1           0       -8.920680    5.777143   -3.735366
    142          1           0      -13.179225    0.915317   -0.749079
    143          1           0      -12.947180   -1.020484    1.499393
    144          1           0      -14.247836    2.017869    0.915720
    145          1           0      -12.648563    2.198063    1.719384
    146          1           0      -13.633809    0.883489    2.115354
    147          1           0      -14.483883   -1.325331   -0.479855
    148          1           0      -13.553406   -2.744696   -0.038691
    149          1           0      -13.344202   -0.855468   -2.267861
    150          1           0      -13.262055   -2.653419   -2.341648
    151          1           0      -11.832929   -1.653104   -1.820786
    152          1           0       -8.965176   -5.914789    1.578911
    153          1           0      -10.454705   -4.938132    1.787765
    154          1           0       -9.173690   -4.870930    3.063198
    155          1           0       -4.479266   -2.971203    2.251998
    156          1           0       -1.017248   -4.978789    0.649845
    157          1           0       -0.945969   -3.315877   -0.218253
    158          1           0       -1.830333   -4.745779   -0.806054
 ---------------------------------------------------------------------

 SCF Done:  E(RCAM-B3LYP) =  -4069.81195349     A.U. after   19 cycles

 Excitation energies and oscillator strengths:

 Excited State   1:      Singlet-A      1.6689 eV  742.93 nm  f=0.0124  <S**2>=0.000
     309 -> 315       -0.10778
     310 -> 316        0.13402
     311 -> 313       -0.42843
     312 -> 314        0.53632
 This state for optimization and/or second-order correction.
 Total Energy, E(TD-HF/TD-DFT) =  -4069.75062395
 Copying the excited state density for this state as the 1-particle RhoCI density.

 Excited State   2:      Singlet-A      1.6858 eV  735.48 nm  f=0.7400  <S**2>=0.000
     309 -> 315        0.13822
     310 -> 316        0.10977
     311 -> 313        0.53540
     312 -> 314        0.42779

 Excited State   3:      Singlet-A      2.1853 eV  567.36 nm  f=0.1062  <S**2>=0.000
     310 -> 314        0.64263
     312 -> 316       -0.27242

 Excited State   4:      Singlet-A      2.1924 eV  565.51 nm  f=0.0962  <S**2>=0.000
     309 -> 313        0.64070
     311 -> 315       -0.27813

 Excited State   5:      Singlet-A      2.7177 eV  456.20 nm  f=0.0000  <S**2>=0.000
     312 -> 313        0.70693

 The electronic state is 1-A.
 Alpha  occ. eigenvalues --  -46.87949 -46.87555 -19.26390 -19.26052 -19.19147
 Alpha  occ. eigenvalues --  -19.18983 -19.18917 -19.18634 -19.18296 -19.17912
 Alpha  occ. eigenvalues --  -14.42594 -14.42385 -14.41598 -14.41256 -14.39555
 Alpha  occ. eigenvalues --  -14.39249 -14.38735 -14.38492 -10.39205 -10.38851
 Alpha  occ. eigenvalues --  -10.35617 -10.35314 -10.34515 -10.34084 -10.31761
 Alpha  occ. eigenvalues --  -10.31541 -10.31349 -10.31187 -10.31053 -10.30903
 Alpha  occ. eigenvalues --  -10.30712 -10.30656 -10.30358 -10.30293 -10.30248
 Alpha  occ. eigenvalues --  -10.30066 -10.30051 -10.29793 -10.29778 -10.29404
 Alpha  occ. eigenvalues --  -10.29341 -10.29297 -10.28874 -10.28641 -10.28557
 Alpha  occ. eigenvalues --  -10.28512 -10.28397 -10.28292 -10.28239 -10.28000
 Alpha  occ. eigenvalues --  -10.27935 -10.27896 -10.27869 -10.27735 -10.27647
 Alpha  occ. eigenvalues --  -10.27632 -10.27596 -10.27561 -10.27546 -10.27440
 Alpha  occ. eigenvalues --  -10.27390 -10.27366 -10.27364 -10.27296 -10.27284
 Alpha  occ. eigenvalues --  -10.26880 -10.26832 -10.26592 -10.26498 -10.26357
 Alpha  occ. eigenvalues --  -10.26343 -10.26339 -10.26164 -10.26068 -10.25955
 Alpha  occ. eigenvalues --  -10.25894 -10.25836 -10.25752 -10.25566 -10.25328
 Alpha  occ. eigenvalues --  -10.24973 -10.24936 -10.24873 -10.24762 -10.24663
 Alpha  occ. eigenvalues --  -10.24587  -3.16692  -3.16305  -1.91574  -1.91187
 Alpha  occ. eigenvalues --   -1.91160  -1.91002  -1.90776  -1.90613  -1.16742
 Alpha  occ. eigenvalues --   -1.16360  -1.08751  -1.08509  -1.07386  -1.06888
 Alpha  occ. eigenvalues --   -1.06766  -1.06698  -1.04724  -1.04380  -1.03908
 Alpha  occ. eigenvalues --   -1.03556  -1.03382  -1.02937  -1.02558  -1.02006
 Alpha  occ. eigenvalues --   -0.92111  -0.91859  -0.89669  -0.89397  -0.89314
 Alpha  occ. eigenvalues --   -0.89005  -0.88434  -0.88129  -0.88003  -0.87813
 Alpha  occ. eigenvalues --   -0.87686  -0.87566  -0.87429  -0.87032  -0.85114
 Alpha  occ. eigenvalues --   -0.84856  -0.84084  -0.83779  -0.83130  -0.82850
 Alpha  occ. eigenvalues --   -0.82784  -0.82514  -0.81708  -0.81398  -0.80733
 Alpha  occ. eigenvalues --   -0.80281  -0.78944  -0.78538  -0.77357  -0.77060
 Alpha  occ. eigenvalues --   -0.77022  -0.76734  -0.76048  -0.75673  -0.75036
 Alpha  occ. eigenvalues --   -0.74689  -0.72914  -0.72592  -0.71807  -0.71459
 Alpha  occ. eigenvalues --   -0.70061  -0.69672  -0.69007  -0.68688  -0.67784
 Alpha  occ. eigenvalues --   -0.67480  -0.67356  -0.67051  -0.65418  -0.65119
 Alpha  occ. eigenvalues --   -0.64991  -0.64756  -0.64646  -0.64491  -0.64416
 Alpha  occ. eigenvalues --   -0.64098  -0.62420  -0.62070  -0.60595  -0.60248
 Alpha  occ. eigenvalues --   -0.59936  -0.59663  -0.59127  -0.58874  -0.58643
 Alpha  occ. eigenvalues --   -0.58298  -0.57713  -0.57452  -0.57383  -0.57123
 Alpha  occ. eigenvalues --   -0.56448  -0.56095  -0.56090  -0.55675  -0.55664
 Alpha  occ. eigenvalues --   -0.55477  -0.55310  -0.55111  -0.54657  -0.54325
 Alpha  occ. eigenvalues --   -0.54023  -0.53763  -0.53445  -0.53360  -0.53113
 Alpha  occ. eigenvalues --   -0.53052  -0.53001  -0.52904  -0.52741  -0.52594
 Alpha  occ. eigenvalues --   -0.52563  -0.52312  -0.52041  -0.51775  -0.51750
 Alpha  occ. eigenvalues --   -0.51510  -0.51330  -0.51061  -0.50735  -0.50395
 Alpha  occ. eigenvalues --   -0.50179  -0.50068  -0.49871  -0.49776  -0.49654
 Alpha  occ. eigenvalues --   -0.49371  -0.49351  -0.49220  -0.49070  -0.48961
 Alpha  occ. eigenvalues --   -0.48720  -0.48612  -0.48584  -0.48402  -0.48278
 Alpha  occ. eigenvalues --   -0.48220  -0.47834  -0.47464  -0.47437  -0.47002
 Alpha  occ. eigenvalues --   -0.46937  -0.46685  -0.46591  -0.46502  -0.46406
 Alpha  occ. eigenvalues --   -0.46297  -0.46158  -0.45951  -0.45941  -0.45654
 Alpha  occ. eigenvalues --   -0.45344  -0.45108  -0.44707  -0.44654  -0.44368
 Alpha  occ. eigenvalues --   -0.44346  -0.44293  -0.44217  -0.44154  -0.44001
 Alpha  occ. eigenvalues --   -0.43963  -0.43807  -0.43619  -0.43523  -0.43360
 Alpha  occ. eigenvalues --   -0.43239  -0.43163  -0.42837  -0.42791  -0.42784
 Alpha  occ. eigenvalues --   -0.42671  -0.42462  -0.42153  -0.41845  -0.41841
 Alpha  occ. eigenvalues --   -0.41664  -0.41540  -0.41316  -0.41276  -0.41008
 Alpha  occ. eigenvalues --   -0.40980  -0.40870  -0.40713  -0.40614  -0.40569
 Alpha  occ. eigenvalues --   -0.40384  -0.40362  -0.40057  -0.39600  -0.39342
 Alpha  occ. eigenvalues --   -0.38612  -0.38248  -0.37876  -0.37481  -0.37465
 Alpha  occ. eigenvalues --   -0.37398  -0.37160  -0.37052  -0.36840  -0.36554
 Alpha  occ. eigenvalues --   -0.36327  -0.36065  -0.34431  -0.34141  -0.33902
 Alpha  occ. eigenvalues --   -0.33646  -0.33331  -0.33061  -0.31512  -0.31192
 Alpha  occ. eigenvalues --   -0.31180  -0.30860  -0.30154  -0.29811  -0.29601
 Alpha  occ. eigenvalues --   -0.29465  -0.29228  -0.29103  -0.24226  -0.23926
 Alpha  occ. eigenvalues --   -0.21273  -0.21012
 Alpha virt. eigenvalues --   -0.08921  -0.08687  -0.01899  -0.01581  -0.00210
 Alpha virt. eigenvalues --    0.00072   0.02062   0.02325   0.02920   0.03326
 Alpha virt. eigenvalues --    0.04583   0.04869   0.04974   0.05392   0.06061

 Mulliken charges:
               1
     1  Mg   0.837804
     2  C   -0.003185
     3  C   -0.094079
     4  C   -0.046171
     5  C   -0.063917
     6  N   -0.256811
     7  C   -0.052426
     8  C   -0.013934
     9  C   -0.086977
    10  C    0.046170
    11  C    0.104740
    12  C    0.053491
    13  C   -0.072082
    14  H    0.036665
    15  N   -0.433159
    16  C    0.168122
    17  C   -0.177225
    18  C   -0.004261
    19  C    0.148473
    20  C    0.110117
    21  C    0.011767
    22  O   -0.249802
    23  C    0.062695
    24  N   -0.341105
    25  C    0.041230
    26  C   -0.028179
    27  C   -0.024031
    28  C    0.074666
    29  C    0.076089
    30  C    0.035152
    31  C   -0.004555
    32  N   -0.310497
    33  C    0.080259
    34  C   -0.169637
    35  C    0.008523
    36  C    0.082702
    37  C    0.127308
    38  C    0.046013
    39  O   -0.187752
    40  C   -0.005260
    41  C    0.213202
    42  O   -0.257936
    43  O   -0.304612
    44  C    0.157525
    45  H   -0.017351
    46  H   -0.016920
    47  H   -0.041157
    48  H    0.001302
    49  H   -0.003919
    50  H    0.025673
    51  H    0.016473
    52  H    0.016958
    53  H    0.010841
    54  H    0.043745
    55  H    0.018211
    56  H    0.018014
    57  H    0.006125
    58  H    0.027054
    59  H    0.039076
    60  H    0.037782
    61  H    0.035406
    62  H    0.030797
    63  H    0.016165
    64  H    0.009875
    65  H    0.023248
    66  H    0.012728
    67  H    0.005074
    68  H    0.006593
    69  H    0.005242
    70  H    0.008271
    71  H    0.018152
    72  H    0.028457
    73  H    0.047885
    74  H    0.009316
    75  H    0.046409
    76  H    0.035568
    77  H    0.043571
    78  H    0.046576
    79  H    0.053643
    80  Mg   0.837614
    81  C   -0.016642
    82  C   -0.087857
    83  C   -0.045727
    84  C   -0.065179
    85  N   -0.254547
    86  C   -0.049801
    87  C   -0.014880
    88  C   -0.090434
    89  C    0.045765
    90  C    0.114415
    91  C    0.062745
    92  C   -0.078962
    93  H    0.038166
    94  N   -0.423421
    95  C    0.162769
    96  C   -0.174794
    97  C   -0.008059
    98  C    0.152043
    99  C    0.099432
   100  C    0.015383
   101  O   -0.253467
   102  C    0.061290
   103  N   -0.350115
   104  C    0.037436
   105  C   -0.019739
   106  C   -0.034802
   107  C    0.089020
   108  C    0.073755
   109  C    0.034777
   110  C   -0.007631
   111  N   -0.324173
   112  C    0.078584
   113  C   -0.163273
   114  C    0.002432
   115  C    0.096146
   116  C    0.131500
   117  C    0.042289
   118  O   -0.187220
   119  C    0.001123
   120  C    0.211431
   121  O   -0.251384
   122  O   -0.305892
   123  C    0.151425
   124  H   -0.019784
   125  H   -0.015882
   126  H   -0.040644
   127  H   -0.000115
   128  H   -0.004349
   129  H    0.022455
   130  H    0.014045
   131  H    0.016370
   132  H    0.013093
   133  H    0.037913
   134  H    0.021208
   135  H    0.018412
   136  H    0.008684
   137  H    0.025887
   138  H    0.039303
   139  H    0.038136
   140  H    0.036070
   141  H    0.033680
   142  H    0.014198
   143  H    0.012282
   144  H    0.024894
   145  H    0.011601
   146  H    0.005505
   147  H    0.006049
   148  H    0.003597
   149  H    0.010792
   150  H    0.017797
   151  H    0.030260
   152  H    0.046152
   153  H    0.008297
   154  H    0.046884
   155  H    0.035061
   156  H    0.045790
   157  H    0.051309
   158  H    0.053509
 Sum of Mulliken charges =  -0.00000

 Dipole moment (field-independent basis, Debye):
    X=              3.8169    Y=              7.0670    Z=             -1.9669  Tot=              8.2692
 Quadrupole moment (field-independent basis, Debye-Ang):
   XX=           -483.8835   YY=           -552.6156   ZZ=           -474.2908
   XY=             21.1897   XZ=            -36.2625   YZ=            -10.3664

 Normal termination of Gaussian 16 at Sun Sep 12 02:29:55 2021.
