 Gaussian 16, Revision A.03,
 Gaussian 16:  ES64L-G16RevA.03 25-Dec-2016

 -----------------------------------
 #p cam-b3lyp/Def2SVP td=(nstates=5)
 -----------------------------------

 --------------------------------
 TDDFT excited states in gaussian
 --------------------------------
 Symbolic Z-matrix:
 Charge =  0 Multiplicity = 1

                         Standard orientation:
 ---------------------------------------------------------------------
 Center     Atomic      Atomic             Coordinates (Angstroms)
 Number     Number       Type             X           Y           Z
 ---------------------------------------------------------------------
      1         12           0       -4.964643    0.755700    0.044766
      2          6           0       -5.345180   -2.351552    1.780391
      3          6           0       -5.738357    2.318023    2.977952
      4          6           0       -5.080701    3.485137   -1.565614
      5          6           0       -5.342463   -1.026810   -2.926020
      6          7           0       -5.457672   -0.026349    2.056226
      7          6           0       -5.510961   -1.236197    2.604494
      8          6           0       -5.684620   -1.205882    4.152492
      9          6           0       -6.353082    0.233772    4.302663
     10          6           0       -5.789030    0.894584    3.057232
     11          6           0       -7.874834    0.212527    4.201077
     12          6           0       -4.314253   -1.282659    4.906105
     13          6           0       -4.408540   -1.586225    6.404208
     14          1           0       -3.377500   -2.409209    7.018211
     15          7           0       -4.871691    2.623656    0.681123
     16          6           0       -5.210377    3.077783    1.911711
     17          6           0       -4.964267    4.535742    1.890103
     18          6           0       -4.635513    4.920994    0.489533
     19          6           0       -4.878262    3.680424   -0.201434
     20          6           0       -5.003642    5.395110    3.116352
     21          6           0       -4.185658    6.206425   -0.129683
     22          8           0       -4.180148    6.386358   -1.395451
     23          6           0       -3.830843    7.294424    0.799513
     24          7           0       -5.398707    1.213010   -1.945231
     25          6           0       -5.320567    2.469356   -2.397420
     26          6           0       -5.394838    2.516320   -3.894823
     27          6           0       -5.295888    1.001494   -4.390065
     28          6           0       -5.262161    0.303176   -3.008224
     29          6           0       -6.656351    3.163942   -4.482344
     30          6           0       -4.180987    0.667411   -5.412710
     31          6           0       -2.824927    0.811817   -4.758990
     32          7           0       -5.110320   -1.334974   -0.519952
     33          6           0       -5.286246   -1.848802   -1.812896
     34          6           0       -5.436552   -3.309602   -1.680462
     35          6           0       -5.353660   -3.543776   -0.309281
     36          6           0       -5.189906   -2.304847    0.373750
     37          6           0       -5.680033   -4.222184   -2.744579
     38          6           0       -5.390017   -4.549935    0.739613
     39          8           0       -5.413380   -5.781418    0.759494
     40          6           0       -5.508170   -3.806713    2.142998
     41          6           0       -4.492204   -4.418828    3.068436
     42          8           0       -3.269928   -4.276293    2.860852
     43          8           0       -5.109705   -4.868366    4.171681
     44          6           0       -4.154187   -5.461489    5.144997
     45          1           0       -6.196219    2.907663    3.774588
     46          1           0       -5.017083    4.392316   -2.170112
     47          1           0       -5.379248   -1.657329   -3.816271
     48          1           0       -6.352960   -1.969951    4.549913
     49          1           0       -6.006659    0.752060    5.196582
     50          1           0       -8.241162   -0.772680    3.912819
     51          1           0       -8.125968    0.950147    3.438618
     52          1           0       -8.329770    0.570028    5.125200
     53          1           0       -3.869763   -0.288223    4.945929
     54          1           0       -3.653376   -2.009115    4.431943
     55          1           0       -5.399848   -1.950419    6.675464
     56          1           0       -4.305880   -0.648199    6.949889
     57          1           0       -5.433569    4.863480    3.964336
     58          1           0       -5.707721    6.202660    2.916743
     59          1           0       -4.025404    5.811444    3.357286
     60          1           0       -4.692650    7.529248    1.424569
     61          1           0       -3.447622    8.105180    0.180912
     62          1           0       -3.049857    6.942115    1.473968
     63          1           0       -4.562432    3.082978   -4.310064
     64          1           0       -6.212614    0.670123   -4.878409
     65          1           0       -6.448705    4.000376   -5.150151
     66          1           0       -7.293183    3.473517   -3.654153
     67          1           0       -7.314317    2.479930   -5.017719
     68          1           0       -4.210569    1.366496   -6.247785
     69          1           0       -4.259278   -0.340320   -5.820876
     70          1           0       -2.624999    1.879164   -4.846346
     71          1           0       -2.078135    0.229213   -5.299439
     72          1           0       -2.868177    0.574342   -3.695872
     73          1           0       -5.030402   -5.079010   -2.566262
     74          1           0       -5.476114   -3.765150   -3.712639
     75          1           0       -6.739727   -4.428523   -2.595151
     76          1           0       -6.527775   -3.961194    2.494658
     77          1           0       -4.494204   -6.476521    5.350743
     78          1           0       -4.095638   -4.767695    5.983823
     79          1           0       -3.146229   -5.653067    4.775324
     80         12           0        5.590795    0.133722    0.009993
     81          6           0        3.444112   -1.665138   -2.233871
     82          6           0        4.272185    3.007238   -1.270152
     83          6           0        7.779905    1.748471    1.643327
     84          6           0        7.509667   -2.763373    0.275459
     85          7           0        4.061633    0.494858   -1.546777
     86          6           0        3.270100   -0.266456   -2.287182
     87          6           0        2.179760    0.511329   -3.071899
     88          6           0        2.905289    1.942491   -3.137140
     89          6           0        3.778298    1.831087   -1.888897
     90          6           0        3.815253    2.101465   -4.343792
     91          6           0        0.822142    0.590713   -2.289212
     92          6           0       -0.372616    1.063505   -3.120340
     93          1           0       -1.684913    0.485477   -2.844230
     94          7           0        5.651270    2.047552    0.531678
     95          6           0        5.038670    3.079151   -0.086228
     96          6           0        5.412775    4.282388    0.672988
     97          6           0        6.428385    3.898034    1.690597
     98          6           0        6.680095    2.523742    1.305809
     99          6           0        4.762290    5.617475    0.454305
    100          6           0        7.076452    4.647679    2.814985
    101          8           0        8.106656    4.189243    3.424371
    102          6           0        6.526604    5.976703    3.119668
    103          7           0        7.499548   -0.354724    0.673648
    104          6           0        8.218891    0.511817    1.408199
    105          6           0        9.436706   -0.155579    2.001409
    106          6           0        9.255663   -1.717498    1.709500
    107          6           0        7.951270   -1.671091    0.883790
    108          6           0       10.784781    0.311503    1.452859
    109          6           0        9.323432   -2.674282    2.931237
    110          6           0        8.131361   -2.445816    3.832440
    111          7           0        5.420123   -1.912086   -0.663521
    112          6           0        6.349703   -2.956167   -0.463934
    113          6           0        5.849166   -4.132251   -1.204689
    114          6           0        4.665516   -3.680404   -1.807439
    115          6           0        4.454565   -2.313044   -1.482902
    116          6           0        6.497696   -5.396096   -1.295386
    117          6           0        3.552113   -4.046221   -2.653140
    118          8           0        3.151751   -5.094851   -3.156963
    119          6           0        2.777937   -2.722188   -3.070219
    120          6           0        1.307352   -2.958252   -2.860058
    121          8           0        0.852761   -3.135131   -1.716084
    122          8           0        0.653934   -2.721040   -4.012076
    123          6           0       -0.809561   -2.931134   -3.851204
    124          1           0        4.092426    3.965222   -1.758851
    125          1           0        8.510657    2.227054    2.299408
    126          1           0        7.999591   -3.732884    0.388205
    127          1           0        1.991745    0.143771   -4.073550
    128          1           0        2.189471    2.753437   -3.030653
    129          1           0        3.915672    1.179468   -4.896926
    130          1           0        4.773988    2.412905   -3.950225
    131          1           0        3.466060    2.924873   -4.973393
    132          1           0        0.877523    1.407596   -1.558197
    133          1           0        0.592233   -0.350420   -1.828744
    134          1           0       -0.161198    1.040450   -4.196307
    135          1           0       -0.549164    2.120041   -2.904469
    136          1           0        4.171940    5.630692   -0.470202
    137          1           0        5.566285    6.339116    0.273515
    138          1           0        4.178218    5.947643    1.315994
    139          1           0        6.593040    6.606358    2.235601
    140          1           0        7.060848    6.317175    4.008795
    141          1           0        5.460825    5.869851    3.350572
    142          1           0        9.479250   -0.000894    3.072560
    143          1           0       10.038835   -2.100080    1.038588
    144          1           0       11.467327    0.690578    2.236765
    145          1           0       10.603975    1.072657    0.705536
    146          1           0       11.339020   -0.437730    0.890127
    147          1           0       10.211477   -2.460312    3.531023
    148          1           0        9.365228   -3.723041    2.656736
    149          1           0        8.441203   -1.589710    4.439198
    150          1           0        7.945457   -3.321451    4.451110
    151          1           0        7.253061   -2.138512    3.252947
    152          1           0        5.731413   -6.149116   -1.167864
    153          1           0        7.281857   -5.495144   -0.547681
    154          1           0        6.902482   -5.335303   -2.309148
    155          1           0        3.014787   -2.519674   -4.115436
    156          1           0       -1.113341   -3.658161   -4.610704
    157          1           0       -1.263915   -1.924092   -3.907631
    158          1           0       -1.149332   -3.417947   -2.944562
 ---------------------------------------------------------------------

 SCF Done:  E(RCAM-B3LYP) =  -4069.79527156     A.U. after   19 cycles

 Excitation energies and oscillator strengths:

 Excited State   1:      Singlet-A      1.6533 eV  749.93 nm  f=0.0064  <S**2>=0.000
     309 -> 315        0.11345
     310 -> 316        0.12285
     311 -> 313        0.46522
     312 -> 314        0.50601
 This state for optimization and/or second-order correction.
 Total Energy, E(TD-HF/TD-DFT) =  -4069.73451500
 Copying the excited state density for this state as the 1-particle RhoCI density.

 Excited State   2:      Singlet-A      1.6977 eV  730.29 nm  f=0.7076  <S**2>=0.000
     309 -> 315        0.13177
     310 -> 316       -0.12065
     311 -> 313        0.50381
     312 -> 314       -0.46338

 Excited State   3:      Singlet-A      2.1820 eV  568.22 nm  f=0.0687  <S**2>=0.000
     309 -> 313        0.28655
     310 -> 314        0.57711
     311 -> 315       -0.11900
     312 -> 316       -0.24067

 Excited State   4:      Singlet-A      2.1921 eV  565.58 nm  f=0.1274  <S**2>=0.000
     309 -> 313        0.57354
     310 -> 314       -0.28393
     311 -> 315       -0.24943
     312 -> 316        0.12387

 Excited State   5:      Singlet-A      2.4438 eV  507.34 nm  f=0.0000  <S**2>=0.000
     312 -> 313        0.70669

 The electronic state is 1-A.
 Alpha  occ. eigenvalues --  -46.87937 -46.87402 -19.26112 -19.26004 -19.19031
 Alpha  occ. eigenvalues --  -19.18819 -19.18721 -19.18532 -19.18177 -19.17764
 Alpha  occ. eigenvalues --  -14.42581 -14.42216 -14.41638 -14.41112 -14.39555
 Alpha  occ. eigenvalues --  -14.39103 -14.38712 -14.38338 -10.38906 -10.38680
 Alpha  occ. eigenvalues --  -10.35666 -10.35216 -10.34392 -10.33936 -10.31511
 Alpha  occ. eigenvalues --  -10.31485 -10.31484 -10.31014 -10.31007 -10.30731
 Alpha  occ. eigenvalues --  -10.30703 -10.30676 -10.30449 -10.30146 -10.30112
 Alpha  occ. eigenvalues --  -10.30089 -10.29925 -10.29792 -10.29649 -10.29435
 Alpha  occ. eigenvalues --  -10.29208 -10.29151 -10.28771 -10.28470 -10.28465
 Alpha  occ. eigenvalues --  -10.28306 -10.28167 -10.28146 -10.27921 -10.27867
 Alpha  occ. eigenvalues --  -10.27796 -10.27782 -10.27756 -10.27745 -10.27717
 Alpha  occ. eigenvalues --  -10.27633 -10.27514 -10.27476 -10.27403 -10.27329
 Alpha  occ. eigenvalues --  -10.27278 -10.27228 -10.27208 -10.27185 -10.27140
 Alpha  occ. eigenvalues --  -10.26744 -10.26654 -10.26646 -10.26414 -10.26295
 Alpha  occ. eigenvalues --  -10.26286 -10.26252 -10.26026 -10.26001 -10.25966
 Alpha  occ. eigenvalues --  -10.25754 -10.25697 -10.25658 -10.25612 -10.25233
 Alpha  occ. eigenvalues --  -10.25110 -10.24960 -10.24941 -10.24618 -10.24559
 Alpha  occ. eigenvalues --  -10.24446  -3.16679  -3.16152  -1.91560  -1.91148
 Alpha  occ. eigenvalues --   -1.91034  -1.90989  -1.90622  -1.90460  -1.16460
 Alpha  occ. eigenvalues --   -1.16278  -1.08612  -1.08358  -1.07438  -1.06789
 Alpha  occ. eigenvalues --   -1.06527  -1.06452  -1.04702  -1.04214  -1.03929
 Alpha  occ. eigenvalues --   -1.03403  -1.03388  -1.02794  -1.02560  -1.01859
 Alpha  occ. eigenvalues --   -0.92060  -0.91710  -0.89780  -0.89268  -0.89236
 Alpha  occ. eigenvalues --   -0.88781  -0.88527  -0.88007  -0.88003  -0.87802
 Alpha  occ. eigenvalues --   -0.87537  -0.87445  -0.87380  -0.86911  -0.85063
 Alpha  occ. eigenvalues --   -0.84659  -0.84232  -0.83667  -0.83192  -0.82752
 Alpha  occ. eigenvalues --   -0.82747  -0.82345  -0.81613  -0.81306  -0.80682
 Alpha  occ. eigenvalues --   -0.80167  -0.78953  -0.78405  -0.77492  -0.77037
 Alpha  occ. eigenvalues --   -0.76857  -0.76564  -0.75974  -0.75561  -0.75097
 Alpha  occ. eigenvalues --   -0.74581  -0.72949  -0.72448  -0.71801  -0.71329
 Alpha  occ. eigenvalues --   -0.70527  -0.69556  -0.68989  -0.68466  -0.67775
 Alpha  occ. eigenvalues --   -0.67346  -0.67284  -0.66842  -0.65380  -0.65085
 Alpha  occ. eigenvalues --   -0.64890  -0.64701  -0.64530  -0.64495  -0.64247
 Alpha  occ. eigenvalues --   -0.63975  -0.62291  -0.61985  -0.60628  -0.60123
 Alpha  occ. eigenvalues --   -0.59883  -0.59477  -0.59125  -0.58730  -0.58628
 Alpha  occ. eigenvalues --   -0.58161  -0.57644  -0.57408  -0.57247  -0.56995
 Alpha  occ. eigenvalues --   -0.56452  -0.55957  -0.55939  -0.55707  -0.55597
 Alpha  occ. eigenvalues --   -0.55522  -0.55214  -0.55008  -0.54630  -0.54226
 Alpha  occ. eigenvalues --   -0.53945  -0.53562  -0.53495  -0.53342  -0.53159
 Alpha  occ. eigenvalues --   -0.52994  -0.52956  -0.52858  -0.52783  -0.52584
 Alpha  occ. eigenvalues --   -0.52418  -0.52192  -0.52053  -0.51677  -0.51630
 Alpha  occ. eigenvalues --   -0.51515  -0.51272  -0.50915  -0.50797  -0.50459
 Alpha  occ. eigenvalues --   -0.50290  -0.50070  -0.49736  -0.49652  -0.49607
 Alpha  occ. eigenvalues --   -0.49314  -0.49237  -0.49151  -0.48933  -0.48786
 Alpha  occ. eigenvalues --   -0.48722  -0.48612  -0.48540  -0.48320  -0.48165
 Alpha  occ. eigenvalues --   -0.48108  -0.47962  -0.47450  -0.47407  -0.47188
 Alpha  occ. eigenvalues --   -0.46887  -0.46636  -0.46593  -0.46486  -0.46385
 Alpha  occ. eigenvalues --   -0.46105  -0.46033  -0.45909  -0.45831  -0.45699
 Alpha  occ. eigenvalues --   -0.45413  -0.45160  -0.44934  -0.44646  -0.44474
 Alpha  occ. eigenvalues --   -0.44243  -0.44165  -0.44090  -0.44065  -0.43862
 Alpha  occ. eigenvalues --   -0.43782  -0.43682  -0.43550  -0.43521  -0.43358
 Alpha  occ. eigenvalues --   -0.43233  -0.43070  -0.42962  -0.42655  -0.42590
 Alpha  occ. eigenvalues --   -0.42581  -0.42376  -0.42289  -0.41839  -0.41676
 Alpha  occ. eigenvalues --   -0.41654  -0.41393  -0.41288  -0.41239  -0.41017
 Alpha  occ. eigenvalues --   -0.41004  -0.40753  -0.40721  -0.40513  -0.40302
 Alpha  occ. eigenvalues --   -0.40256  -0.40119  -0.39751  -0.39321  -0.39133
 Alpha  occ. eigenvalues --   -0.38679  -0.38028  -0.37794  -0.37521  -0.37316
 Alpha  occ. eigenvalues --   -0.37109  -0.36983  -0.36750  -0.36446  -0.36210
 Alpha  occ. eigenvalues --   -0.35989  -0.35236  -0.34412  -0.33968  -0.33655
 Alpha  occ. eigenvalues --   -0.33448  -0.33285  -0.32906  -0.31559  -0.31163
 Alpha  occ. eigenvalues --   -0.31090  -0.30707  -0.30030  -0.29662  -0.29602
 Alpha  occ. eigenvalues --   -0.29432  -0.29093  -0.28954  -0.24226  -0.23775
 Alpha  occ. eigenvalues --   -0.21286  -0.20861
 Alpha virt. eigenvalues --   -0.08923  -0.08543  -0.01932  -0.01437  -0.00202
 Alpha virt. eigenvalues --    0.00207   0.02075   0.02373   0.02506   0.03526
 Alpha virt. eigenvalues --    0.04603   0.05145   0.05235   0.05558   0.06081

 Mulliken charges:
               1
     1  Mg   0.836052
     2  C   -0.000579
     3  C   -0.093154
     4  C   -0.048214
     5  C   -0.067068
     6  N   -0.256370
     7  C   -0.051751
     8  C   -0.014194
     9  C   -0.087146
    10  C    0.046504
    11  C    0.104748
    12  C    0.053342
    13  C   -0.072178
    14  H    0.037755
    15  N   -0.433082
    16  C    0.168472
    17  C   -0.176840
    18  C   -0.004598
    19  C    0.148965
    20  C    0.110055
    21  C    0.011154
    22  O   -0.250863
    23  C    0.062789
    24  N   -0.340959
    25  C    0.041309
    26  C   -0.028860
    27  C   -0.026881
    28  C    0.072800
    29  C    0.076540
    30  C    0.081142
    31  C   -0.049658
    32  N   -0.310398
    33  C    0.078288
    34  C   -0.171852
    35  C    0.010482
    36  C    0.085464
    37  C    0.125703
    38  C    0.048926
    39  O   -0.185877
    40  C   -0.006466
    41  C    0.212427
    42  O   -0.252366
    43  O   -0.305729
    44  C    0.157184
    45  H   -0.017142
    46  H   -0.017888
    47  H   -0.042840
    48  H    0.001492
    49  H   -0.003644
    50  H    0.025776
    51  H    0.016048
    52  H    0.016969
    53  H    0.011124
    54  H    0.046411
    55  H    0.017598
    56  H    0.017583
    57  H    0.006520
    58  H    0.026933
    59  H    0.039235
    60  H    0.038154
    61  H    0.034776
    62  H    0.030791
    63  H    0.014650
    64  H    0.010773
    65  H    0.022868
    66  H    0.013336
    67  H    0.005249
    68  H    0.003284
    69  H    0.000146
    70  H    0.014952
    71  H    0.033029
    72  H    0.029075
    73  H    0.049402
    74  H    0.006752
    75  H    0.047241
    76  H    0.035195
    77  H    0.042889
    78  H    0.045773
    79  H    0.055896
    80  Mg   0.837858
    81  C   -0.015936
    82  C   -0.087773
    83  C   -0.046025
    84  C   -0.065477
    85  N   -0.254929
    86  C   -0.047729
    87  C   -0.016853
    88  C   -0.091195
    89  C    0.046240
    90  C    0.114756
    91  C    0.097432
    92  C   -0.122259
    93  H    0.056450
    94  N   -0.423278
    95  C    0.162463
    96  C   -0.175173
    97  C   -0.008565
    98  C    0.151946
    99  C    0.099502
   100  C    0.014985
   101  O   -0.253929
   102  C    0.061576
   103  N   -0.350182
   104  C    0.037319
   105  C   -0.019619
   106  C   -0.034787
   107  C    0.089158
   108  C    0.073905
   109  C    0.034880
   110  C   -0.007612
   111  N   -0.324367
   112  C    0.079033
   113  C   -0.162868
   114  C    0.002545
   115  C    0.096980
   116  C    0.131282
   117  C    0.043703
   118  O   -0.187113
   119  C    0.000261
   120  C    0.211411
   121  O   -0.245887
   122  O   -0.307703
   123  C    0.150285
   124  H   -0.019823
   125  H   -0.016381
   126  H   -0.040856
   127  H   -0.003331
   128  H   -0.003160
   129  H    0.021547
   130  H    0.013687
   131  H    0.015603
   132  H    0.006184
   133  H    0.035362
   134  H    0.019081
   135  H    0.017365
   136  H    0.009289
   137  H    0.025494
   138  H    0.038151
   139  H    0.038127
   140  H    0.035466
   141  H    0.032925
   142  H    0.013853
   143  H    0.012032
   144  H    0.024500
   145  H    0.011512
   146  H    0.005250
   147  H    0.005639
   148  H    0.003571
   149  H    0.010389
   150  H    0.017681
   151  H    0.030811
   152  H    0.046897
   153  H    0.008136
   154  H    0.046396
   155  H    0.033814
   156  H    0.041127
   157  H    0.044963
   158  H    0.060566
 Sum of Mulliken charges =  -0.00000

 Dipole moment (field-independent basis, Debye):
    X=             -2.5098    Y=              6.9225    Z=              1.4832  Tot=              7.5114
 Quadrupole moment (field-independent basis, Debye-Ang):
   XX=           -486.4368   YY=           -539.5535   ZZ=           -470.5829
   XY=            -24.0827   XZ=            -18.4128   YZ=             -5.8408

 Normal termination of Gaussian 16 at Fri Sep 10 16:32:44 2021.
