 Gaussian 16, Revision A.03,
 Gaussian 16:  ES64L-G16RevA.03 25-Dec-2016

 -----------------------------------
 #p cam-b3lyp/Def2SVP td=(nstates=5)
 -----------------------------------

 --------------------------------
 TDDFT excited states in gaussian
 --------------------------------
 Symbolic Z-matrix:
 Charge =  0 Multiplicity = 1

                         Standard orientation:
 ---------------------------------------------------------------------
 Center     Atomic      Atomic             Coordinates (Angstroms)
 Number     Number       Type             X           Y           Z
 ---------------------------------------------------------------------
      1         12           0        5.306711    0.520442    1.205616
      2          6           0        6.003063   -2.401873   -0.740505
      3          6           0        6.759339    2.344112   -1.285803
      4          6           0        5.114055    3.057397    3.098593
      5          6           0        4.962003   -1.579674    3.965389
      6          7           0        6.225870   -0.068366   -0.720286
      7          6           0        6.375702   -1.215158   -1.375716
      8          6           0        6.896507   -1.030702   -2.832463
      9          6           0        7.612849    0.383970   -2.666458
     10          6           0        6.795609    0.936047   -1.511792
     11          6           0        9.071082    0.281145   -2.231158
     12          6           0        5.731407   -0.963894   -3.876402
     13          6           0        6.156329   -1.112639   -5.340188
     14          1           0        5.273694   -1.817597   -6.257433
     15          7           0        5.401261    2.447156    0.779373
     16          6           0        6.020016    3.011604   -0.285440
     17          6           0        5.807281    4.469138   -0.154980
     18          6           0        5.177958    4.720212    1.171296
     19          6           0        5.230566    3.404005    1.754572
     20          6           0        6.142452    5.449664   -1.236635
     21          6           0        4.627547    5.953159    1.815517
     22          8           0        4.339058    5.999326    3.060192
     23          6           0        4.516517    7.148038    0.959375
     24          7           0        5.288047    0.745622    3.280846
     25          6           0        5.136820    1.949847    3.842946
     26          6           0        4.870584    1.835891    5.314704
     27          6           0        4.628883    0.283739    5.601339
     28          6           0        4.894182   -0.263368    4.177064
     29          6           0        5.979812    2.358664    6.237922
     30          6           0        3.304100   -0.103390    6.305257
     31          6           0        2.135102    0.171984    5.386176
     32          7           0        5.274887   -1.622459    1.549134
     33          6           0        5.141766   -2.276787    2.782344
     34          6           0        5.286288   -3.721039    2.522890
     35          6           0        5.511421   -3.805897    1.150316
     36          6           0        5.533896   -2.495842    0.592155
     37          6           0        5.262142   -4.750621    3.504629
     38          6           0        5.762741   -4.697021    0.029337
     39          8           0        5.763136   -5.919358   -0.123580
     40          6           0        6.212256   -3.816961   -1.219366
     41          6           0        5.419524   -4.280465   -2.411023
     42          8           0        4.185425   -4.103583   -2.466503
     43          8           0        6.261173   -4.640086   -3.392269
     44          6           0        5.538571   -5.082522   -4.614665
     45          1           0        7.398682    2.992070   -1.888573
     46          1           0        4.934811    3.898105    3.772032
     47          1           0        4.782177   -2.301162    4.764495
     48          1           0        7.620732   -1.779216   -3.154410
     49          1           0        7.489564    1.008813   -3.550818
     50          1           0        9.340915   -0.744897   -1.981461
     51          1           0        9.158792    0.922142   -1.353705
     52          1           0        9.731423    0.712016   -2.984203
     53          1           0        5.329328    0.048895   -3.901934
     54          1           0        4.964534   -1.704442   -3.646574
     55          1           0        7.175139   -1.492246   -5.422861
     56          1           0        6.200579   -0.118762   -5.785667
     57          1           0        6.741781    4.990467   -2.021802
     58          1           0        6.800364    6.198045   -0.795288
     59          1           0        5.253661    5.934207   -1.641110
     60          1           0        5.502533    7.406659    0.572802
     61          1           0        4.020774    7.906404    1.564329
     62          1           0        3.901337    6.905308    0.092435
     63          1           0        3.978262    2.394091    5.595058
     64          1           0        5.403528   -0.139493    6.241241
     65          1           0        5.644428    3.129176    6.932568
     66          1           0        6.794465    2.723365    5.612922
     67          1           0        6.484143    1.592272    6.825894
     68          1           0        3.158777    0.502052    7.199275
     69          1           0        3.265788   -1.150941    6.604288
     70          1           0        1.943903    1.232436    5.546546
     71          1           0        1.272678   -0.428607    5.677252
     72          1           0        2.413127    0.045628    4.339647
     73          1           0        4.651342   -5.552729    3.090482
     74          1           0        4.854019   -4.388681    4.448047
     75          1           0        6.323354   -4.989396    3.572970
     76          1           0        7.281426   -3.981126   -1.349931
     77          1           0        5.894165   -6.085122   -4.852531
     78          1           0        5.686924   -4.302558   -5.361694
     79          1           0        4.469108   -5.264559   -4.503086
     80         12           0       -5.002084    0.393953   -1.174847
     81          6           0       -7.009229   -1.677794    0.960169
     82          6           0       -7.200719    2.922751   -0.537821
     83          6           0       -3.518677    2.109275   -3.393994
     84          6           0       -3.661424   -2.528996   -2.518235
     85          7           0       -6.829521    0.487908    0.067698
     86          6           0       -7.460935   -0.343863    0.882449
     87          6           0       -8.593511    0.310460    1.718321
     88          6           0       -8.916373    1.553566    0.754304
     89          6           0       -7.556945    1.693580    0.072397
     90          6           0       -9.954028    1.236408   -0.309671
     91          6           0       -8.095980    0.790071    3.127022
     92          6           0       -9.208727    1.155466    4.111927
     93          1           0       -9.009774    0.859411    5.527986
     94          7           0       -5.006082    2.351631   -1.500535
     95          6           0       -5.968782    3.232046   -1.155068
     96          6           0       -5.506184    4.543194   -1.635757
     97          6           0       -4.269525    4.339045   -2.438065
     98          6           0       -4.227490    2.891563   -2.493903
     99          6           0       -6.176826    5.831664   -1.256936
    100          6           0       -3.294107    5.289449   -3.063748
    101          8           0       -2.422963    4.895267   -3.917320
    102          6           0       -3.449483    6.710052   -2.718453
    103          7           0       -3.926084   -0.128442   -2.875340
    104          6           0       -3.340180    0.810920   -3.638390
    105          6           0       -2.397743    0.189254   -4.641260
    106          6           0       -2.289168   -1.352499   -4.230428
    107          6           0       -3.301417   -1.375508   -3.064147
    108          6           0       -2.819985    0.296734   -6.106374
    109          6           0       -0.863100   -1.916065   -3.982648
    110          6           0       -0.265309   -1.282601   -2.747026
    111          7           0       -5.125365   -1.718228   -0.737189
    112          6           0       -4.504150   -2.772902   -1.441340
    113          6           0       -4.977346   -4.036354   -0.839504
    114          6           0       -5.865824   -3.626355    0.165990
    115          6           0       -5.956477   -2.208186    0.175847
    116          6           0       -4.619790   -5.346318   -1.266417
    117          6           0       -6.755740   -4.071159    1.214276
    118          8           0       -7.021296   -5.158486    1.725079
    119          6           0       -7.632302   -2.834192    1.691703
    120          6           0       -7.613169   -2.804178    3.195449
    121          8           0       -6.554946   -2.581931    3.809769
    122          8           0       -8.878386   -2.825974    3.652744
    123          6           0       -8.911811   -2.786495    5.139056
    124          1           0       -7.949534    3.713794   -0.586968
    125          1           0       -2.902147    2.656544   -4.110830
    126          1           0       -3.215254   -3.480253   -2.816095
    127          1           0       -9.477986   -0.302607    1.843386
    128          1           0       -9.149529    2.447419    1.327051
    129          1           0      -10.217266    0.189123   -0.316188
    130          1           0       -9.504584    1.519430   -1.252506
    131          1           0      -10.828842    1.881410   -0.187159
    132          1           0       -7.610057    1.768542    3.021095
    133          1           0       -7.446245    0.060686    3.570260
    134          1           0      -10.189387    0.795184    3.778075
    135          1           0       -9.314156    2.242957    4.128525
    136          1           0       -7.155938    5.654852   -0.794906
    137          1           0       -6.407588    6.358215   -2.189334
    138          1           0       -5.543046    6.470293   -0.637948
    139          1           0       -4.445622    7.043222   -2.999796
    140          1           0       -2.607385    7.219435   -3.190975
    141          1           0       -3.378080    6.815393   -1.630137
    142          1           0       -1.414690    0.639613   -4.578932
    143          1           0       -2.694889   -2.011917   -5.011716
    144          1           0       -2.063544    0.792882   -6.743333
    145          1           0       -3.762163    0.826585   -6.152073
    146          1           0       -3.063259   -0.649081   -6.587450
    147          1           0       -0.203570   -1.656650   -4.814438
    148          1           0       -0.837700   -2.995402   -3.876035
    149          1           0        0.134272   -0.336228   -3.123590
    150          1           0        0.524507   -1.909976   -2.338820
    151          1           0       -1.042694   -1.043072   -2.012216
    152          1           0       -4.425027   -5.922973   -0.371969
    153          1           0       -3.753668   -5.327406   -1.924629
    154          1           0       -5.531709   -5.634521   -1.796154
    155          1           0       -8.639581   -2.975006    1.297827
    156          1           0       -9.489784   -3.655341    5.468824
    157          1           0       -9.308599   -1.788058    5.402551
    158          1           0       -7.977468   -2.941780    5.665693
 ---------------------------------------------------------------------

 SCF Done:  E(RCAM-B3LYP) =  -4069.81245033     A.U. after   19 cycles

 Excitation energies and oscillator strengths:

 Excited State   1:      Singlet-A      1.6556 eV  748.87 nm  f=0.0057  <S**2>=0.000
     309 -> 315       -0.11195
     310 -> 316        0.12644
     311 -> 313       -0.45369
     312 -> 314        0.51611
 This state for optimization and/or second-order correction.
 Total Energy, E(TD-HF/TD-DFT) =  -4069.75160717
 Copying the excited state density for this state as the 1-particle RhoCI density.

 Excited State   2:      Singlet-A      1.6958 eV  731.14 nm  f=0.7162  <S**2>=0.000
     309 -> 315        0.13506
     310 -> 316        0.11788
     311 -> 313        0.51425
     312 -> 314        0.45210

 Excited State   3:      Singlet-A      2.1831 eV  567.94 nm  f=0.0515  <S**2>=0.000
     309 -> 313        0.20847
     310 -> 314        0.60889
     312 -> 316       -0.25622

 Excited State   4:      Singlet-A      2.1941 eV  565.08 nm  f=0.1377  <S**2>=0.000
     309 -> 313        0.60581
     310 -> 314       -0.20610
     311 -> 315       -0.26463

 Excited State   5:      Singlet-A      2.5594 eV  484.44 nm  f=0.0000  <S**2>=0.000
     312 -> 313        0.70696

 The electronic state is 1-A.
 Alpha  occ. eigenvalues --  -46.87685 -46.87473 -19.26334 -19.26229 -19.19087
 Alpha  occ. eigenvalues --  -19.19030 -19.18706 -19.18609 -19.18095 -19.17889
 Alpha  occ. eigenvalues --  -14.42349 -14.42320 -14.41335 -14.41156 -14.39290
 Alpha  occ. eigenvalues --  -14.39174 -14.38479 -14.38410 -10.39129 -10.38957
 Alpha  occ. eigenvalues --  -10.35339 -10.35291 -10.34320 -10.34066 -10.31751
 Alpha  occ. eigenvalues --  -10.31654 -10.31311 -10.31125 -10.30870 -10.30821
 Alpha  occ. eigenvalues --  -10.30463 -10.30396 -10.30208 -10.30166 -10.30079
 Alpha  occ. eigenvalues --  -10.29930 -10.29807 -10.29683 -10.29519 -10.29259
 Alpha  occ. eigenvalues --  -10.29218 -10.29135 -10.28702 -10.28583 -10.28557
 Alpha  occ. eigenvalues --  -10.28550 -10.28266 -10.28239 -10.28049 -10.27997
 Alpha  occ. eigenvalues --  -10.27824 -10.27682 -10.27620 -10.27492 -10.27471
 Alpha  occ. eigenvalues --  -10.27351 -10.27342 -10.27335 -10.27317 -10.27314
 Alpha  occ. eigenvalues --  -10.27310 -10.27295 -10.27208 -10.27138 -10.27117
 Alpha  occ. eigenvalues --  -10.26899 -10.26703 -10.26569 -10.26358 -10.26293
 Alpha  occ. eigenvalues --  -10.26166 -10.25987 -10.25896 -10.25893 -10.25704
 Alpha  occ. eigenvalues --  -10.25704 -10.25642 -10.25594 -10.25320 -10.25232
 Alpha  occ. eigenvalues --  -10.24729 -10.24696 -10.24679 -10.24507 -10.24449
 Alpha  occ. eigenvalues --  -10.24103  -3.16428  -3.16223  -1.91309  -1.91105
 Alpha  occ. eigenvalues --   -1.90896  -1.90738  -1.90694  -1.90531  -1.16682
 Alpha  occ. eigenvalues --   -1.16521  -1.08562  -1.08498  -1.07108  -1.06867
 Alpha  occ. eigenvalues --   -1.06814  -1.06697  -1.04484  -1.04322  -1.03650
 Alpha  occ. eigenvalues --   -1.03477  -1.03122  -1.02842  -1.02301  -1.01922
 Alpha  occ. eigenvalues --   -0.91889  -0.91813  -0.89386  -0.89236  -0.89126
 Alpha  occ. eigenvalues --   -0.88996  -0.88156  -0.87950  -0.87755  -0.87592
 Alpha  occ. eigenvalues --   -0.87576  -0.87502  -0.87155  -0.86975  -0.84915
 Alpha  occ. eigenvalues --   -0.84845  -0.83804  -0.83583  -0.82844  -0.82775
 Alpha  occ. eigenvalues --   -0.82576  -0.82485  -0.81543  -0.81428  -0.80519
 Alpha  occ. eigenvalues --   -0.80277  -0.78680  -0.78465  -0.77115  -0.76959
 Alpha  occ. eigenvalues --   -0.76870  -0.76694  -0.75857  -0.75675  -0.74787
 Alpha  occ. eigenvalues --   -0.74581  -0.72662  -0.72498  -0.71580  -0.71406
 Alpha  occ. eigenvalues --   -0.69748  -0.69401  -0.68797  -0.68663  -0.67548
 Alpha  occ. eigenvalues --   -0.67431  -0.67159  -0.67066  -0.65221  -0.65113
 Alpha  occ. eigenvalues --   -0.64773  -0.64576  -0.64538  -0.64474  -0.64143
 Alpha  occ. eigenvalues --   -0.63932  -0.62266  -0.62105  -0.60323  -0.60170
 Alpha  occ. eigenvalues --   -0.59726  -0.59638  -0.58890  -0.58803  -0.58412
 Alpha  occ. eigenvalues --   -0.58237  -0.57544  -0.57394  -0.57205  -0.57033
 Alpha  occ. eigenvalues --   -0.56216  -0.56023  -0.55964  -0.55739  -0.55426
 Alpha  occ. eigenvalues --   -0.55311  -0.55247  -0.55020  -0.54455  -0.54241
 Alpha  occ. eigenvalues --   -0.53838  -0.53766  -0.53192  -0.53147  -0.53054
 Alpha  occ. eigenvalues --   -0.52973  -0.52860  -0.52732  -0.52658  -0.52549
 Alpha  occ. eigenvalues --   -0.52272  -0.51989  -0.51799  -0.51660  -0.51550
 Alpha  occ. eigenvalues --   -0.51521  -0.51105  -0.50989  -0.50444  -0.50337
 Alpha  occ. eigenvalues --   -0.49899  -0.49825  -0.49812  -0.49592  -0.49438
 Alpha  occ. eigenvalues --   -0.49346  -0.49134  -0.49051  -0.49026  -0.48935
 Alpha  occ. eigenvalues --   -0.48533  -0.48403  -0.48365  -0.48342  -0.48215
 Alpha  occ. eigenvalues --   -0.48160  -0.47603  -0.47420  -0.47198  -0.46955
 Alpha  occ. eigenvalues --   -0.46690  -0.46503  -0.46496  -0.46394  -0.46255
 Alpha  occ. eigenvalues --   -0.46068  -0.46064  -0.45887  -0.45756  -0.45638
 Alpha  occ. eigenvalues --   -0.45082  -0.44979  -0.44505  -0.44407  -0.44367
 Alpha  occ. eigenvalues --   -0.44280  -0.44044  -0.43999  -0.43977  -0.43934
 Alpha  occ. eigenvalues --   -0.43811  -0.43796  -0.43440  -0.43353  -0.43295
 Alpha  occ. eigenvalues --   -0.43214  -0.42934  -0.42775  -0.42717  -0.42700
 Alpha  occ. eigenvalues --   -0.42518  -0.42289  -0.41894  -0.41675  -0.41615
 Alpha  occ. eigenvalues --   -0.41487  -0.41462  -0.41251  -0.41051  -0.40820
 Alpha  occ. eigenvalues --   -0.40784  -0.40726  -0.40606  -0.40510  -0.40446
 Alpha  occ. eigenvalues --   -0.40199  -0.40197  -0.40103  -0.39271  -0.39041
 Alpha  occ. eigenvalues --   -0.38350  -0.38106  -0.37707  -0.37505  -0.37200
 Alpha  occ. eigenvalues --   -0.37193  -0.37051  -0.37012  -0.36712  -0.36614
 Alpha  occ. eigenvalues --   -0.36123  -0.36002  -0.34183  -0.34066  -0.33805
 Alpha  occ. eigenvalues --   -0.33721  -0.33088  -0.32988  -0.31238  -0.31167
 Alpha  occ. eigenvalues --   -0.30938  -0.30794  -0.29959  -0.29792  -0.29335
 Alpha  occ. eigenvalues --   -0.29214  -0.29163  -0.29029  -0.23977  -0.23849
 Alpha  occ. eigenvalues --   -0.21017  -0.20929
 Alpha virt. eigenvalues --   -0.08665  -0.08614  -0.01639  -0.01499   0.00045
 Alpha virt. eigenvalues --    0.00112   0.02295   0.02389   0.03179   0.03490
 Alpha virt. eigenvalues --    0.04795   0.04897   0.05060   0.05302   0.06190

 Mulliken charges:
               1
     1  Mg   0.839244
     2  C   -0.003920
     3  C   -0.093880
     4  C   -0.045747
     5  C   -0.063377
     6  N   -0.256789
     7  C   -0.052751
     8  C   -0.014004
     9  C   -0.087059
    10  C    0.046275
    11  C    0.104822
    12  C    0.053378
    13  C   -0.071417
    14  H    0.034164
    15  N   -0.433180
    16  C    0.168804
    17  C   -0.176620
    18  C   -0.003737
    19  C    0.148861
    20  C    0.110018
    21  C    0.012477
    22  O   -0.249972
    23  C    0.062122
    24  N   -0.341231
    25  C    0.041407
    26  C   -0.028105
    27  C   -0.024059
    28  C    0.074927
    29  C    0.076271
    30  C    0.034979
    31  C   -0.004749
    32  N   -0.310460
    33  C    0.080424
    34  C   -0.169160
    35  C    0.008163
    36  C    0.082847
    37  C    0.127257
    38  C    0.045661
    39  O   -0.188817
    40  C   -0.005302
    41  C    0.213552
    42  O   -0.259479
    43  O   -0.304216
    44  C    0.157991
    45  H   -0.017707
    46  H   -0.016926
    47  H   -0.040925
    48  H    0.000713
    49  H   -0.003937
    50  H    0.025348
    51  H    0.016615
    52  H    0.016570
    53  H    0.011877
    54  H    0.042380
    55  H    0.018217
    56  H    0.018645
    57  H    0.005824
    58  H    0.026414
    59  H    0.040984
    60  H    0.037194
    61  H    0.034928
    62  H    0.032792
    63  H    0.016652
    64  H    0.009291
    65  H    0.022991
    66  H    0.012268
    67  H    0.004707
    68  H    0.006122
    69  H    0.005320
    70  H    0.008171
    71  H    0.020658
    72  H    0.028805
    73  H    0.047902
    74  H    0.009881
    75  H    0.045704
    76  H    0.035206
    77  H    0.043337
    78  H    0.046470
    79  H    0.052083
    80  Mg   0.837955
    81  C   -0.017226
    82  C   -0.088133
    83  C   -0.045675
    84  C   -0.063957
    85  N   -0.254588
    86  C   -0.049806
    87  C   -0.015128
    88  C   -0.090422
    89  C    0.045592
    90  C    0.114508
    91  C    0.062591
    92  C   -0.077653
    93  H    0.034400
    94  N   -0.423270
    95  C    0.162702
    96  C   -0.174985
    97  C   -0.008314
    98  C    0.151975
    99  C    0.099453
   100  C    0.015095
   101  O   -0.254625
   102  C    0.061434
   103  N   -0.350334
   104  C    0.037717
   105  C   -0.019147
   106  C   -0.035539
   107  C    0.089735
   108  C    0.074192
   109  C    0.035281
   110  C   -0.011937
   111  N   -0.324303
   112  C    0.079022
   113  C   -0.161924
   114  C    0.002008
   115  C    0.096596
   116  C    0.131097
   117  C    0.042558
   118  O   -0.187895
   119  C    0.000849
   120  C    0.211245
   121  O   -0.251092
   122  O   -0.305661
   123  C    0.152180
   124  H   -0.020292
   125  H   -0.016539
   126  H   -0.038396
   127  H   -0.000907
   128  H   -0.004661
   129  H    0.022265
   130  H    0.014346
   131  H    0.015809
   132  H    0.014013
   133  H    0.037600
   134  H    0.020630
   135  H    0.019460
   136  H    0.008531
   137  H    0.025389
   138  H    0.039400
   139  H    0.038222
   140  H    0.034567
   141  H    0.034159
   142  H    0.013751
   143  H    0.011671
   144  H    0.023583
   145  H    0.010916
   146  H    0.005375
   147  H    0.004886
   148  H    0.007547
   149  H    0.006657
   150  H    0.033344
   151  H    0.026977
   152  H    0.046753
   153  H    0.010893
   154  H    0.046262
   155  H    0.034681
   156  H    0.043701
   157  H    0.049305
   158  H    0.053344
 Sum of Mulliken charges =  -0.00000

 Dipole moment (field-independent basis, Debye):
    X=              0.2151    Y=              6.8235    Z=             -2.5001  Tot=              7.2703
 Quadrupole moment (field-independent basis, Debye-Ang):
   XX=           -448.4000   YY=           -538.9657   ZZ=           -479.7721
   XY=            -19.2938   XZ=            -21.3373   YZ=              6.2444

 Normal termination of Gaussian 16 at Fri Sep 10 11:41:31 2021.
