 Gaussian 16, Revision A.03,
 Gaussian 16:  ES64L-G16RevA.03 25-Dec-2016

 -----------------------------------
 #p cam-b3lyp/Def2SVP td=(nstates=5)
 -----------------------------------

 --------------------------------
 TDDFT excited states in gaussian
 --------------------------------
 Symbolic Z-matrix:
 Charge =  0 Multiplicity = 1

                         Standard orientation:
 ---------------------------------------------------------------------
 Center     Atomic      Atomic             Coordinates (Angstroms)
 Number     Number       Type             X           Y           Z
 ---------------------------------------------------------------------
      1         12           0        5.416037   -0.233425   -0.258280
      2          6           0        5.217728    3.176285   -1.329152
      3          6           0        6.375735    0.938355    2.799330
      4          6           0        6.035824   -3.229866    0.574682
      5          6           0        5.553757   -1.128035   -3.623747
      6          7           0        5.719943    1.818597    0.514695
      7          6           0        5.552312    3.041063    0.020075
      8          6           0        5.691720    4.164936    1.090051
      9          6           0        6.592962    3.390245    2.152884
     10          6           0        6.180127    1.965323    1.828708
     11          6           0        8.090602    3.536517    1.903525
     12          6           0        4.310900    4.577543    1.702278
     13          6           0        4.316171    5.880384    2.507219
     14          1           0        3.145174    6.742397    2.452013
     15          7           0        5.629059   -1.048540    1.528633
     16          6           0        6.011102   -0.418865    2.665664
     17          6           0        6.018750   -1.453807    3.721844
     18          6           0        5.794200   -2.772928    3.067940
     19          6           0        5.837401   -2.401454    1.676711
     20          6           0        6.175448   -1.141763    5.178493
     21          6           0        5.585855   -4.151430    3.610578
     22          8           0        5.641336   -5.190431    2.867629
     23          6           0        5.400491   -4.262340    5.068789
     24          7           0        5.969184   -1.925102   -1.349102
     25          6           0        6.118010   -3.112797   -0.752264
     26          6           0        6.234825   -4.218826   -1.758740
     27          6           0        5.889871   -3.566271   -3.174696
     28          6           0        5.704255   -2.097916   -2.718899
     29          6           0        7.602183   -4.911941   -1.835772
     30          6           0        4.758889   -4.231365   -3.998681
     31          6           0        3.432395   -4.038754   -3.298387
     32          7           0        5.215121    0.791314   -2.161064
     33          6           0        5.331214    0.226345   -3.439347
     34          6           0        5.226080    1.330524   -4.410841
     35          6           0        5.071735    2.470606   -3.624561
     36          6           0        5.106248    2.105161   -2.248497
     37          6           0        5.335019    1.210064   -5.824367
     38          6           0        4.910380    3.915534   -3.626360
     39          8           0        4.722141    4.765978   -4.497454
     40          6           0        5.120578    4.445035   -2.139324
     41          6           0        3.993111    5.391979   -1.830419
     42          8           0        2.818557    4.980234   -1.739563
     43          8           0        4.498135    6.578268   -1.458649
     44          6           0        3.432318    7.555198   -1.109656
     45          1           0        6.908679    1.178238    3.721483
     46          1           0        6.142814   -4.289737    0.814817
     47          1           0        5.503248   -1.341273   -4.693060
     48          1           0        6.209776    5.059718    0.744495
     49          1           0        6.319194    3.640238    3.177714
     50          1           0        8.289650    4.043573    0.959494
     51          1           0        8.482346    2.519440    1.879358
     52          1           0        8.577898    4.025324    2.747555
     53          1           0        4.042354    3.873796    2.490114
     54          1           0        3.546906    4.636291    0.926270
     55          1           0        5.223779    6.456966    2.326355
     56          1           0        4.362624    5.627242    3.566445
     57          1           0        6.487741   -0.110118    5.335737
     58          1           0        7.011902   -1.737413    5.543533
     59          1           0        5.277453   -1.380959    5.748339
     60          1           0        6.274656   -3.852187    5.574911
     61          1           0        5.176519   -5.310362    5.264590
     62          1           0        4.554909   -3.641126    5.365491
     63          1           0        5.521808   -5.015148   -1.549205
     64          1           0        6.747708   -3.571998   -3.847569
     65          1           0        7.556710   -5.989255   -1.674426
     66          1           0        8.262718   -4.435628   -1.111818
     67          1           0        8.145913   -4.748159   -2.765800
     68          1           0        4.927547   -5.304876   -4.076613
     69          1           0        4.673232   -3.834791   -5.010433
     70          1           0        3.420237   -4.850885   -2.572352
     71          1           0        2.609977   -4.136897   -4.007758
     72          1           0        3.409057   -3.102481   -2.740413
     73          1           0        4.544265    1.830974   -6.245258
     74          1           0        5.235421    0.172437   -6.142193
     75          1           0        6.339899    1.600898   -5.983486
     76          1           0        6.090037    4.941822   -2.117575
     77          1           0        3.588596    8.436590   -1.731717
     78          1           0        3.473443    7.685464   -0.028109
     79          1           0        2.415529    7.280990   -1.393007
     80         12           0       -5.098488   -1.261973    0.416961
     81          6           0       -6.993622    1.747933   -0.060497
     82          6           0       -2.915397    0.584959    2.276414
     83          6           0       -3.174702   -3.784318    0.482233
     84          6           0       -6.753199   -2.578318   -2.353394
     85          7           0       -5.066859    0.880376    0.966117
     86          6           0       -5.872340    1.914986    0.778691
     87          6           0       -5.496736    3.179151    1.597461
     88          6           0       -3.934963    2.872200    1.810829
     89          6           0       -3.970069    1.348295    1.715074
     90          6           0       -3.058708    3.401290    0.687637
     91          6           0       -6.259851    3.253162    2.966470
     92          6           0       -6.177875    4.606485    3.676073
     93          1           0       -7.340579    5.069348    4.428645
     94          7           0       -3.589365   -1.695059    1.630862
     95          6           0       -2.826130   -0.823649    2.323246
     96          6           0       -1.841125   -1.640200    3.049309
     97          6           0       -1.980244   -3.052241    2.600425
     98          6           0       -2.926736   -2.891715    1.514860
     99          6           0       -0.945966   -1.078417    4.115384
    100          6           0       -1.354050   -4.333145    3.062358
    101          8           0       -1.438728   -5.410774    2.373597
    102          6           0       -0.560030   -4.266478    4.297893
    103          7           0       -4.823167   -2.859312   -0.884979
    104          6           0       -3.959746   -3.847950   -0.593395
    105          6           0       -4.131776   -5.017285   -1.533316
    106          6           0       -5.459648   -4.705601   -2.368291
    107          6           0       -5.790657   -3.306416   -1.804276
    108          6           0       -2.973039   -5.272233   -2.497005
    109          6           0       -6.571217   -5.790431   -2.353456
    110          6           0       -7.164635   -5.902414   -0.967557
    111          7           0       -6.728575   -0.644327   -0.859510
    112          6           0       -7.244657   -1.334507   -1.978174
    113          6           0       -8.269229   -0.464830   -2.591640
    114          6           0       -8.261834    0.689761   -1.794542
    115          6           0       -7.286327    0.557872   -0.769599
    116          6           0       -9.021015   -0.763562   -3.762830
    117          6           0       -8.849996    1.994504   -1.593502
    118          8           0       -9.785063    2.613248   -2.100002
    119          6           0       -7.966788    2.789788   -0.538111
    120          6           0       -8.893733    3.400416    0.476998
    121          8           0       -9.560773    2.678368    1.238780
    122          8           0       -8.678004    4.727510    0.528609
    123          6           0       -9.566329    5.376359    1.529460
    124          1           0       -2.052459    1.112832    2.683319
    125          1           0       -2.613820   -4.720888    0.523686
    126          1           0       -7.382762   -2.956938   -3.161460
    127          1           0       -5.622636    4.116562    1.069078
    128          1           0       -3.602163    3.184699    2.797208
    129          1           0       -3.644946    3.794290   -0.129685
    130          1           0       -2.464594    2.559562    0.356632
    131          1           0       -2.348894    4.136384    1.077660
    132          1           0       -5.740011    2.624263    3.700631
    133          1           0       -7.287445    2.970154    2.845646
    134          1           0       -5.809561    5.398235    3.012434
    135          1           0       -5.420836    4.541264    4.461351
    136          1           0       -0.953122    0.018542    4.109749
    137          1           0        0.081178   -1.344741    3.843515
    138          1           0       -1.165511   -1.482673    5.105865
    139          1           0        0.243750   -3.544967    4.172125
    140          1           0       -0.268924   -5.296231    4.514106
    141          1           0       -1.198641   -3.888816    5.104221
    142          1           0       -4.271487   -5.939151   -0.982178
    143          1           0       -5.245569   -4.570363   -3.438666
    144          1           0       -2.553133   -6.292504   -2.414491
    145          1           0       -2.207405   -4.529996   -2.314166
    146          1           0       -3.203460   -5.112180   -3.548907
    147          1           0       -6.147838   -6.769728   -2.589845
    148          1           0       -7.367159   -5.603084   -3.066460
    149          1           0       -6.461950   -6.562985   -0.450871
    150          1           0       -8.159500   -6.341038   -1.011122
    151          1           0       -7.147041   -4.934892   -0.452548
    152          1           0      -10.043161   -0.473329   -3.559139
    153          1           0       -8.950467   -1.817800   -4.022415
    154          1           0       -8.510379   -0.126686   -4.490093
    155          1           0       -7.403948    3.546505   -1.085975
    156          1           0      -10.115404    6.164911    1.005638
    157          1           0       -8.903997    5.689149    2.358458
    158          1           0      -10.379593    4.786017    1.935099
 ---------------------------------------------------------------------

 SCF Done:  E(RCAM-B3LYP) =  -4069.81151744     A.U. after   19 cycles

 Excitation energies and oscillator strengths:

 Excited State   1:      Singlet-A      1.6553 eV  749.03 nm  f=0.1223  <S**2>=0.000
     309 -> 315       -0.11364
     310 -> 316        0.12489
     311 -> 313       -0.46092
     312 -> 314        0.50976
 This state for optimization and/or second-order correction.
 Total Energy, E(TD-HF/TD-DFT) =  -4069.75068758
 Copying the excited state density for this state as the 1-particle RhoCI density.

 Excited State   2:      Singlet-A      1.6951 eV  731.42 nm  f=0.6232  <S**2>=0.000
     309 -> 315        0.13374
     310 -> 316        0.11931
     311 -> 313        0.50781
     312 -> 314        0.45926

 Excited State   3:      Singlet-A      2.1821 eV  568.19 nm  f=0.0204  <S**2>=0.000
     309 -> 313        0.28376
     310 -> 314        0.57864
     311 -> 315       -0.11812
     312 -> 316       -0.24206

 Excited State   4:      Singlet-A      2.1945 eV  564.96 nm  f=0.1603  <S**2>=0.000
     309 -> 313        0.57480
     310 -> 314       -0.28054
     311 -> 315       -0.25192
     312 -> 316        0.12299

 Excited State   5:      Singlet-A      2.4375 eV  508.66 nm  f=0.0000  <S**2>=0.000
     312 -> 313        0.70687

 The electronic state is 1-A.
 Alpha  occ. eigenvalues --  -46.87988 -46.87499 -19.26533 -19.26222 -19.19275
 Alpha  occ. eigenvalues --  -19.19032 -19.18972 -19.18577 -19.18359 -19.17902
 Alpha  occ. eigenvalues --  -14.42651 -14.42325 -14.41622 -14.41204 -14.39598
 Alpha  occ. eigenvalues --  -14.39195 -14.38774 -14.38442 -10.39328 -10.38958
 Alpha  occ. eigenvalues --  -10.35607 -10.35261 -10.34582 -10.34078 -10.31937
 Alpha  occ. eigenvalues --  -10.31648 -10.31608 -10.31129 -10.31127 -10.30858
 Alpha  occ. eigenvalues --  -10.30765 -10.30682 -10.30371 -10.30245 -10.30206
 Alpha  occ. eigenvalues --  -10.30070 -10.29994 -10.29815 -10.29743 -10.29442
 Alpha  occ. eigenvalues --  -10.29284 -10.29261 -10.29008 -10.28884 -10.28565
 Alpha  occ. eigenvalues --  -10.28549 -10.28529 -10.28351 -10.28247 -10.27983
 Alpha  occ. eigenvalues --  -10.27926 -10.27904 -10.27850 -10.27777 -10.27721
 Alpha  occ. eigenvalues --  -10.27601 -10.27599 -10.27536 -10.27496 -10.27407
 Alpha  occ. eigenvalues --  -10.27393 -10.27367 -10.27329 -10.27322 -10.27250
 Alpha  occ. eigenvalues --  -10.27045 -10.26892 -10.26610 -10.26555 -10.26437
 Alpha  occ. eigenvalues --  -10.26335 -10.26236 -10.26189 -10.26032 -10.25994
 Alpha  occ. eigenvalues --  -10.25785 -10.25710 -10.25638 -10.25513 -10.25282
 Alpha  occ. eigenvalues --  -10.25022 -10.24951 -10.24719 -10.24695 -10.24630
 Alpha  occ. eigenvalues --  -10.24536  -3.16731  -3.16249  -1.91613  -1.91199
 Alpha  occ. eigenvalues --   -1.91131  -1.91041  -1.90720  -1.90557  -1.16882
 Alpha  occ. eigenvalues --   -1.16515  -1.08819  -1.08510  -1.07368  -1.06894
 Alpha  occ. eigenvalues --   -1.06826  -1.06816  -1.04785  -1.04325  -1.03939
 Alpha  occ. eigenvalues --   -1.03504  -1.03419  -1.02885  -1.02593  -1.01955
 Alpha  occ. eigenvalues --   -0.92169  -0.91828  -0.89657  -0.89429  -0.89355
 Alpha  occ. eigenvalues --   -0.88945  -0.88412  -0.88086  -0.88050  -0.87876
 Alpha  occ. eigenvalues --   -0.87644  -0.87525  -0.87475  -0.87003  -0.85214
 Alpha  occ. eigenvalues --   -0.84825  -0.84052  -0.83749  -0.83140  -0.82860
 Alpha  occ. eigenvalues --   -0.82823  -0.82490  -0.81798  -0.81455  -0.80798
 Alpha  occ. eigenvalues --   -0.80298  -0.78992  -0.78505  -0.77410  -0.77137
 Alpha  occ. eigenvalues --   -0.76992  -0.76742  -0.76134  -0.75657  -0.75035
 Alpha  occ. eigenvalues --   -0.74666  -0.72953  -0.72546  -0.71852  -0.71409
 Alpha  occ. eigenvalues --   -0.70000  -0.69632  -0.69092  -0.68661  -0.67831
 Alpha  occ. eigenvalues --   -0.67470  -0.67458  -0.67063  -0.65516  -0.65104
 Alpha  occ. eigenvalues --   -0.65045  -0.64813  -0.64618  -0.64499  -0.64406
 Alpha  occ. eigenvalues --   -0.64065  -0.62505  -0.62141  -0.60620  -0.60214
 Alpha  occ. eigenvalues --   -0.60028  -0.59612  -0.59168  -0.58840  -0.58687
 Alpha  occ. eigenvalues --   -0.58278  -0.57794  -0.57473  -0.57407  -0.57102
 Alpha  occ. eigenvalues --   -0.56502  -0.56211  -0.56062  -0.55751  -0.55713
 Alpha  occ. eigenvalues --   -0.55489  -0.55315  -0.55114  -0.54689  -0.54357
 Alpha  occ. eigenvalues --   -0.54139  -0.53719  -0.53483  -0.53441  -0.53120
 Alpha  occ. eigenvalues --   -0.53089  -0.52993  -0.52974  -0.52756  -0.52532
 Alpha  occ. eigenvalues --   -0.52524  -0.52283  -0.52083  -0.51856  -0.51740
 Alpha  occ. eigenvalues --   -0.51506  -0.51377  -0.51054  -0.50780  -0.50377
 Alpha  occ. eigenvalues --   -0.50182  -0.50093  -0.49824  -0.49730  -0.49725
 Alpha  occ. eigenvalues --   -0.49418  -0.49330  -0.49308  -0.49044  -0.48911
 Alpha  occ. eigenvalues --   -0.48797  -0.48630  -0.48598  -0.48394  -0.48245
 Alpha  occ. eigenvalues --   -0.48203  -0.47888  -0.47481  -0.47449  -0.46988
 Alpha  occ. eigenvalues --   -0.46974  -0.46790  -0.46560  -0.46537  -0.46379
 Alpha  occ. eigenvalues --   -0.46330  -0.46134  -0.46018  -0.45947  -0.45672
 Alpha  occ. eigenvalues --   -0.45332  -0.45072  -0.44774  -0.44698  -0.44369
 Alpha  occ. eigenvalues --   -0.44321  -0.44309  -0.44284  -0.44212  -0.43953
 Alpha  occ. eigenvalues --   -0.43941  -0.43802  -0.43695  -0.43579  -0.43414
 Alpha  occ. eigenvalues --   -0.43224  -0.43208  -0.42919  -0.42796  -0.42774
 Alpha  occ. eigenvalues --   -0.42751  -0.42422  -0.42164  -0.41891  -0.41826
 Alpha  occ. eigenvalues --   -0.41752  -0.41512  -0.41327  -0.41302  -0.41077
 Alpha  occ. eigenvalues --   -0.41016  -0.40806  -0.40700  -0.40583  -0.40540
 Alpha  occ. eigenvalues --   -0.40516  -0.40344  -0.40081  -0.39522  -0.39304
 Alpha  occ. eigenvalues --   -0.38613  -0.38210  -0.38014  -0.37508  -0.37495
 Alpha  occ. eigenvalues --   -0.37469  -0.37120  -0.37035  -0.36928  -0.36642
 Alpha  occ. eigenvalues --   -0.36377  -0.36073  -0.34473  -0.34096  -0.34014
 Alpha  occ. eigenvalues --   -0.33727  -0.33375  -0.33019  -0.31499  -0.31220
 Alpha  occ. eigenvalues --   -0.31134  -0.30812  -0.30220  -0.29806  -0.29643
 Alpha  occ. eigenvalues --   -0.29509  -0.29184  -0.29059  -0.24268  -0.23874
 Alpha  occ. eigenvalues --   -0.21315  -0.20960
 Alpha virt. eigenvalues --   -0.08964  -0.08640  -0.01929  -0.01528  -0.00251
 Alpha virt. eigenvalues --    0.00121   0.02021   0.02356   0.02857   0.03370
 Alpha virt. eigenvalues --    0.04496   0.04856   0.04901   0.05301   0.05894

 Mulliken charges:
               1
     1  Mg   0.837955
     2  C   -0.003668
     3  C   -0.095480
     4  C   -0.044643
     5  C   -0.063428
     6  N   -0.256777
     7  C   -0.052924
     8  C   -0.013780
     9  C   -0.086751
    10  C    0.045708
    11  C    0.104727
    12  C    0.053870
    13  C   -0.071399
    14  H    0.034461
    15  N   -0.433115
    16  C    0.167582
    17  C   -0.178671
    18  C   -0.004809
    19  C    0.148613
    20  C    0.110414
    21  C    0.012002
    22  O   -0.247413
    23  C    0.063100
    24  N   -0.341196
    25  C    0.041244
    26  C   -0.028494
    27  C   -0.024147
    28  C    0.075241
    29  C    0.075960
    30  C    0.034880
    31  C   -0.004670
    32  N   -0.310553
    33  C    0.080645
    34  C   -0.169274
    35  C    0.008491
    36  C    0.083029
    37  C    0.127251
    38  C    0.046199
    39  O   -0.187981
    40  C   -0.005349
    41  C    0.213111
    42  O   -0.258219
    43  O   -0.304441
    44  C    0.157664
    45  H   -0.017612
    46  H   -0.015633
    47  H   -0.040842
    48  H    0.001382
    49  H   -0.004704
    50  H    0.025767
    51  H    0.016908
    52  H    0.016852
    53  H    0.009172
    54  H    0.042983
    55  H    0.019111
    56  H    0.017640
    57  H    0.005709
    58  H    0.027628
    59  H    0.037303
    60  H    0.037658
    61  H    0.037203
    62  H    0.028200
    63  H    0.018195
    64  H    0.009632
    65  H    0.024000
    66  H    0.012321
    67  H    0.004888
    68  H    0.006958
    69  H    0.004444
    70  H    0.011121
    71  H    0.018027
    72  H    0.028595
    73  H    0.047866
    74  H    0.009577
    75  H    0.046361
    76  H    0.035501
    77  H    0.043784
    78  H    0.045958
    79  H    0.053041
    80  Mg   0.838376
    81  C   -0.016833
    82  C   -0.087421
    83  C   -0.045454
    84  C   -0.064803
    85  N   -0.254712
    86  C   -0.049070
    87  C   -0.015189
    88  C   -0.090726
    89  C    0.046106
    90  C    0.114432
    91  C    0.062670
    92  C   -0.077383
    93  H    0.033957
    94  N   -0.423553
    95  C    0.163020
    96  C   -0.174580
    97  C   -0.007986
    98  C    0.152091
    99  C    0.099132
   100  C    0.016244
   101  O   -0.252311
   102  C    0.061235
   103  N   -0.349876
   104  C    0.037583
   105  C   -0.019804
   106  C   -0.034812
   107  C    0.088970
   108  C    0.073653
   109  C    0.034817
   110  C   -0.007611
   111  N   -0.324135
   112  C    0.078605
   113  C   -0.163137
   114  C    0.002389
   115  C    0.096271
   116  C    0.131433
   117  C    0.042401
   118  O   -0.188120
   119  C    0.000901
   120  C    0.211137
   121  O   -0.251377
   122  O   -0.305375
   123  C    0.152201
   124  H   -0.019118
   125  H   -0.015522
   126  H   -0.040756
   127  H   -0.000352
   128  H   -0.005722
   129  H    0.023135
   130  H    0.017565
   131  H    0.017652
   132  H    0.013345
   133  H    0.037340
   134  H    0.021018
   135  H    0.018887
   136  H    0.008311
   137  H    0.025805
   138  H    0.038173
   139  H    0.037035
   140  H    0.037121
   141  H    0.032733
   142  H    0.014180
   143  H    0.012332
   144  H    0.024634
   145  H    0.012218
   146  H    0.005204
   147  H    0.005892
   148  H    0.003492
   149  H    0.010819
   150  H    0.017607
   151  H    0.030246
   152  H    0.045674
   153  H    0.008195
   154  H    0.047355
   155  H    0.035875
   156  H    0.043745
   157  H    0.049304
   158  H    0.053264
 Sum of Mulliken charges =  -0.00000

 Dipole moment (field-independent basis, Debye):
    X=              6.4156    Y=              1.0305    Z=              5.2709  Tot=              8.3669
 Quadrupole moment (field-independent basis, Debye-Ang):
   XX=           -547.7648   YY=           -509.5538   ZZ=           -481.0221
   XY=             17.9718   XZ=             14.3121   YZ=             58.9765

 Normal termination of Gaussian 16 at Fri Sep 10 23:58:49 2021.
