 Gaussian 16, Revision A.03,
 Gaussian 16:  ES64L-G16RevA.03 25-Dec-2016

 -----------------------------------
 #p cam-b3lyp/Def2SVP td=(nstates=5)
 -----------------------------------

 --------------------------------
 TDDFT excited states in gaussian
 --------------------------------
 Symbolic Z-matrix:
 Charge =  0 Multiplicity = 1

                         Standard orientation:
 ---------------------------------------------------------------------
 Center     Atomic      Atomic             Coordinates (Angstroms)
 Number     Number       Type             X           Y           Z
 ---------------------------------------------------------------------
      1         12           0        3.882376   -0.338137   -0.683559
      2          6           0        3.882740    3.117631    0.249115
      3          6           0        5.332099   -0.999047    2.333819
      4          6           0        4.308099   -3.323631   -1.664481
      5          6           0        3.503830    0.705762   -3.986987
      6          7           0        4.480383    0.976760    0.993964
      7          6           0        4.371170    2.276383    1.251304
      8          6           0        4.754113    2.650810    2.714360
      9          6           0        5.703248    1.414591    3.050370
     10          6           0        5.115784    0.390663    2.095183
     11          6           0        7.164168    1.649923    2.680460
     12          6           0        3.509019    2.691557    3.662944
     13          6           0        3.743331    3.360942    5.020286
     14          1           0        2.664375    4.135459    5.614696
     15          7           0        4.240170   -1.986115    0.345520
     16          6           0        4.823002   -2.068470    1.565688
     17          6           0        4.863867   -3.507990    1.901532
     18          6           0        4.430696   -4.268794    0.696694
     19          6           0        4.332859   -3.211003   -0.276386
     20          6           0        5.233907   -4.026423    3.257278
     21          6           0        4.159678   -5.720460    0.457216
     22          8           0        4.018906   -6.201077   -0.719119
     23          6           0        4.151070   -6.591986    1.646084
     24          7           0        4.125112   -1.190972   -2.573370
     25          6           0        4.232129   -2.515672   -2.724045
     26          6           0        4.111908   -2.912727   -4.165514
     27          6           0        3.655155   -1.598694   -4.949380
     28          6           0        3.672825   -0.599875   -3.766029
     29          6           0        5.384353   -3.476660   -4.812720
     30          6           0        2.369339   -1.702976   -5.807414
     31          6           0        1.167627   -1.895953   -4.909781
     32          7           0        3.542237    1.548728   -1.700953
     33          6           0        3.439485    1.754128   -3.084401
     34          6           0        3.319889    3.208205   -3.297532
     35          6           0        3.378418    3.752427   -2.016032
     36          6           0        3.551630    2.706721   -1.064829
     37          6           0        3.236196    3.861514   -4.558728
     38          6           0        3.359648    4.976048   -1.231012
     39          8           0        3.146052    6.163292   -1.480656
     40          6           0        3.807537    4.624230    0.256081
     41          6           0        2.826058    5.274949    1.192336
     42          8           0        1.638076    4.895575    1.238609
     43          8           0        3.487324    6.070527    2.046926
     44          6           0        2.574712    6.724220    3.022620
     45          1           0        5.998636   -1.297770    3.145258
     46          1           0        4.340974   -4.348837   -2.039060
     47          1           0        3.297419    1.098775   -4.984177
     48          1           0        5.308762    3.583971    2.814360
     49          1           0        5.587493    1.081123    4.081448
     50          1           0        7.290161    2.580593    2.127377
     51          1           0        7.448732    0.798210    2.062317
     52          1           0        7.799970    1.603909    3.565003
     53          1           0        3.275433    1.679385    3.993103
     54          1           0        2.662055    3.167607    3.167612
     55          1           0        4.672432    3.931571    5.028187
     56          1           0        3.899033    2.579502    5.764133
     57          1           0        5.662623   -3.243830    3.882013
     58          1           0        6.047919   -4.736985    3.115171
     59          1           0        4.396550   -4.520462    3.750321
     60          1           0        5.118185   -6.529155    2.145374
     61          1           0        3.852772   -7.578663    1.293470
     62          1           0        3.414567   -6.213913    2.355713
     63          1           0        3.357128   -3.687103   -4.296188
     64          1           0        4.415934   -1.255777   -5.651019
     65          1           0        5.255026   -4.472217   -5.237979
     66          1           0        6.174696   -3.471459   -4.062639
     67          1           0        5.818929   -2.848389   -5.589789
     68          1           0        2.421369   -2.570342   -6.464616
     69          1           0        2.194936   -0.825245   -6.429847
     70          1           0        1.168719   -2.970294   -4.729162
     71          1           0        0.256171   -1.587230   -5.422763
     72          1           0        1.306634   -1.403549   -3.947128
     73          1           0        2.462664    4.622643   -4.457245
     74          1           0        2.996461    3.156744   -5.354612
     75          1           0        4.245987    4.262222   -4.645974
     76          1           0        4.815650    5.018120    0.381309
     77          1           0        2.735830    7.799314    2.942326
     78          1           0        2.765333    6.254719    3.987834
     79          1           0        1.508339    6.659023    2.803674
     80         12           0       -3.918833   -1.139605    0.589273
     81          6           0       -4.284919    2.110470   -0.887904
     82          6           0       -2.734418    0.425919    3.378691
     83          6           0       -3.163121   -3.994403    1.749634
     84          6           0       -4.032991   -2.463915   -2.632359
     85          7           0       -3.598551    0.996932    1.063502
     86          6           0       -3.831596    2.145962    0.447266
     87          6           0       -3.640346    3.403400    1.337120
     88          6           0       -2.627009    2.782007    2.416883
     89          6           0       -3.029359    1.312367    2.312241
     90          6           0       -1.167112    2.907384    2.014011
     91          6           0       -4.979689    3.870000    2.008299
     92          6           0       -4.931542    5.263390    2.639097
     93          1           0       -6.129102    6.096822    2.578007
     94          7           0       -3.540846   -1.709692    2.452253
     95          6           0       -3.086943   -0.938988    3.462834
     96          6           0       -2.953311   -1.834025    4.622664
     97          6           0       -3.208179   -3.228817    4.170640
     98          6           0       -3.295379   -3.029802    2.737853
     99          6           0       -2.692208   -1.331139    6.012752
    100          6           0       -3.337608   -4.528825    4.905092
    101          8           0       -3.321974   -5.653676    4.290847
    102          6           0       -3.389268   -4.450571    6.372302
    103          7           0       -3.425914   -2.944592   -0.317051
    104          6           0       -3.192910   -4.046233    0.417818
    105          6           0       -3.130963   -5.279108   -0.451987
    106          6           0       -3.613272   -4.806751   -1.901761
    107          6           0       -3.793215   -3.297206   -1.629212
    108          6           0       -1.760126   -5.945906   -0.564176
    109          6           0       -4.794015   -5.588524   -2.539993
    110          6           0       -6.062639   -5.336928   -1.757252
    111          7           0       -4.304382   -0.374469   -1.394154
    112          6           0       -4.276396   -1.096616   -2.607337
    113          6           0       -4.488847   -0.123419   -3.698290
    114          6           0       -4.603651    1.110496   -3.040445
    115          6           0       -4.451886    0.922542   -1.640035
    116          6           0       -4.505406   -0.423859   -5.089545
    117          6           0       -4.808106    2.530730   -3.213129
    118          8           0       -5.080991    3.259555   -4.166061
    119          6           0       -4.484710    3.258759   -1.837713
    120          6           0       -5.603364    4.221536   -1.547522
    121          8           0       -6.752390    3.804768   -1.318055
    122          8           0       -5.090729    5.453477   -1.374677
    123          6           0       -6.160540    6.441722   -1.073500
    124          1           0       -2.139834    0.798185    4.213426
    125          1           0       -3.011873   -5.016196    2.105355
    126          1           0       -4.179441   -2.811124   -3.657383
    127          1           0       -3.179947    4.247496    0.837824
    128          1           0       -2.830337    3.162895    3.414353
    129          1           0       -1.057642    3.289177    1.009820
    130          1           0       -0.755244    1.909291    2.086285
    131          1           0       -0.624329    3.511203    2.746889
    132          1           0       -5.160842    3.263864    2.905250
    133          1           0       -5.793697    3.816586    1.311772
    134          1           0       -4.050866    5.831814    2.316224
    135          1           0       -4.797671    5.151549    3.717790
    136          1           0       -2.386234   -0.277678    6.008561
    137          1           0       -1.813663   -1.867662    6.387136
    138          1           0       -3.530389   -1.509758    6.689669
    139          1           0       -2.488908   -3.964082    6.739917
    140          1           0       -3.572350   -5.471444    6.713141
    141          1           0       -4.231799   -3.811429    6.659111
    142          1           0       -3.806991   -6.043254   -0.088419
    143          1           0       -2.810361   -4.897832   -2.648004
    144          1           0       -1.765361   -7.008855   -0.257296
    145          1           0       -1.056068   -5.381299    0.032537
    146          1           0       -1.307458   -5.907454   -1.553525
    147          1           0       -4.606897   -6.664020   -2.490475
    148          1           0       -4.964267   -5.338907   -3.581964
    149          1           0       -5.988555   -6.050546   -0.931207
    150          1           0       -6.938010   -5.534883   -2.372537
    151          1           0       -6.064528   -4.330054   -1.323854
    152          1           0       -5.335253    0.123542   -5.516407
    153          1           0       -4.601765   -1.493425   -5.264205
    154          1           0       -3.521671   -0.047136   -5.382147
    155          1           0       -3.526731    3.767140   -1.953475
    156          1           0       -6.074788    7.241516   -1.815564
    157          1           0       -6.018728    6.721533   -0.012671
    158          1           0       -7.187746    6.128130   -1.218295
 ---------------------------------------------------------------------

 SCF Done:  E(RCAM-B3LYP) =  -4069.81398178     A.U. after   19 cycles

 Excitation energies and oscillator strengths:

 Excited State   1:      Singlet-A      1.6437 eV  754.28 nm  f=0.0699  <S**2>=0.000
     309 -> 315       -0.10919
     310 -> 316        0.12368
     311 -> 313       -0.45087
     312 -> 314        0.51947
 This state for optimization and/or second-order correction.
 Total Energy, E(TD-HF/TD-DFT) =  -4069.75357511
 Copying the excited state density for this state as the 1-particle RhoCI density.

 Excited State   2:      Singlet-A      1.6991 eV  729.69 nm  f=0.6010  <S**2>=0.000
     309 -> 315        0.13701
     310 -> 316        0.11585
     311 -> 313        0.51661
     312 -> 314        0.44838

 Excited State   3:      Singlet-A      2.1771 eV  569.50 nm  f=0.0432  <S**2>=0.000
     309 -> 313       -0.27070
     310 -> 314        0.58665
     311 -> 315        0.11003
     312 -> 316       -0.23860

 Excited State   4:      Singlet-A      2.1977 eV  564.14 nm  f=0.0876  <S**2>=0.000
     309 -> 313        0.46355
     310 -> 314        0.21647
     311 -> 315       -0.20552
     312 -> 313        0.42262

 Excited State   5:      Singlet-A      2.1990 eV  563.83 nm  f=0.0478  <S**2>=0.000
     309 -> 313       -0.34917
     310 -> 314       -0.15385
     311 -> 315        0.15464
     312 -> 313        0.56682

 The electronic state is 1-A.
 Alpha  occ. eigenvalues --  -46.87971 -46.87310 -19.26828 -19.25894 -19.19692
 Alpha  occ. eigenvalues --  -19.18919 -19.18742 -19.18524 -19.18396 -19.17701
 Alpha  occ. eigenvalues --  -14.42644 -14.42075 -14.41621 -14.41016 -14.39567
 Alpha  occ. eigenvalues --  -14.39022 -14.38764 -14.38256 -10.39657 -10.38662
 Alpha  occ. eigenvalues --  -10.35546 -10.35211 -10.34632 -10.33863 -10.32216
 Alpha  occ. eigenvalues --  -10.31618 -10.31330 -10.31133 -10.30844 -10.30754
 Alpha  occ. eigenvalues --  -10.30671 -10.30589 -10.30350 -10.30088 -10.30086
 Alpha  occ. eigenvalues --  -10.30018 -10.29830 -10.29790 -10.29567 -10.29401
 Alpha  occ. eigenvalues --  -10.29123 -10.29108 -10.29067 -10.29025 -10.28558
 Alpha  occ. eigenvalues --  -10.28382 -10.28183 -10.28047 -10.28035 -10.27952
 Alpha  occ. eigenvalues --  -10.27910 -10.27735 -10.27684 -10.27626 -10.27622
 Alpha  occ. eigenvalues --  -10.27598 -10.27588 -10.27482 -10.27310 -10.27299
 Alpha  occ. eigenvalues --  -10.27265 -10.27232 -10.27189 -10.27160 -10.27091
 Alpha  occ. eigenvalues --  -10.27067 -10.26597 -10.26460 -10.26429 -10.26316
 Alpha  occ. eigenvalues --  -10.26291 -10.26177 -10.26170 -10.25914 -10.25901
 Alpha  occ. eigenvalues --  -10.25650 -10.25613 -10.25556 -10.25041 -10.25007
 Alpha  occ. eigenvalues --  -10.24961 -10.24808 -10.24558 -10.24548 -10.24510
 Alpha  occ. eigenvalues --  -10.24362  -3.16712  -3.16061  -1.91594  -1.91181
 Alpha  occ. eigenvalues --   -1.91023  -1.90943  -1.90530  -1.90369  -1.17183
 Alpha  occ. eigenvalues --   -1.16198  -1.08879  -1.08300  -1.07317  -1.07242
 Alpha  occ. eigenvalues --   -1.06785  -1.06525  -1.04784  -1.04077  -1.03935
 Alpha  occ. eigenvalues --   -1.03402  -1.03298  -1.02708  -1.02585  -1.01764
 Alpha  occ. eigenvalues --   -0.92204  -0.91594  -0.89680  -0.89473  -0.89183
 Alpha  occ. eigenvalues --   -0.88468  -0.88443  -0.88017  -0.87902  -0.87878
 Alpha  occ. eigenvalues --   -0.87495  -0.87401  -0.87282  -0.86888  -0.85253
 Alpha  occ. eigenvalues --   -0.84469  -0.84106  -0.83569  -0.83088  -0.82884
 Alpha  occ. eigenvalues --   -0.82730  -0.82159  -0.81903  -0.81198  -0.80827
 Alpha  occ. eigenvalues --   -0.80071  -0.78939  -0.78357  -0.77423  -0.77216
 Alpha  occ. eigenvalues --   -0.76774  -0.76397  -0.76186  -0.75239  -0.75076
 Alpha  occ. eigenvalues --   -0.74421  -0.72943  -0.72346  -0.71877  -0.71095
 Alpha  occ. eigenvalues --   -0.70047  -0.69453  -0.69121  -0.68327  -0.67848
 Alpha  occ. eigenvalues --   -0.67484  -0.67274  -0.66788  -0.65566  -0.65104
 Alpha  occ. eigenvalues --   -0.64860  -0.64766  -0.64437  -0.64392  -0.64208
 Alpha  occ. eigenvalues --   -0.63870  -0.62646  -0.61886  -0.60580  -0.60072
 Alpha  occ. eigenvalues --   -0.60047  -0.59249  -0.59193  -0.58724  -0.58618
 Alpha  occ. eigenvalues --   -0.58060  -0.57927  -0.57491  -0.57160  -0.56915
 Alpha  occ. eigenvalues --   -0.56544  -0.56332  -0.55876  -0.55707  -0.55585
 Alpha  occ. eigenvalues --   -0.55473  -0.55116  -0.54906  -0.54825  -0.54192
 Alpha  occ. eigenvalues --   -0.54126  -0.53498  -0.53449  -0.53338  -0.53177
 Alpha  occ. eigenvalues --   -0.52920  -0.52910  -0.52760  -0.52583  -0.52546
 Alpha  occ. eigenvalues --   -0.52227  -0.52124  -0.52051  -0.51870  -0.51623
 Alpha  occ. eigenvalues --   -0.51420  -0.51189  -0.50820  -0.50669  -0.50268
 Alpha  occ. eigenvalues --   -0.50194  -0.50080  -0.49741  -0.49623  -0.49536
 Alpha  occ. eigenvalues --   -0.49449  -0.49342  -0.49047  -0.48887  -0.48816
 Alpha  occ. eigenvalues --   -0.48673  -0.48586  -0.48412  -0.48101  -0.48055
 Alpha  occ. eigenvalues --   -0.47993  -0.47907  -0.47483  -0.47162  -0.47000
 Alpha  occ. eigenvalues --   -0.46834  -0.46802  -0.46562  -0.46370  -0.46300
 Alpha  occ. eigenvalues --   -0.46084  -0.45997  -0.45925  -0.45742  -0.45398
 Alpha  occ. eigenvalues --   -0.45363  -0.44850  -0.44822  -0.44702  -0.44360
 Alpha  occ. eigenvalues --   -0.44301  -0.44208  -0.44167  -0.44084  -0.43796
 Alpha  occ. eigenvalues --   -0.43788  -0.43618  -0.43584  -0.43490  -0.43243
 Alpha  occ. eigenvalues --   -0.43152  -0.43121  -0.42854  -0.42818  -0.42513
 Alpha  occ. eigenvalues --   -0.42486  -0.42256  -0.42223  -0.41926  -0.41793
 Alpha  occ. eigenvalues --   -0.41604  -0.41349  -0.41262  -0.41120  -0.41000
 Alpha  occ. eigenvalues --   -0.40983  -0.40739  -0.40561  -0.40528  -0.40415
 Alpha  occ. eigenvalues --   -0.40248  -0.39965  -0.39710  -0.39581  -0.39141
 Alpha  occ. eigenvalues --   -0.38654  -0.38098  -0.37981  -0.37521  -0.37494
 Alpha  occ. eigenvalues --   -0.37223  -0.37163  -0.36892  -0.36712  -0.36455
 Alpha  occ. eigenvalues --   -0.36368  -0.35820  -0.34492  -0.34316  -0.33877
 Alpha  occ. eigenvalues --   -0.33458  -0.33383  -0.32827  -0.31458  -0.31231
 Alpha  occ. eigenvalues --   -0.31078  -0.30587  -0.30266  -0.29600  -0.29595
 Alpha  occ. eigenvalues --   -0.29486  -0.29050  -0.28896  -0.24271  -0.23675
 Alpha  occ. eigenvalues --   -0.21300  -0.20756
 Alpha virt. eigenvalues --   -0.08943  -0.08467  -0.01920  -0.01346  -0.00219
 Alpha virt. eigenvalues --    0.00287   0.02005   0.02383   0.02635   0.03667
 Alpha virt. eigenvalues --    0.04403   0.04506   0.05209   0.05591   0.05745

 Mulliken charges:
               1
     1  Mg   0.839101
     2  C   -0.004688
     3  C   -0.094649
     4  C   -0.045466
     5  C   -0.062863
     6  N   -0.256741
     7  C   -0.053341
     8  C   -0.013950
     9  C   -0.086828
    10  C    0.046072
    11  C    0.104720
    12  C    0.051381
    13  C   -0.070871
    14  H    0.031970
    15  N   -0.433371
    16  C    0.168985
    17  C   -0.176500
    18  C   -0.003005
    19  C    0.148939
    20  C    0.109956
    21  C    0.013006
    22  O   -0.249801
    23  C    0.061813
    24  N   -0.340924
    25  C    0.041485
    26  C   -0.028251
    27  C   -0.023948
    28  C    0.074560
    29  C    0.076073
    30  C    0.034904
    31  C   -0.004353
    32  N   -0.310570
    33  C    0.080306
    34  C   -0.168656
    35  C    0.008091
    36  C    0.082623
    37  C    0.127209
    38  C    0.045145
    39  O   -0.188275
    40  C   -0.005973
    41  C    0.214867
    42  O   -0.257590
    43  O   -0.303102
    44  C    0.157115
    45  H   -0.017498
    46  H   -0.016588
    47  H   -0.040441
    48  H    0.000982
    49  H   -0.004485
    50  H    0.025673
    51  H    0.017222
    52  H    0.016940
    53  H    0.010862
    54  H    0.043722
    55  H    0.019610
    56  H    0.018515
    57  H    0.005278
    58  H    0.027287
    59  H    0.040860
    60  H    0.037024
    61  H    0.036452
    62  H    0.033978
    63  H    0.016164
    64  H    0.009966
    65  H    0.023382
    66  H    0.012677
    67  H    0.005221
    68  H    0.006236
    69  H    0.005829
    70  H    0.007065
    71  H    0.017894
    72  H    0.030644
    73  H    0.048854
    74  H    0.010349
    75  H    0.046047
    76  H    0.036126
    77  H    0.044970
    78  H    0.046647
    79  H    0.051590
    80  Mg   0.836078
    81  C   -0.016810
    82  C   -0.088253
    83  C   -0.047055
    84  C   -0.065878
    85  N   -0.255701
    86  C   -0.046894
    87  C   -0.015325
    88  C   -0.093141
    89  C    0.047381
    90  C    0.121638
    91  C    0.062430
    92  C   -0.076925
    93  H    0.031947
    94  N   -0.423449
    95  C    0.163195
    96  C   -0.175966
    97  C   -0.009197
    98  C    0.152300
    99  C    0.100237
   100  C    0.014164
   101  O   -0.254335
   102  C    0.061633
   103  N   -0.350569
   104  C    0.037858
   105  C   -0.019905
   106  C   -0.034369
   107  C    0.089131
   108  C    0.073538
   109  C    0.034904
   110  C   -0.007480
   111  N   -0.324226
   112  C    0.078878
   113  C   -0.164206
   114  C    0.002607
   115  C    0.096003
   116  C    0.131179
   117  C    0.041880
   118  O   -0.188417
   119  C    0.001184
   120  C    0.210751
   121  O   -0.252354
   122  O   -0.303732
   123  C    0.152720
   124  H   -0.020516
   125  H   -0.017047
   126  H   -0.041904
   127  H    0.005302
   128  H   -0.008949
   129  H    0.034805
   130  H    0.005766
   131  H    0.019156
   132  H    0.012063
   133  H    0.036189
   134  H    0.023342
   135  H    0.017735
   136  H    0.008431
   137  H    0.023088
   138  H    0.038901
   139  H    0.036505
   140  H    0.035260
   141  H    0.034079
   142  H    0.013377
   143  H    0.012022
   144  H    0.024335
   145  H    0.011651
   146  H    0.008145
   147  H    0.005882
   148  H    0.002784
   149  H    0.010581
   150  H    0.017124
   151  H    0.030459
   152  H    0.045657
   153  H    0.007728
   154  H    0.045201
   155  H    0.040228
   156  H    0.043647
   157  H    0.049655
   158  H    0.052209
 Sum of Mulliken charges =  -0.00000

 Dipole moment (field-independent basis, Debye):
    X=              5.8794    Y=             -1.2874    Z=              6.1611  Tot=              8.6130
 Quadrupole moment (field-independent basis, Debye-Ang):
   XX=           -518.4206   YY=           -537.3876   ZZ=           -463.1617
   XY=              1.3152   XZ=              2.3252   YZ=             38.4778

 Normal termination of Gaussian 16 at Thu Sep  9 08:29:32 2021.
