 Gaussian 16, Revision A.03,
 Gaussian 16:  ES64L-G16RevA.03 25-Dec-2016

 -----------------------------------
 #p cam-b3lyp/Def2SVP td=(nstates=5)
 -----------------------------------

 --------------------------------
 TDDFT excited states in gaussian
 --------------------------------
 Symbolic Z-matrix:
 Charge =  0 Multiplicity = 1

                         Standard orientation:
 ---------------------------------------------------------------------
 Center     Atomic      Atomic             Coordinates (Angstroms)
 Number     Number       Type             X           Y           Z
 ---------------------------------------------------------------------
      1         12           0       -5.350886   -0.253318    0.309491
      2          6           0       -5.168108    3.267907    0.925751
      3          6           0       -6.345304    0.504682   -2.865352
      4          6           0       -5.956068   -3.336392   -0.120665
      5          6           0       -5.453180   -0.703104    3.763893
      6          7           0       -5.676297    1.678759   -0.720960
      7          6           0       -5.513288    2.956198   -0.391190
      8          6           0       -5.670035    3.930381   -1.596915
      9          6           0       -6.574739    3.018490   -2.541352
     10          6           0       -6.148811    1.650415   -2.038479
     11          6           0       -8.071201    3.186879   -2.298974
     12          6           0       -4.297556    4.268168   -2.270661
     13          6           0       -4.319194    5.455104   -3.238168
     14          1           0       -3.154047    6.324062   -3.306663
     15          7           0       -5.573346   -1.295354   -1.354096
     16          6           0       -5.969705   -0.821356   -2.559713
     17          6           0       -5.978927   -1.984990   -3.472157
     18          6           0       -5.739205   -3.206393   -2.654354
     19          6           0       -5.773138   -2.657272   -1.322929
     20          6           0       -6.150399   -1.866148   -4.955472
     21          6           0       -5.525543   -4.642506   -3.014992
     22          8           0       -5.567100   -5.576287   -2.142697
     23          6           0       -5.351922   -4.941139   -4.448071
     24          7           0       -5.882356   -1.791955    1.616308
     25          6           0       -6.027691   -3.048111    1.180492
     26          6           0       -6.127827   -4.014421    2.323364
     27          6           0       -5.775454   -3.181041    3.639063
     28          6           0       -5.604415   -1.783402    2.994377
     29          6           0       -7.489411   -4.699902    2.502853
     30          6           0       -4.632638   -3.726353    4.531826
     31          6           0       -3.313644   -3.618479    3.799900
     32          7           0       -5.141057    1.011562    2.060803
     33          6           0       -5.242057    0.617080    3.402763
     34          6           0       -5.136585    1.838930    4.221314
     35          6           0       -4.997274    2.867890    3.291972
     36          6           0       -5.040965    2.326249    1.975534
     37          6           0       -5.232491    1.902813    5.639466
     38          6           0       -4.846391    4.301714    3.104250
     39          8           0       -4.656842    5.259428    3.855481
     40          6           0       -5.073199    4.631879    1.563024
     41          6           0       -3.955324    5.537390    1.122892
     42          8           0       -2.778640    5.124460    1.075259
     43          8           0       -4.472114    6.662112    0.604749
     44          6           0       -3.416449    7.591760    0.121553
     45          1           0       -6.887881    0.619262   -3.805790
     46          1           0       -6.057430   -4.419132   -0.219851
     47          1           0       -5.391936   -0.775041    4.851333
     48          1           0       -6.191575    4.859366   -1.365813
     49          1           0       -6.311611    3.134626   -3.592541
     50          1           0       -8.265798    3.811275   -1.427090
     51          1           0       -8.455338    2.179239   -2.138989
     52          1           0       -8.569266    3.558705   -3.194772
     53          1           0       -4.030698    3.469509   -2.962754
     54          1           0       -3.527366    4.432055   -1.516158
     55          1           0       -5.229370    6.044801   -3.125268
     56          1           0       -4.372914    5.065973   -4.254972
     57          1           0       -6.471505   -0.865659   -5.242628
     58          1           0       -6.985620   -2.509310   -5.231984
     59          1           0       -5.255626   -2.172021   -5.497833
     60          1           0       -6.233357   -4.605664   -4.994952
     61          1           0       -5.122048   -6.004351   -4.507977
     62          1           0       -4.513448   -4.358704   -4.831059
     63          1           0       -5.410882   -4.826898    2.212467
     64          1           0       -6.627410   -3.104349    4.315052
     65          1           0       -7.437516   -5.788756    2.482608
     66          1           0       -8.159581   -4.325885    1.729371
     67          1           0       -8.026299   -4.419769    3.408775
     68          1           0       -4.792831   -4.781593    4.750348
     69          1           0       -4.541164   -3.200955    5.482531
     70          1           0       -3.301839   -4.518110    3.185607
     71          1           0       -2.484468   -3.618464    4.508192
     72          1           0       -3.301893   -2.762669    3.124668
     73          1           0       -4.442672    2.578012    5.968497
     74          1           0       -5.122645    0.916003    6.088624
     75          1           0       -6.238775    2.304926    5.755893
     76          1           0       -6.046386    5.115715    1.486008
     77          1           0       -3.573759    8.545654    0.625115
     78          1           0       -3.467813    7.579897   -0.967311
     79          1           0       -2.395299    7.362942    0.428531
     80         12           0        5.166986   -1.296690   -0.324817
     81          6           0        6.408080    2.043448    0.102070
     82          6           0        3.329885   -0.119146   -2.946467
     83          6           0        3.716527   -4.116079   -0.446073
     84          6           0        6.177437   -1.941713    2.947587
     85          7           0        4.978412    0.720800   -1.211610
     86          6           0        5.545282    1.899825   -1.004453
     87          6           0        5.228864    2.964962   -2.088397
     88          6           0        3.844878    2.354962   -2.628171
     89          6           0        4.071168    0.886210   -2.275735
     90          6           0        2.629693    2.848567   -1.860696
     91          6           0        6.316584    3.009198   -3.218412
     92          6           0        6.237073    4.228132   -4.140176
     93          1           0        7.481548    4.799736   -4.647144
     94          7           0        4.123230   -2.142199   -1.785733
     95          6           0        3.460039   -1.515455   -2.780045
     96          6           0        2.837462   -2.580121   -3.581941
     97          6           0        3.050656   -3.877735   -2.885183
     98          6           0        3.633086   -3.416293   -1.641020
     99          6           0        2.194821   -2.325089   -4.914380
    100          6           0        2.764424   -5.297885   -3.269159
    101          8           0        2.812547   -6.249871   -2.412278
    102          6           0        2.335210   -5.528178   -4.656325
    103          7           0        4.780506   -2.746537    1.114265
    104          6           0        4.180235   -3.903967    0.785716
    105          6           0        4.256379   -4.898884    1.919173
    106          6           0        5.248124   -4.251057    2.993572
    107          6           0        5.515422   -2.894401    2.305505
    108          6           0        2.928402   -5.241165    2.594230
    109          6           0        6.465717   -5.108839    3.434438
    110          6           0        7.423269   -5.279040    2.277054
    111          7           0        6.282309   -0.241458    1.195241
    112          6           0        6.568402   -0.684390    2.505215
    113          6           0        7.251606    0.425576    3.200635
    114          6           0        7.295406    1.453519    2.246732
    115          6           0        6.664771    1.022137    1.048526
    116          6           0        7.691457    0.413902    4.554334
    117          6           0        7.722289    2.809137    1.984506
    118          8           0        8.385446    3.644941    2.597203
    119          6           0        7.054560    3.295476    0.626566
    120          6           0        8.124842    3.936282   -0.213892
    121          8           0        9.070412    3.260401   -0.656261
    122          8           0        7.742947    5.185504   -0.536353
    123          6           0        8.767125    5.858317   -1.379092
    124          1           0        2.543551    0.189072   -3.636077
    125          1           0        3.328647   -5.137090   -0.469523
    126          1           0        6.611186   -2.097880    3.937610
    127          1           0        5.070330    3.966946   -1.708052
    128          1           0        3.751483    2.478943   -3.703934
    129          1           0        2.908857    3.438484   -1.000335
    130          1           0        2.095289    1.959466   -1.552540
    131          1           0        1.954691    3.388919   -2.530571
    132          1           0        6.111877    2.211375   -3.943878
    133          1           0        7.302188    2.934998   -2.801638
    134          1           0        5.592430    5.014476   -3.729034
    135          1           0        5.739585    3.930813   -5.066526
    136          1           0        2.042493   -1.252825   -5.088866
    137          1           0        1.181790   -2.738887   -4.865236
    138          1           0        2.731097   -2.800337   -5.738533
    139          1           0        1.432522   -4.955283   -4.854876
    140          1           0        2.264925   -6.612273   -4.764323
    141          1           0        3.107845   -5.141719   -5.330342
    142          1           0        4.671599   -5.840097    1.580340
    143          1           0        4.733972   -4.027554    3.939903
    144          1           0        2.697855   -6.323166    2.580381
    145          1           0        2.142948   -4.678740    2.107123
    146          1           0        2.838680   -4.914727    3.628922
    147          1           0        6.139266   -6.112602    3.717348
    148          1           0        7.002317   -4.694089    4.281209
    149          1           0        6.989999   -6.114557    1.719138
    150          1           0        8.421093   -5.520453    2.637733
    151          1           0        7.407552   -4.401061    1.620877
    152          1           0        8.677757    0.858424    4.565072
    153          1           0        7.705209   -0.595878    4.959212
    154          1           0        6.916344    1.030972    5.016601
    155          1           0        6.261324    3.998087    0.884800
    156          1           0        9.033897    6.791595   -0.873615
    157          1           0        8.317343    5.941738   -2.386304
    158          1           0        9.736080    5.380996   -1.467074
 ---------------------------------------------------------------------

 SCF Done:  E(RCAM-B3LYP) =  -4069.81147518     A.U. after   19 cycles

 Excitation energies and oscillator strengths:

 Excited State   1:      Singlet-A      1.6560 eV  748.68 nm  f=0.0446  <S**2>=0.000
     309 -> 315       -0.11297
     310 -> 316        0.12561
     311 -> 313       -0.45765
     312 -> 314        0.51265
 This state for optimization and/or second-order correction.
 Total Energy, E(TD-HF/TD-DFT) =  -4069.75061692
 Copying the excited state density for this state as the 1-particle RhoCI density.

 Excited State   2:      Singlet-A      1.6961 eV  731.00 nm  f=0.6850  <S**2>=0.000
     309 -> 315        0.13451
     310 -> 316        0.11882
     311 -> 313        0.51069
     312 -> 314        0.45596

 Excited State   3:      Singlet-A      2.1822 eV  568.16 nm  f=0.0232  <S**2>=0.000
     309 -> 313       -0.26941
     310 -> 314        0.58532
     311 -> 315        0.11213
     312 -> 316       -0.24496

 Excited State   4:      Singlet-A      2.1945 eV  564.97 nm  f=0.1581  <S**2>=0.000
     309 -> 313        0.58141
     310 -> 314        0.26618
     311 -> 315       -0.25498
     312 -> 316       -0.11739

 Excited State   5:      Singlet-A      2.4641 eV  503.17 nm  f=0.0000  <S**2>=0.000
     312 -> 313        0.70701

 The electronic state is 1-A.
 Alpha  occ. eigenvalues --  -46.87939 -46.87502 -19.26461 -19.26207 -19.19201
 Alpha  occ. eigenvalues --  -19.19018 -19.18932 -19.18593 -19.18303 -19.17891
 Alpha  occ. eigenvalues --  -14.42601 -14.42330 -14.41583 -14.41205 -14.39545
 Alpha  occ. eigenvalues --  -14.39199 -14.38727 -14.38441 -10.39256 -10.38944
 Alpha  occ. eigenvalues --  -10.35568 -10.35274 -10.34526 -10.34065 -10.31863
 Alpha  occ. eigenvalues --  -10.31633 -10.31559 -10.31135 -10.31071 -10.30864
 Alpha  occ. eigenvalues --  -10.30715 -10.30637 -10.30335 -10.30244 -10.30207
 Alpha  occ. eigenvalues --  -10.30039 -10.30000 -10.29768 -10.29739 -10.29394
 Alpha  occ. eigenvalues --  -10.29291 -10.29260 -10.28948 -10.28817 -10.28550
 Alpha  occ. eigenvalues --  -10.28536 -10.28512 -10.28298 -10.28249 -10.27931
 Alpha  occ. eigenvalues --  -10.27925 -10.27878 -10.27850 -10.27726 -10.27667
 Alpha  occ. eigenvalues --  -10.27595 -10.27551 -10.27534 -10.27511 -10.27417
 Alpha  occ. eigenvalues --  -10.27392 -10.27331 -10.27322 -10.27309 -10.27245
 Alpha  occ. eigenvalues --  -10.26968 -10.26876 -10.26558 -10.26558 -10.26392
 Alpha  occ. eigenvalues --  -10.26346 -10.26260 -10.26151 -10.26031 -10.25951
 Alpha  occ. eigenvalues --  -10.25787 -10.25695 -10.25686 -10.25510 -10.25270
 Alpha  occ. eigenvalues --  -10.24970 -10.24914 -10.24752 -10.24717 -10.24629
 Alpha  occ. eigenvalues --  -10.24536  -3.16682  -3.16251  -1.91564  -1.91150
 Alpha  occ. eigenvalues --   -1.91133  -1.90992  -1.90722  -1.90559  -1.16810
 Alpha  occ. eigenvalues --   -1.16501  -1.08762  -1.08496  -1.07330  -1.06844
 Alpha  occ. eigenvalues --   -1.06821  -1.06802  -1.04734  -1.04329  -1.03897
 Alpha  occ. eigenvalues --   -1.03507  -1.03372  -1.02886  -1.02549  -1.01956
 Alpha  occ. eigenvalues --   -0.92118  -0.91825  -0.89635  -0.89375  -0.89355
 Alpha  occ. eigenvalues --   -0.88959  -0.88396  -0.88085  -0.88002  -0.87829
 Alpha  occ. eigenvalues --   -0.87639  -0.87531  -0.87424  -0.87010  -0.85161
 Alpha  occ. eigenvalues --   -0.84833  -0.84040  -0.83746  -0.83102  -0.82829
 Alpha  occ. eigenvalues --   -0.82813  -0.82497  -0.81743  -0.81449  -0.80748
 Alpha  occ. eigenvalues --   -0.80297  -0.78943  -0.78508  -0.77368  -0.77095
 Alpha  occ. eigenvalues --   -0.76996  -0.76743  -0.76083  -0.75663  -0.75013
 Alpha  occ. eigenvalues --   -0.74663  -0.72910  -0.72547  -0.71811  -0.71413
 Alpha  occ. eigenvalues --   -0.70003  -0.69632  -0.69042  -0.68668  -0.67784
 Alpha  occ. eigenvalues --   -0.67458  -0.67413  -0.67069  -0.65462  -0.65108
 Alpha  occ. eigenvalues --   -0.64998  -0.64770  -0.64618  -0.64501  -0.64386
 Alpha  occ. eigenvalues --   -0.64065  -0.62452  -0.62135  -0.60578  -0.60216
 Alpha  occ. eigenvalues --   -0.59974  -0.59620  -0.59125  -0.58841  -0.58643
 Alpha  occ. eigenvalues --   -0.58277  -0.57736  -0.57438  -0.57396  -0.57099
 Alpha  occ. eigenvalues --   -0.56454  -0.56150  -0.56063  -0.55746  -0.55665
 Alpha  occ. eigenvalues --   -0.55461  -0.55318  -0.55109  -0.54656  -0.54351
 Alpha  occ. eigenvalues --   -0.54082  -0.53731  -0.53438  -0.53388  -0.53091
 Alpha  occ. eigenvalues --   -0.53069  -0.52996  -0.52920  -0.52757  -0.52544
 Alpha  occ. eigenvalues --   -0.52533  -0.52282  -0.52038  -0.51799  -0.51729
 Alpha  occ. eigenvalues --   -0.51511  -0.51336  -0.51052  -0.50731  -0.50384
 Alpha  occ. eigenvalues --   -0.50153  -0.50062  -0.49829  -0.49735  -0.49675
 Alpha  occ. eigenvalues --   -0.49365  -0.49340  -0.49259  -0.49047  -0.48916
 Alpha  occ. eigenvalues --   -0.48744  -0.48584  -0.48573  -0.48397  -0.48242
 Alpha  occ. eigenvalues --   -0.48210  -0.47845  -0.47454  -0.47438  -0.46993
 Alpha  occ. eigenvalues --   -0.46937  -0.46737  -0.46562  -0.46495  -0.46389
 Alpha  occ. eigenvalues --   -0.46292  -0.46135  -0.45967  -0.45942  -0.45666
 Alpha  occ. eigenvalues --   -0.45312  -0.45069  -0.44723  -0.44659  -0.44364
 Alpha  occ. eigenvalues --   -0.44319  -0.44277  -0.44251  -0.44165  -0.43953
 Alpha  occ. eigenvalues --   -0.43949  -0.43805  -0.43644  -0.43538  -0.43408
 Alpha  occ. eigenvalues --   -0.43227  -0.43166  -0.42856  -0.42788  -0.42767
 Alpha  occ. eigenvalues --   -0.42748  -0.42424  -0.42142  -0.41846  -0.41826
 Alpha  occ. eigenvalues --   -0.41708  -0.41510  -0.41307  -0.41285  -0.41033
 Alpha  occ. eigenvalues --   -0.40970  -0.40815  -0.40686  -0.40594  -0.40547
 Alpha  occ. eigenvalues --   -0.40454  -0.40347  -0.40087  -0.39534  -0.39303
 Alpha  occ. eigenvalues --   -0.38592  -0.38210  -0.37956  -0.37512  -0.37444
 Alpha  occ. eigenvalues --   -0.37440  -0.37122  -0.37040  -0.36871  -0.36631
 Alpha  occ. eigenvalues --   -0.36337  -0.36071  -0.34427  -0.34096  -0.33944
 Alpha  occ. eigenvalues --   -0.33717  -0.33328  -0.33022  -0.31461  -0.31176
 Alpha  occ. eigenvalues --   -0.31149  -0.30815  -0.30164  -0.29793  -0.29590
 Alpha  occ. eigenvalues --   -0.29458  -0.29188  -0.29056  -0.24222  -0.23876
 Alpha  occ. eigenvalues --   -0.21268  -0.20963
 Alpha virt. eigenvalues --   -0.08915  -0.08642  -0.01886  -0.01531  -0.00200
 Alpha virt. eigenvalues --    0.00113   0.02069   0.02363   0.02954   0.03370
 Alpha virt. eigenvalues --    0.04548   0.04894   0.04925   0.05314   0.05955

 Mulliken charges:
               1
     1  Mg   0.838455
     2  C   -0.003394
     3  C   -0.095207
     4  C   -0.045148
     5  C   -0.063594
     6  N   -0.256752
     7  C   -0.052806
     8  C   -0.013829
     9  C   -0.086851
    10  C    0.045951
    11  C    0.104771
    12  C    0.053821
    13  C   -0.071402
    14  H    0.034627
    15  N   -0.433137
    16  C    0.168096
    17  C   -0.178018
    18  C   -0.004026
    19  C    0.148804
    20  C    0.110365
    21  C    0.012600
    22  O   -0.248269
    23  C    0.062796
    24  N   -0.341115
    25  C    0.041191
    26  C   -0.028361
    27  C   -0.024072
    28  C    0.074950
    29  C    0.076017
    30  C    0.035003
    31  C   -0.004623
    32  N   -0.310510
    33  C    0.080504
    34  C   -0.169378
    35  C    0.008519
    36  C    0.083019
    37  C    0.127253
    38  C    0.046271
    39  O   -0.187922
    40  C   -0.005418
    41  C    0.213088
    42  O   -0.257812
    43  O   -0.304580
    44  C    0.157629
    45  H   -0.017719
    46  H   -0.016106
    47  H   -0.041079
    48  H    0.001287
    49  H   -0.004698
    50  H    0.025735
    51  H    0.016795
    52  H    0.016728
    53  H    0.009620
    54  H    0.043446
    55  H    0.018879
    56  H    0.017455
    57  H    0.005575
    58  H    0.027339
    59  H    0.037799
    60  H    0.037387
    61  H    0.036677
    62  H    0.029375
    63  H    0.017418
    64  H    0.009662
    65  H    0.023734
    66  H    0.012466
    67  H    0.004888
    68  H    0.006755
    69  H    0.004654
    70  H    0.009941
    71  H    0.017685
    72  H    0.028877
    73  H    0.047940
    74  H    0.009358
    75  H    0.046280
    76  H    0.035402
    77  H    0.043682
    78  H    0.045890
    79  H    0.053364
    80  Mg   0.838407
    81  C   -0.016671
    82  C   -0.087712
    83  C   -0.045424
    84  C   -0.064713
    85  N   -0.254665
    86  C   -0.048773
    87  C   -0.015153
    88  C   -0.090924
    89  C    0.046394
    90  C    0.114905
    91  C    0.062639
    92  C   -0.077429
    93  H    0.034110
    94  N   -0.423479
    95  C    0.163046
    96  C   -0.174975
    97  C   -0.007814
    98  C    0.152014
    99  C    0.099851
   100  C    0.015743
   101  O   -0.252805
   102  C    0.061476
   103  N   -0.349888
   104  C    0.037489
   105  C   -0.019800
   106  C   -0.034826
   107  C    0.089031
   108  C    0.073709
   109  C    0.034806
   110  C   -0.007598
   111  N   -0.324241
   112  C    0.078808
   113  C   -0.162906
   114  C    0.002663
   115  C    0.096353
   116  C    0.131335
   117  C    0.042691
   118  O   -0.187811
   119  C    0.000738
   120  C    0.211076
   121  O   -0.251435
   122  O   -0.305272
   123  C    0.152219
   124  H   -0.020360
   125  H   -0.015542
   126  H   -0.040668
   127  H   -0.000045
   128  H   -0.005815
   129  H    0.025324
   130  H    0.015890
   131  H    0.015788
   132  H    0.013408
   133  H    0.037436
   134  H    0.020945
   135  H    0.018877
   136  H    0.007958
   137  H    0.024431
   138  H    0.039026
   139  H    0.037063
   140  H    0.036356
   141  H    0.033409
   142  H    0.014131
   143  H    0.012319
   144  H    0.024820
   145  H    0.012402
   146  H    0.004997
   147  H    0.005904
   148  H    0.003509
   149  H    0.010804
   150  H    0.017630
   151  H    0.030242
   152  H    0.045719
   153  H    0.008137
   154  H    0.047860
   155  H    0.036588
   156  H    0.043815
   157  H    0.049203
   158  H    0.053252
 Sum of Mulliken charges =  -0.00000

 Dipole moment (field-independent basis, Debye):
    X=             -5.9271    Y=             -0.3031    Z=             -6.3264  Tot=              8.6744
 Quadrupole moment (field-independent basis, Debye-Ang):
   XX=           -537.6696   YY=           -531.6865   ZZ=           -462.3670
   XY=            -16.0261   XZ=              7.9522   YZ=            -55.8787

 Normal termination of Gaussian 16 at Fri Sep 10 17:44:39 2021.
