 Gaussian 16, Revision A.03,
 Gaussian 16:  ES64L-G16RevA.03 25-Dec-2016

 -----------------------------------
 #p cam-b3lyp/Def2SVP td=(nstates=5)
 -----------------------------------

 --------------------------------
 TDDFT excited states in gaussian
 --------------------------------
 Symbolic Z-matrix:
 Charge =  0 Multiplicity = 1

                         Standard orientation:
 ---------------------------------------------------------------------
 Center     Atomic      Atomic             Coordinates (Angstroms)
 Number     Number       Type             X           Y           Z
 ---------------------------------------------------------------------
      1         12           0       16.016466    0.580171    0.151186
      2          6           0       16.187375   -2.957019   -0.369672
      3          6           0       16.885715    0.954840   -3.127090
      4          6           0       16.315854    3.689399    0.698627
      5          6           0       16.281765   -0.058773    3.566889
      6          7           0       16.452657   -0.890777   -1.444650
      7          6           0       16.424792   -2.217080   -1.530176
      8          6           0       16.596918   -2.746090   -2.985475
      9          6           0       17.358714   -1.496935   -3.618940
     10          6           0       16.842086   -0.405138   -2.698615
     11          6           0       18.875943   -1.576053   -3.483817
     12          6           0       15.222940   -2.998113   -3.692864
     13          6           0       15.293915   -3.816235   -4.985533
     14          1           0       14.209513   -4.736798   -5.292099
     15          7           0       16.045814    2.105138   -1.104388
     16          6           0       16.411250    2.073499   -2.408512
     17          6           0       16.262033    3.457562   -2.907294
     18          6           0       15.962301    4.332170   -1.739683
     19          6           0       16.123978    3.402799   -0.650873
     20          6           0       16.355590    3.824473   -4.356561
     21          6           0       15.599604    5.778872   -1.622904
     22          8           0       15.608572    6.394013   -0.502147
     23          6           0       15.315543    6.488724   -2.883245
     24          7           0       16.483846    1.682426    1.861223
     25          6           0       16.489790    3.019772    1.839938
     26          6           0       16.570053    3.587563    3.225980
     27          6           0       16.372262    2.354438    4.220984
     28          6           0       16.289662    1.216848    3.173446
     29          6           0       17.872786    4.320661    3.574495
     30          6           0       15.239813    2.473268    5.271631
     31          6           0       13.894925    2.462094    4.580074
     32          7           0       16.024870   -1.181294    1.419340
     33          6           0       16.169103   -1.215551    2.813864
     34          6           0       16.222313   -2.635399    3.207904
     35          6           0       16.121338   -3.332859    2.005740
     36          6           0       16.038392   -2.407157    0.926626
     37          6           0       16.407147   -3.126905    4.530286
     38          6           0       16.089013   -4.644677    1.379685
     39          8           0       16.030935   -5.802782    1.795512
     40          6           0       16.253144   -4.453648   -0.192700
     41          6           0       15.197077   -5.288239   -0.864631
     42          8           0       13.987312   -5.005478   -0.746811
     43          8           0       15.781285   -6.135956   -1.725223
     44          6           0       14.786691   -6.973497   -2.447346
     45          1           0       17.379903    1.195442   -4.070398
     46          1           0       16.313533    4.753646    0.943188
     47          1           0       16.278633   -0.335417    4.622783
     48          1           0       17.212515   -3.641450   -3.073767
     49          1           0       17.045464   -1.306997   -4.645351
     50          1           0       19.176976   -2.416920   -2.859123
     51          1           0       19.176807   -0.634013   -3.024977
     52          1           0       19.351616   -1.596980   -4.464671
     53          1           0       14.845031   -2.056044   -4.090045
     54          1           0       14.516486   -3.467579   -3.007408
     55          1           0       16.258445   -4.313956   -5.089768
     56          1           0       15.252331   -3.126770   -5.828806
     57          1           0       16.747731    3.001957   -4.953418
     58          1           0       17.111882    4.604787   -4.439274
     59          1           0       15.406503    4.189245   -4.749634
     60          1           0       16.189704    6.433407   -3.532345
     61          1           0       14.987977    7.487918   -2.598356
     62          1           0       14.511617    5.970576   -3.406863
     63          1           0       15.777745    4.315182    3.396991
     64          1           0       17.266089    2.160164    4.814283
     65          1           0       17.722208    5.350220    3.900134
     66          1           0       18.526987    4.277486    2.704180
     67          1           0       18.485219    3.829969    4.330513
     68          1           0       15.317213    3.418822    5.807246
     69          1           0       15.252196    1.671711    6.010281
     70          1           0       13.766119    3.501831    4.281431
     71          1           0       13.112381    2.155690    5.275021
     72          1           0       13.920227    1.862413    3.670003
     73          1           0       15.701972   -3.949107    4.651449
     74          1           0       16.235837   -2.345770    5.270613
     75          1           0       17.450589   -3.438533    4.485878
     76          1           0       17.259598   -4.785747   -0.445451
     77          1           0       15.058495   -8.014949   -2.274905
     78          1           0       14.772392   -6.618270   -3.477887
     79          1           0       13.769035   -6.958824   -2.055554
     80         12           0      -15.742761    0.853350    0.237459
     81          6           0      -17.267307   -2.392159    0.090943
     82          6           0      -16.595687    1.237543   -3.042706
     83          6           0      -14.020733    3.518113    0.204680
     84          6           0      -14.043198   -0.226415    3.081979
     85          7           0      -16.794551   -0.476013   -1.183378
     86          6           0      -17.382421   -1.660622   -1.109484
     87          6           0      -18.204198   -2.050427   -2.367380
     88          6           0      -17.448181   -1.128956   -3.443573
     89          6           0      -16.940279   -0.030927   -2.511348
     90          6           0      -16.247147   -1.808656   -4.079861
     91          6           0      -19.717888   -1.658090   -2.237672
     92          6           0      -20.636426   -2.281897   -3.290715
     93          1           0      -21.990389   -2.661166   -2.896490
     94          7           0      -15.769928    2.384538   -1.024796
     95          6           0      -16.168395    2.369288   -2.314087
     96          6           0      -15.975718    3.740477   -2.810977
     97          6           0      -15.276806    4.526923   -1.758479
     98          6           0      -14.970125    3.478609   -0.806074
     99          6           0      -16.508061    4.208813   -4.134111
    100          6           0      -14.929240    5.979645   -1.636090
    101          8           0      -14.110208    6.403359   -0.745873
    102          6           0      -15.503341    6.878599   -2.647915
    103          7           0      -14.092089    1.479008    1.335729
    104          6           0      -13.569373    2.705319    1.160168
    105          6           0      -12.570968    3.033101    2.244673
    106          6           0      -12.711173    1.862874    3.325648
    107          6           0      -13.748561    0.974839    2.604121
    108          6           0      -11.113427    3.139943    1.796845
    109          6           0      -12.995720    2.289537    4.791825
    110          6           0      -14.377117    2.895032    4.894299
    111          7           0      -15.785256   -0.896323    1.504298
    112          6           0      -14.970804   -1.155498    2.628399
    113          6           0      -15.289506   -2.521753    3.091224
    114          6           0      -16.258384   -2.974830    2.183203
    115          6           0      -16.510018   -1.969988    1.210337
    116          6           0      -14.675158   -3.193961    4.185214
    117          6           0      -17.117730   -4.078666    1.820204
    118          8           0      -17.399091   -5.163747    2.327329
    119          6           0      -17.717067   -3.798451    0.374983
    120          6           0      -19.196734   -4.063943    0.426294
    121          8           0      -19.942714   -3.352753    1.122220
    122          8           0      -19.514969   -4.969062   -0.517030
    123          6           0      -20.974030   -5.257102   -0.512866
    124          1           0      -16.613179    1.368809   -4.124993
    125          1           0      -13.476908    4.460367    0.304191
    126          1           0      -13.627507   -0.599410    4.020469
    127          1           0      -18.130299   -3.092839   -2.653185
    128          1           0      -18.144030   -0.719611   -4.171295
    129          1           0      -16.029258   -2.758997   -3.615621
    130          1           0      -15.418660   -1.124885   -3.949032
    131          1           0      -16.394351   -1.900631   -5.159766
    132          1           0      -19.835596   -0.596572   -2.490797
    133          1           0      -20.087351   -1.884194   -1.256349
    134          1           0      -20.148343   -3.103728   -3.828611
    135          1           0      -20.834673   -1.535795   -4.064047
    136          1           0      -16.831927    3.366787   -4.758224
    137          1           0      -15.665344    4.644452   -4.681750
    138          1           0      -17.290143    4.963917   -4.030053
    139          1           0      -15.187863    6.556794   -3.637551
    140          1           0      -15.214452    7.885856   -2.341562
    141          1           0      -16.594734    6.785466   -2.619748
    142          1           0      -12.809347    3.978195    2.716968
    143          1           0      -11.789141    1.268331    3.404414
    144          1           0      -10.652668    4.116084    2.039602
    145          1           0      -11.068852    2.952677    0.732199
    146          1           0      -10.450801    2.373006    2.194256
    147          1           0      -12.292658    3.065863    5.103563
    148          1           0      -12.911601    1.474515    5.502911
    149          1           0      -14.215568    3.932053    4.585123
    150          1           0      -14.744248    2.840758    5.917193
    151          1           0      -15.061800    2.438087    4.170382
    152          1           0      -15.468289   -3.682299    4.735651
    153          1           0      -14.120024   -2.502477    4.815662
    154          1           0      -14.014855   -3.879294    3.647081
    155          1           0      -17.206412   -4.460430   -0.325429
    156          1           0      -21.085741   -6.339054   -0.392169
    157          1           0      -21.369313   -4.810725   -1.444662
    158          1           0      -21.555028   -4.889726    0.324945
 ---------------------------------------------------------------------

 SCF Done:  E(RCAM-B3LYP) =  -4069.81176623     A.U. after   19 cycles

 Excitation energies and oscillator strengths:

 Excited State   1:      Singlet-A      1.6753 eV  740.07 nm  f=0.2127  <S**2>=0.000
     310 -> 316        0.16864
     311 -> 313        0.66668
     312 -> 314       -0.16190
     310 <- 316        0.10167
 This state for optimization and/or second-order correction.
 Total Energy, E(TD-HF/TD-DFT) =  -4069.75020035
 Copying the excited state density for this state as the 1-particle RhoCI density.

 Excited State   2:      Singlet-A      1.6801 eV  737.95 nm  f=0.5647  <S**2>=0.000
     309 -> 315        0.17066
     311 -> 313        0.16185
     312 -> 314        0.66631
     309 <- 315        0.10217

 Excited State   3:      Singlet-A      2.1861 eV  567.15 nm  f=0.0981  <S**2>=0.000
     310 -> 313        0.64224
     311 -> 316       -0.27301

 Excited State   4:      Singlet-A      2.1925 eV  565.48 nm  f=0.1025  <S**2>=0.000
     309 -> 314        0.64046
     312 -> 315       -0.27820

 Excited State   5:      Singlet-A      3.0638 eV  404.67 nm  f=0.0000  <S**2>=0.000
     312 -> 313        0.70711

 The electronic state is 1-A.
 Alpha  occ. eigenvalues --  -46.87785 -46.87660 -19.26350 -19.26273 -19.19161
 Alpha  occ. eigenvalues --  -19.19008 -19.18804 -19.18715 -19.18158 -19.18051
 Alpha  occ. eigenvalues --  -14.42497 -14.42439 -14.41438 -14.41359 -14.39391
 Alpha  occ. eigenvalues --  -14.39352 -14.38599 -14.38575 -10.39091 -10.39068
 Alpha  occ. eigenvalues --  -10.35437 -10.35392 -10.34378 -10.34228 -10.31757
 Alpha  occ. eigenvalues --  -10.31668 -10.31394 -10.31309 -10.31024 -10.30898
 Alpha  occ. eigenvalues --  -10.30558 -10.30496 -10.30397 -10.30361 -10.30196
 Alpha  occ. eigenvalues --  -10.30140 -10.29909 -10.29893 -10.29619 -10.29436
 Alpha  occ. eigenvalues --  -10.29401 -10.29243 -10.28738 -10.28720 -10.28656
 Alpha  occ. eigenvalues --  -10.28528 -10.28405 -10.28353 -10.28142 -10.28106
 Alpha  occ. eigenvalues --  -10.28001 -10.27782 -10.27716 -10.27669 -10.27573
 Alpha  occ. eigenvalues --  -10.27514 -10.27489 -10.27483 -10.27470 -10.27469
 Alpha  occ. eigenvalues --  -10.27466 -10.27438 -10.27392 -10.27372 -10.27147
 Alpha  occ. eigenvalues --  -10.27050 -10.26694 -10.26694 -10.26417 -10.26399
 Alpha  occ. eigenvalues --  -10.26224 -10.26172 -10.26133 -10.26027 -10.26008
 Alpha  occ. eigenvalues --  -10.25933 -10.25848 -10.25832 -10.25424 -10.25392
 Alpha  occ. eigenvalues --  -10.24872 -10.24821 -10.24776 -10.24727 -10.24689
 Alpha  occ. eigenvalues --  -10.24675  -3.16528  -3.16410  -1.91409  -1.91292
 Alpha  occ. eigenvalues --   -1.90996  -1.90881  -1.90838  -1.90718  -1.16644
 Alpha  occ. eigenvalues --   -1.16621  -1.08658  -1.08616  -1.07205  -1.06967
 Alpha  occ. eigenvalues --   -1.06946  -1.06631  -1.04570  -1.04495  -1.03749
 Alpha  occ. eigenvalues --   -1.03663  -1.03222  -1.03038  -1.02400  -1.02111
 Alpha  occ. eigenvalues --   -0.91987  -0.91961  -0.89508  -0.89493  -0.89177
 Alpha  occ. eigenvalues --   -0.89152  -0.88275  -0.88218  -0.87859  -0.87792
 Alpha  occ. eigenvalues --   -0.87684  -0.87662  -0.87263  -0.87121  -0.85000
 Alpha  occ. eigenvalues --   -0.84971  -0.83925  -0.83874  -0.82956  -0.82932
 Alpha  occ. eigenvalues --   -0.82653  -0.82637  -0.81596  -0.81574  -0.80585
 Alpha  occ. eigenvalues --   -0.80443  -0.78786  -0.78636  -0.77207  -0.77144
 Alpha  occ. eigenvalues --   -0.76923  -0.76898  -0.75912  -0.75839  -0.74887
 Alpha  occ. eigenvalues --   -0.74801  -0.72763  -0.72698  -0.71661  -0.71580
 Alpha  occ. eigenvalues --   -0.69895  -0.69755  -0.68862  -0.68828  -0.67630
 Alpha  occ. eigenvalues --   -0.67601  -0.67208  -0.67201  -0.65275  -0.65272
 Alpha  occ. eigenvalues --   -0.64842  -0.64770  -0.64654  -0.64609  -0.64258
 Alpha  occ. eigenvalues --   -0.64202  -0.62286  -0.62278  -0.60431  -0.60340
 Alpha  occ. eigenvalues --   -0.59797  -0.59793  -0.58992  -0.58976  -0.58492
 Alpha  occ. eigenvalues --   -0.58425  -0.57573  -0.57554  -0.57297  -0.57236
 Alpha  occ. eigenvalues --   -0.56298  -0.56204  -0.55967  -0.55887  -0.55509
 Alpha  occ. eigenvalues --   -0.55452  -0.55328  -0.55246  -0.54512  -0.54486
 Alpha  occ. eigenvalues --   -0.53913  -0.53884  -0.53287  -0.53227  -0.53211
 Alpha  occ. eigenvalues --   -0.53142  -0.52903  -0.52902  -0.52745  -0.52669
 Alpha  occ. eigenvalues --   -0.52426  -0.52398  -0.51903  -0.51883  -0.51660
 Alpha  occ. eigenvalues --   -0.51605  -0.51201  -0.51184  -0.50561  -0.50476
 Alpha  occ. eigenvalues --   -0.50020  -0.49980  -0.49907  -0.49866  -0.49503
 Alpha  occ. eigenvalues --   -0.49488  -0.49203  -0.49203  -0.49105  -0.49085
 Alpha  occ. eigenvalues --   -0.48581  -0.48559  -0.48450  -0.48434  -0.48374
 Alpha  occ. eigenvalues --   -0.48339  -0.47683  -0.47595  -0.47286  -0.47118
 Alpha  occ. eigenvalues --   -0.46786  -0.46708  -0.46555  -0.46544  -0.46348
 Alpha  occ. eigenvalues --   -0.46270  -0.46151  -0.46084  -0.45821  -0.45810
 Alpha  occ. eigenvalues --   -0.45207  -0.45190  -0.44566  -0.44514  -0.44496
 Alpha  occ. eigenvalues --   -0.44476  -0.44133  -0.44128  -0.44077  -0.44077
 Alpha  occ. eigenvalues --   -0.44008  -0.43940  -0.43553  -0.43483  -0.43386
 Alpha  occ. eigenvalues --   -0.43374  -0.43016  -0.42930  -0.42901  -0.42687
 Alpha  occ. eigenvalues --   -0.42643  -0.42552  -0.41998  -0.41963  -0.41693
 Alpha  occ. eigenvalues --   -0.41669  -0.41522  -0.41459  -0.41130  -0.40989
 Alpha  occ. eigenvalues --   -0.40858  -0.40812  -0.40723  -0.40699  -0.40560
 Alpha  occ. eigenvalues --   -0.40491  -0.40228  -0.40223  -0.39429  -0.39423
 Alpha  occ. eigenvalues --   -0.38457  -0.38348  -0.37737  -0.37655  -0.37309
 Alpha  occ. eigenvalues --   -0.37265  -0.37252  -0.37200  -0.36771  -0.36701
 Alpha  occ. eigenvalues --   -0.36216  -0.36181  -0.34275  -0.34253  -0.33862
 Alpha  occ. eigenvalues --   -0.33759  -0.33175  -0.33175  -0.31333  -0.31274
 Alpha  occ. eigenvalues --   -0.31024  -0.30973  -0.30017  -0.29955  -0.29438
 Alpha  occ. eigenvalues --   -0.29327  -0.29310  -0.29211  -0.24069  -0.24036
 Alpha  occ. eigenvalues --   -0.21117  -0.21116
 Alpha virt. eigenvalues --   -0.08792  -0.08763  -0.01738  -0.01683  -0.00047
 Alpha virt. eigenvalues --   -0.00029   0.02208   0.02212   0.03133   0.03227
 Alpha virt. eigenvalues --    0.04729   0.04729   0.05110   0.05165   0.06181

 Mulliken charges:
               1
     1  Mg   0.838699
     2  C   -0.002944
     3  C   -0.094125
     4  C   -0.045836
     5  C   -0.063940
     6  N   -0.256778
     7  C   -0.052458
     8  C   -0.014011
     9  C   -0.087004
    10  C    0.046331
    11  C    0.104812
    12  C    0.053460
    13  C   -0.071796
    14  H    0.036133
    15  N   -0.433125
    16  C    0.168431
    17  C   -0.177152
    18  C   -0.004000
    19  C    0.148681
    20  C    0.110180
    21  C    0.012291
    22  O   -0.249621
    23  C    0.062475
    24  N   -0.341114
    25  C    0.041232
    26  C   -0.028193
    27  C   -0.023952
    28  C    0.074819
    29  C    0.076171
    30  C    0.035123
    31  C   -0.004504
    32  N   -0.310474
    33  C    0.080401
    34  C   -0.169713
    35  C    0.008364
    36  C    0.082984
    37  C    0.127310
    38  C    0.046122
    39  O   -0.188435
    40  C   -0.005355
    41  C    0.212894
    42  O   -0.257102
    43  O   -0.304804
    44  C    0.157689
    45  H   -0.017611
    46  H   -0.016836
    47  H   -0.041490
    48  H    0.000934
    49  H   -0.004038
    50  H    0.025473
    51  H    0.016448
    52  H    0.016648
    53  H    0.011209
    54  H    0.044128
    55  H    0.017863
    56  H    0.017944
    57  H    0.005868
    58  H    0.026817
    59  H    0.039557
    60  H    0.037336
    61  H    0.035657
    62  H    0.031511
    63  H    0.016562
    64  H    0.009455
    65  H    0.023213
    66  H    0.012540
    67  H    0.004750
    68  H    0.006365
    69  H    0.004731
    70  H    0.008785
    71  H    0.018150
    72  H    0.028987
    73  H    0.047577
    74  H    0.009114
    75  H    0.046004
    76  H    0.035146
    77  H    0.042947
    78  H    0.046396
    79  H    0.053697
    80  Mg   0.837865
    81  C   -0.016819
    82  C   -0.087811
    83  C   -0.045512
    84  C   -0.064847
    85  N   -0.254582
    86  C   -0.049819
    87  C   -0.015128
    88  C   -0.090484
    89  C    0.045758
    90  C    0.114378
    91  C    0.062537
    92  C   -0.077896
    93  H    0.034902
    94  N   -0.423487
    95  C    0.162929
    96  C   -0.174627
    97  C   -0.007813
    98  C    0.152138
    99  C    0.099368
   100  C    0.015565
   101  O   -0.253165
   102  C    0.061200
   103  N   -0.350056
   104  C    0.037513
   105  C   -0.019848
   106  C   -0.034829
   107  C    0.088911
   108  C    0.073629
   109  C    0.034737
   110  C   -0.007688
   111  N   -0.324138
   112  C    0.078450
   113  C   -0.163098
   114  C    0.002249
   115  C    0.096194
   116  C    0.131476
   117  C    0.042399
   118  O   -0.187850
   119  C    0.000906
   120  C    0.211262
   121  O   -0.251008
   122  O   -0.305636
   123  C    0.152022
   124  H   -0.019681
   125  H   -0.015547
   126  H   -0.040389
   127  H   -0.000644
   128  H   -0.004342
   129  H    0.022474
   130  H    0.014435
   131  H    0.016262
   132  H    0.013915
   133  H    0.037683
   134  H    0.020786
   135  H    0.019582
   136  H    0.008751
   137  H    0.026129
   138  H    0.039786
   139  H    0.038236
   140  H    0.036398
   141  H    0.033890
   142  H    0.014406
   143  H    0.012496
   144  H    0.025173
   145  H    0.011628
   146  H    0.005763
   147  H    0.006313
   148  H    0.003692
   149  H    0.010931
   150  H    0.017952
   151  H    0.030067
   152  H    0.046021
   153  H    0.008560
   154  H    0.047000
   155  H    0.035033
   156  H    0.043922
   157  H    0.049485
   158  H    0.053586
 Sum of Mulliken charges =  -0.00000

 Dipole moment (field-independent basis, Debye):
    X=              2.5051    Y=              3.4339    Z=             -7.8060  Tot=              8.8883
 Quadrupole moment (field-independent basis, Debye-Ang):
   XX=           -457.6388   YY=           -562.7107   ZZ=           -446.5303
   XY=             -0.3159   XZ=             33.4092   YZ=             20.5051

 Normal termination of Gaussian 16 at Sun Sep 12 20:28:37 2021.
