 Gaussian 16, Revision A.03,
 Gaussian 16:  ES64L-G16RevA.03 25-Dec-2016

 -----------------------------------
 #p cam-b3lyp/Def2SVP td=(nstates=5)
 -----------------------------------

 --------------------------------
 TDDFT excited states in gaussian
 --------------------------------
 Symbolic Z-matrix:
 Charge =  0 Multiplicity = 1

                         Standard orientation:
 ---------------------------------------------------------------------
 Center     Atomic      Atomic             Coordinates (Angstroms)
 Number     Number       Type             X           Y           Z
 ---------------------------------------------------------------------
      1         12           0       15.511726    0.676683    0.393403
      2          6           0       15.786843   -2.435950   -1.352461
      3          6           0       16.427791    2.216058   -2.510769
      4          6           0       15.717714    3.389141    2.023360
      5          6           0       15.734331   -1.137184    3.360892
      6          7           0       16.015191   -0.117239   -1.610807
      7          6           0       16.024527   -1.325370   -2.165336
      8          6           0       16.236258   -1.295192   -3.708590
      9          6           0       16.975127    0.112069   -3.833832
     10          6           0       16.413286    0.792248   -2.597865
     11          6           0       18.491340    0.018484   -3.696565
     12          6           0       14.882144   -1.303255   -4.494746
     13          6           0       14.997711   -1.603095   -5.992109
     14          1           0       13.944002   -2.373271   -6.635440
     15          7           0       15.521985    2.550247   -0.233100
     16          6           0       15.910898    2.994309   -1.452461
     17          6           0       15.733237    4.462127   -1.427403
     18          6           0       15.389699    4.855139   -0.032550
     19          6           0       15.557255    3.600897    0.656057
     20          6           0       15.842225    5.325078   -2.646906
     21          6           0       14.986216    6.157117    0.584043
     22          8           0       14.959020    6.330488    1.850446
     23          6           0       14.705246    7.265496   -0.346330
     24          7           0       15.919289    1.102583    2.395935
     25          6           0       15.889614    2.358834    2.854122
     26          6           0       15.930311    2.394410    4.353127
     27          6           0       15.748399    0.883374    4.836277
     28          6           0       15.714779    0.194662    3.449621
     29          6           0       17.206549    2.978680    4.974300
     30          6           0       14.594957    0.596949    5.830234
     31          6           0       13.263161    0.808621    5.145682
     32          7           0       15.545342   -1.421461    0.948116
     33          6           0       15.666028   -1.949774    2.241559
     34          6           0       15.750525   -3.415328    2.103433
     35          6           0       15.689401   -3.638155    0.729222
     36          6           0       15.600464   -2.389323    0.050399
     37          6           0       15.925359   -4.343938    3.167177
     38          6           0       15.703345   -4.639410   -0.324890
     39          8           0       15.669188   -5.870503   -0.352029
     40          6           0       15.889757   -3.895266   -1.720357
     41          6           0       14.868447   -4.453894   -2.673336
     42          8           0       13.649635   -4.254909   -2.493701
     43          8           0       15.490220   -4.926305   -3.764560
     44          6           0       14.531309   -5.468564   -4.763859
     45          1           0       16.931751    2.787585   -3.292640
     46          1           0       15.682477    4.295139    2.631937
     47          1           0       15.720174   -1.773382    4.247743
     48          1           0       16.877176   -2.087869   -4.094998
     49          1           0       16.674883    0.650799   -4.732356
     50          1           0       18.803918   -0.984411   -3.406016
     51          1           0       18.758673    0.739430   -2.923736
     52          1           0       18.984490    0.358939   -4.607427
     53          1           0       14.486026   -0.288750   -4.538718
     54          1           0       14.176696   -2.000174   -4.040904
     55          1           0       15.976960   -2.012254   -6.242245
     56          1           0       14.952346   -0.658428   -6.534092
     57          1           0       16.266738    4.778188   -3.487885
     58          1           0       16.578576    6.097438   -2.425646
     59          1           0       14.890687    5.788379   -2.908170
     60          1           0       15.591800    7.462642   -0.949408
     61          1           0       14.345977    8.090191    0.268206
     62          1           0       13.924837    6.953977   -1.041216
     63          1           0       15.115840    2.997550    4.752233
     64          1           0       16.636616    0.506551    5.343967
     65          1           0       17.022646    3.820480    5.642325
     66          1           0       17.876799    3.262175    4.163321
     67          1           0       17.818646    2.261582    5.520674
     68          1           0       14.637503    1.289482    6.670195
     69          1           0       14.615983   -0.415475    6.233727
     70          1           0       13.111666    1.883745    5.235076
     71          1           0       12.477108    0.259101    5.664681
     72          1           0       13.320507    0.574932    4.082392
     73          1           0       15.240553   -5.168200    2.968173
     74          1           0       15.720166   -3.882856    4.133046
     75          1           0       16.977426   -4.599285    3.041446
     76          1           0       16.909050   -4.095864   -2.048874
     77          1           0       14.827982   -6.497425   -4.967975
     78          1           0       14.525485   -4.768403   -5.599411
     79          1           0       13.506929   -5.614279   -4.419255
     80         12           0      -16.221745    0.300238   -0.257466
     81          6           0      -13.748142   -1.851681    1.201834
     82          6           0      -14.132740    2.910885    0.417201
     83          6           0      -18.559051    2.264494   -1.121249
     84          6           0      -18.534400   -2.261965    0.224623
     85          7           0      -14.224917    0.390906    0.689478
     86          6           0      -13.356679   -0.497657    1.148788
     87          6           0      -11.962628    0.087553    1.500478
     88          6           0      -12.399283    1.611530    1.756801
     89          6           0      -13.644856    1.660633    0.874297
     90          6           0      -12.819421    1.883995    3.191573
     91          6           0      -10.948437   -0.026691    0.308682
     92          6           0       -9.487908    0.240237    0.679295
     93          1           0       -8.446440   -0.526728    0.001373
     94          7           0      -16.162294    2.210777   -0.791194
     95          6           0      -15.229971    3.123441   -0.446057
     96          6           0      -15.649164    4.384891   -1.076289
     97          6           0      -16.991806    4.181585   -1.685127
     98          6           0      -17.305724    2.854771   -1.194110
     99          6           0      -14.768809    5.599612   -1.129879
    100          6           0      -17.856399    5.044323   -2.553671
    101          8           0      -19.087661    4.761853   -2.770497
    102          6           0      -17.245182    6.279051   -3.066875
    103          7           0      -18.293143    0.124091   -0.232265
    104          6           0      -19.076319    1.105416   -0.713479
    105          6           0      -20.508403    0.644985   -0.845871
    106          6           0      -20.479042   -0.931776   -0.580232
    107          6           0      -18.982855   -1.102810   -0.237339
    108          6           0      -21.509070    1.302352    0.104348
    109          6           0      -21.094494   -1.842016   -1.678120
    110          6           0      -20.251305   -1.781173   -2.931405
    111          7           0      -16.148000   -1.760656    0.386996
    112          6           0      -17.237619   -2.645412    0.541968
    113          6           0      -16.702833   -3.899074    1.111848
    114          6           0      -15.331997   -3.646537    1.271606
    115          6           0      -15.036948   -2.321518    0.851156
    116          6           0      -17.467378   -5.049934    1.454076
    117          6           0      -14.069276   -4.195912    1.710253
    118          8           0      -13.687436   -5.303494    2.086006
    119          6           0      -13.009324   -3.015091    1.802865
    120          6           0      -11.746806   -3.469856    1.123334
    121          8           0      -11.732184   -3.691355   -0.100316
    122          8           0      -10.718612   -3.359022    1.984103
    123          6           0       -9.442320   -3.788027    1.352556
    124          1           0      -13.657413    3.819876    0.786914
    125          1           0      -19.385407    2.862707   -1.512111
    126          1           0      -19.174658   -3.142295    0.312786
    127          1           0      -11.509196   -0.324606    2.393960
    128          1           0      -11.645960    2.304935    1.392035
    129          1           0      -12.867948    0.977388    3.776255
    130          1           0      -13.795640    2.346784    3.129396
    131          1           0      -12.159824    2.631182    3.642101
    132          1           0      -11.120140    0.803564   -0.388419
    133          1           0      -11.030589   -0.982491   -0.171218
    134          1           0       -9.329205    0.228245    1.764482
    135          1           0       -9.235688    1.261264    0.382812
    136          1           0      -13.909108    5.503413   -0.455304
    137          1           0      -15.347362    6.432346   -0.715518
    138          1           0      -14.462789    5.853474   -2.147018
    139          1           0      -16.916778    6.893499   -2.231973
    140          1           0      -17.987336    6.715326   -3.738256
    141          1           0      -16.346690    6.014504   -3.635503
    142          1           0      -20.881873    0.825911   -1.846314
    143          1           0      -21.041904   -1.203015    0.325007
    144          1           0      -22.348275    1.797423   -0.419802
    145          1           0      -20.976313    2.011523    0.723849
    146          1           0      -21.950509    0.635914    0.843392
    147          1           0      -22.088483   -1.482209   -1.955016
    148          1           0      -21.200606   -2.877234   -1.371438
    149          1           0      -20.612392   -0.875595   -3.428040
    150          1           0      -20.417264   -2.662320   -3.547907
    151          1           0      -19.194234   -1.624084   -2.687338
    152          1           0      -16.910906   -5.908945    1.103477
    153          1           0      -18.461442   -5.012341    1.013380
    154          1           0      -17.496655   -4.948134    2.542217
    155          1           0      -12.850401   -2.799706    2.860190
    156          1           0       -9.016380   -4.568211    1.990960
    157          1           0       -8.848267   -2.864027    1.221920
    158          1           0       -9.502296   -4.302872    0.400823
 ---------------------------------------------------------------------

 SCF Done:  E(RCAM-B3LYP) =  -4069.81176719     A.U. after   19 cycles

 Excitation energies and oscillator strengths:

 Excited State   1:      Singlet-A      1.6753 eV  740.07 nm  f=0.2060  <S**2>=0.000
     310 -> 316        0.16813
     311 -> 314       -0.16935
     312 -> 313        0.66483
     310 <- 316        0.10136
 This state for optimization and/or second-order correction.
 Total Energy, E(TD-HF/TD-DFT) =  -4069.75020091
 Copying the excited state density for this state as the 1-particle RhoCI density.

 Excited State   2:      Singlet-A      1.6801 eV  737.95 nm  f=0.5712  <S**2>=0.000
     309 -> 315        0.17015
     311 -> 314        0.66446
     312 -> 313        0.16929
     309 <- 315        0.10186

 Excited State   3:      Singlet-A      2.1861 eV  567.16 nm  f=0.1027  <S**2>=0.000
     310 -> 313        0.64245
     312 -> 316       -0.27305

 Excited State   4:      Singlet-A      2.1925 eV  565.50 nm  f=0.0988  <S**2>=0.000
     309 -> 314        0.64068
     311 -> 315       -0.27824

 Excited State   5:      Singlet-A      3.0656 eV  404.44 nm  f=0.0000  <S**2>=0.000
     312 -> 314        0.70710

 The electronic state is 1-A.
 Alpha  occ. eigenvalues --  -46.87803 -46.87658 -19.26332 -19.26282 -19.19147
 Alpha  occ. eigenvalues --  -19.19019 -19.18825 -19.18715 -19.18172 -19.18046
 Alpha  occ. eigenvalues --  -14.42495 -14.42455 -14.41456 -14.41358 -14.39409
 Alpha  occ. eigenvalues --  -14.39350 -14.38598 -14.38592 -10.39079 -10.39077
 Alpha  occ. eigenvalues --  -10.35459 -10.35392 -10.34392 -10.34222 -10.31733
 Alpha  occ. eigenvalues --  -10.31674 -10.31409 -10.31305 -10.31019 -10.30914
 Alpha  occ. eigenvalues --  -10.30575 -10.30514 -10.30396 -10.30358 -10.30215
 Alpha  occ. eigenvalues --  -10.30141 -10.29927 -10.29893 -10.29637 -10.29436
 Alpha  occ. eigenvalues --  -10.29399 -10.29261 -10.28751 -10.28711 -10.28637
 Alpha  occ. eigenvalues --  -10.28537 -10.28402 -10.28370 -10.28134 -10.28119
 Alpha  occ. eigenvalues --  -10.27999 -10.27798 -10.27733 -10.27667 -10.27591
 Alpha  occ. eigenvalues --  -10.27520 -10.27510 -10.27489 -10.27480 -10.27466
 Alpha  occ. eigenvalues --  -10.27463 -10.27458 -10.27408 -10.27378 -10.27160
 Alpha  occ. eigenvalues --  -10.27042 -10.26706 -10.26681 -10.26423 -10.26417
 Alpha  occ. eigenvalues --  -10.26236 -10.26194 -10.26140 -10.26026 -10.26019
 Alpha  occ. eigenvalues --  -10.25933 -10.25849 -10.25847 -10.25444 -10.25401
 Alpha  occ. eigenvalues --  -10.24870 -10.24838 -10.24794 -10.24733 -10.24700
 Alpha  occ. eigenvalues --  -10.24688  -3.16546  -3.16408  -1.91427  -1.91291
 Alpha  occ. eigenvalues --   -1.91014  -1.90879  -1.90856  -1.90716  -1.16631
 Alpha  occ. eigenvalues --   -1.16627  -1.08652  -1.08629  -1.07227  -1.06968
 Alpha  occ. eigenvalues --   -1.06932  -1.06641  -1.04586  -1.04492  -1.03767
 Alpha  occ. eigenvalues --   -1.03661  -1.03240  -1.03037  -1.02417  -1.02110
 Alpha  occ. eigenvalues --   -0.91983  -0.91976  -0.89527  -0.89494  -0.89191
 Alpha  occ. eigenvalues --   -0.89144  -0.88295  -0.88220  -0.87875  -0.87791
 Alpha  occ. eigenvalues --   -0.87681  -0.87678  -0.87282  -0.87119  -0.84994
 Alpha  occ. eigenvalues --   -0.84986  -0.83944  -0.83876  -0.82977  -0.82931
 Alpha  occ. eigenvalues --   -0.82653  -0.82647  -0.81588  -0.81587  -0.80601
 Alpha  occ. eigenvalues --   -0.80437  -0.78804  -0.78634  -0.77224  -0.77141
 Alpha  occ. eigenvalues --   -0.76937  -0.76892  -0.75926  -0.75832  -0.74905
 Alpha  occ. eigenvalues --   -0.74801  -0.72780  -0.72697  -0.71677  -0.71578
 Alpha  occ. eigenvalues --   -0.69916  -0.69758  -0.68877  -0.68822  -0.67647
 Alpha  occ. eigenvalues --   -0.67598  -0.67224  -0.67193  -0.65290  -0.65265
 Alpha  occ. eigenvalues --   -0.64858  -0.64766  -0.64647  -0.64625  -0.64276
 Alpha  occ. eigenvalues --   -0.64203  -0.62299  -0.62269  -0.60450  -0.60339
 Alpha  occ. eigenvalues --   -0.59808  -0.59791  -0.58993  -0.58990  -0.58509
 Alpha  occ. eigenvalues --   -0.58422  -0.57587  -0.57546  -0.57315  -0.57234
 Alpha  occ. eigenvalues --   -0.56315  -0.56201  -0.55979  -0.55876  -0.55526
 Alpha  occ. eigenvalues --   -0.55447  -0.55345  -0.55244  -0.54527  -0.54482
 Alpha  occ. eigenvalues --   -0.53906  -0.53898  -0.53305  -0.53227  -0.53225
 Alpha  occ. eigenvalues --   -0.53136  -0.52919  -0.52896  -0.52763  -0.52666
 Alpha  occ. eigenvalues --   -0.52447  -0.52402  -0.51919  -0.51883  -0.51652
 Alpha  occ. eigenvalues --   -0.51621  -0.51200  -0.51197  -0.50582  -0.50475
 Alpha  occ. eigenvalues --   -0.50039  -0.49977  -0.49925  -0.49867  -0.49520
 Alpha  occ. eigenvalues --   -0.49484  -0.49219  -0.49198  -0.49099  -0.49099
 Alpha  occ. eigenvalues --   -0.48596  -0.48552  -0.48469  -0.48451  -0.48375
 Alpha  occ. eigenvalues --   -0.48336  -0.47700  -0.47590  -0.47303  -0.47116
 Alpha  occ. eigenvalues --   -0.46803  -0.46706  -0.46558  -0.46548  -0.46365
 Alpha  occ. eigenvalues --   -0.46268  -0.46167  -0.46082  -0.45824  -0.45815
 Alpha  occ. eigenvalues --   -0.45209  -0.45208  -0.44581  -0.44514  -0.44509
 Alpha  occ. eigenvalues --   -0.44471  -0.44151  -0.44123  -0.44092  -0.44076
 Alpha  occ. eigenvalues --   -0.44024  -0.43935  -0.43544  -0.43497  -0.43391
 Alpha  occ. eigenvalues --   -0.43381  -0.43032  -0.42922  -0.42895  -0.42702
 Alpha  occ. eigenvalues --   -0.42660  -0.42553  -0.42016  -0.41961  -0.41709
 Alpha  occ. eigenvalues --   -0.41665  -0.41537  -0.41453  -0.41146  -0.40986
 Alpha  occ. eigenvalues --   -0.40874  -0.40832  -0.40719  -0.40694  -0.40578
 Alpha  occ. eigenvalues --   -0.40492  -0.40236  -0.40218  -0.39450  -0.39426
 Alpha  occ. eigenvalues --   -0.38476  -0.38349  -0.37751  -0.37645  -0.37327
 Alpha  occ. eigenvalues --   -0.37267  -0.37264  -0.37194  -0.36760  -0.36715
 Alpha  occ. eigenvalues --   -0.36213  -0.36196  -0.34292  -0.34251  -0.33850
 Alpha  occ. eigenvalues --   -0.33771  -0.33192  -0.33173  -0.31355  -0.31273
 Alpha  occ. eigenvalues --   -0.31041  -0.30970  -0.30031  -0.29950  -0.29456
 Alpha  occ. eigenvalues --   -0.29327  -0.29326  -0.29209  -0.24086  -0.24034
 Alpha  occ. eigenvalues --   -0.21133  -0.21115
 Alpha virt. eigenvalues --   -0.08790  -0.08780  -0.01756  -0.01682  -0.00065
 Alpha virt. eigenvalues --   -0.00027   0.02195   0.02210   0.03113   0.03229
 Alpha virt. eigenvalues --    0.04714   0.04735   0.05098   0.05178   0.06176

 Mulliken charges:
               1
     1  Mg   0.838689
     2  C   -0.002947
     3  C   -0.094115
     4  C   -0.045937
     5  C   -0.063952
     6  N   -0.256785
     7  C   -0.052460
     8  C   -0.014000
     9  C   -0.086991
    10  C    0.046323
    11  C    0.104806
    12  C    0.053465
    13  C   -0.071839
    14  H    0.036207
    15  N   -0.433145
    16  C    0.168406
    17  C   -0.177155
    18  C   -0.004037
    19  C    0.148725
    20  C    0.110171
    21  C    0.012244
    22  O   -0.249681
    23  C    0.062500
    24  N   -0.341133
    25  C    0.041262
    26  C   -0.028161
    27  C   -0.023959
    28  C    0.074806
    29  C    0.076168
    30  C    0.035136
    31  C   -0.004494
    32  N   -0.310471
    33  C    0.080411
    34  C   -0.169709
    35  C    0.008393
    36  C    0.082987
    37  C    0.127308
    38  C    0.046139
    39  O   -0.188353
    40  C   -0.005352
    41  C    0.212906
    42  O   -0.257109
    43  O   -0.304795
    44  C    0.157660
    45  H   -0.017589
    46  H   -0.016880
    47  H   -0.041486
    48  H    0.000977
    49  H   -0.004019
    50  H    0.025493
    51  H    0.016433
    52  H    0.016681
    53  H    0.011177
    54  H    0.044131
    55  H    0.017897
    56  H    0.017947
    57  H    0.005901
    58  H    0.026816
    59  H    0.039509
    60  H    0.037369
    61  H    0.035575
    62  H    0.031465
    63  H    0.016493
    64  H    0.009479
    65  H    0.023172
    66  H    0.012565
    67  H    0.004766
    68  H    0.006333
    69  H    0.004756
    70  H    0.008720
    71  H    0.018111
    72  H    0.028998
    73  H    0.047612
    74  H    0.009103
    75  H    0.046040
    76  H    0.035183
    77  H    0.043007
    78  H    0.046413
    79  H    0.053722
    80  Mg   0.837856
    81  C   -0.016785
    82  C   -0.087783
    83  C   -0.045540
    84  C   -0.064909
    85  N   -0.254575
    86  C   -0.049837
    87  C   -0.015098
    88  C   -0.090499
    89  C    0.045770
    90  C    0.114372
    91  C    0.062535
    92  C   -0.077985
    93  H    0.035097
    94  N   -0.423508
    95  C    0.162931
    96  C   -0.174632
    97  C   -0.007831
    98  C    0.152133
    99  C    0.099363
   100  C    0.015559
   101  O   -0.253202
   102  C    0.061197
   103  N   -0.350066
   104  C    0.037504
   105  C   -0.019830
   106  C   -0.034806
   107  C    0.088915
   108  C    0.073669
   109  C    0.034738
   110  C   -0.007675
   111  N   -0.324116
   112  C    0.078474
   113  C   -0.163152
   114  C    0.002259
   115  C    0.096188
   116  C    0.131486
   117  C    0.042395
   118  O   -0.187773
   119  C    0.000905
   120  C    0.211299
   121  O   -0.251009
   122  O   -0.305645
   123  C    0.151980
   124  H   -0.019644
   125  H   -0.015597
   126  H   -0.040467
   127  H   -0.000586
   128  H   -0.004286
   129  H    0.022472
   130  H    0.014376
   131  H    0.016320
   132  H    0.013887
   133  H    0.037694
   134  H    0.020836
   135  H    0.019588
   136  H    0.008785
   137  H    0.026125
   138  H    0.039787
   139  H    0.038247
   140  H    0.036371
   141  H    0.033899
   142  H    0.014386
   143  H    0.012401
   144  H    0.025120
   145  H    0.011633
   146  H    0.005653
   147  H    0.006241
   148  H    0.003653
   149  H    0.010921
   150  H    0.017938
   151  H    0.030124
   152  H    0.046047
   153  H    0.008496
   154  H    0.046942
   155  H    0.035056
   156  H    0.044033
   157  H    0.049550
   158  H    0.053628
 Sum of Mulliken charges =  -0.00000

 Dipole moment (field-independent basis, Debye):
    X=              3.1821    Y=              7.3887    Z=             -1.4254  Tot=              8.1701
 Quadrupole moment (field-independent basis, Debye-Ang):
   XX=           -462.9203   YY=           -548.6292   ZZ=           -476.3995
   XY=             14.2057   XZ=            -60.8809   YZ=             -6.3518

 Normal termination of Gaussian 16 at Sun Sep 12 15:58:54 2021.
