 Gaussian 16, Revision A.03,
 Gaussian 16:  ES64L-G16RevA.03 25-Dec-2016

 -----------------------------------
 #p cam-b3lyp/Def2SVP td=(nstates=5)
 -----------------------------------

 --------------------------------
 TDDFT excited states in gaussian
 --------------------------------
 Symbolic Z-matrix:
 Charge =  0 Multiplicity = 1

                         Standard orientation:
 ---------------------------------------------------------------------
 Center     Atomic      Atomic             Coordinates (Angstroms)
 Number     Number       Type             X           Y           Z
 ---------------------------------------------------------------------
      1         12           0       -3.869447    0.579676    0.531908
      2          6           0       -4.261475   -2.521698   -1.211654
      3          6           0       -4.246319   -1.175273    3.433836
      4          6           0       -3.980931    3.352392    2.066912
      5          6           0       -4.653288    2.189858   -2.457835
      6          7           0       -4.203584   -1.572041    0.930799
      7          6           0       -4.274887   -2.665071    0.177558
      8          6           0       -4.289163   -3.985416    1.004516
      9          6           0       -4.850034   -3.413096    2.382874
     10          6           0       -4.375405   -1.975875    2.260207
     11          6           0       -6.372717   -3.421639    2.471569
     12          6           0       -2.856942   -4.594172    1.177399
     13          6           0       -2.817794   -6.038549    1.684938
     14          1           0       -1.782116   -6.929194    1.183469
     15          7           0       -3.599013    0.997442    2.443762
     16          6           0       -3.783383    0.157158    3.490288
     17          6           0       -3.452297    0.936926    4.702321
     18          6           0       -3.243787    2.352675    4.289679
     19          6           0       -3.630242    2.295047    2.903061
     20          6           0       -3.315181    0.324799    6.062560
     21          6           0       -2.781244    3.567311    5.030520
     22          8           0       -2.892624    4.744306    4.543846
     23          6           0       -2.268749    3.348845    6.395315
     24          7           0       -4.473559    2.494907   -0.037805
     25          6           0       -4.365041    3.530845    0.801266
     26          6           0       -4.587143    4.833672    0.091863
     27          6           0       -4.631237    4.486751   -1.466166
     28          6           0       -4.500772    2.946697   -1.368798
     29          6           0       -5.859700    5.598887    0.480521
     30          6           0       -3.647754    5.253631   -2.385446
     31          6           0       -2.226345    4.843070   -2.072184
     32          7           0       -4.198579   -0.016597   -1.528959
     33          6           0       -4.535165    0.817862   -2.604627
     34          6           0       -4.760097   -0.052981   -3.773005
     35          6           0       -4.553593   -1.343179   -3.288661
     36          6           0       -4.246484   -1.283990   -1.899246
     37          6           0       -5.164966    0.377216   -5.067395
     38          6           0       -4.545110   -2.759731   -3.616026
     39          8           0       -4.641373   -3.409499   -4.658152
     40          6           0       -4.475415   -3.587553   -2.257468
     41          6           0       -3.410402   -4.637731   -2.419271
     42          8           0       -2.208932   -4.318785   -2.529320
     43          8           0       -3.939587   -5.847782   -2.182030
     44          6           0       -2.928607   -6.932604   -2.297066
     45          1           0       -4.584595   -1.580924    4.389325
     46          1           0       -3.923499    4.338978    2.531442
     47          1           0       -4.818151    2.627226   -3.444234
     48          1           0       -4.959283   -4.754864    0.620701
     49          1           0       -4.384165   -3.893922    3.242813
     50          1           0       -6.825654   -3.700222    1.520170
     51          1           0       -6.654127   -2.404178    2.743736
     52          1           0       -6.709363   -4.055378    3.292436
     53          1           0       -2.350913   -4.093665    2.002922
     54          1           0       -2.292845   -4.523651    0.246728
     55          1           0       -3.796990   -6.512847    1.613346
     56          1           0       -2.603564   -6.019373    2.753553
     57          1           0       -3.688882   -0.698214    6.080887
     58          1           0       -3.985274    0.870698    6.726396
     59          1           0       -2.294063    0.386292    6.439215
     60          1           0       -3.047106    2.885784    7.002179
     61          1           0       -1.901249    4.315858    6.736896
     62          1           0       -1.446584    2.633831    6.353501
     63          1           0       -3.767937    5.526296    0.280543
     64          1           0       -5.611078    4.684211   -1.901591
     65          1           0       -5.669952    6.611453    0.837467
     66          1           0       -6.389581    5.012641    1.230743
     67          1           0       -6.608833    5.670225   -0.307596
     68          1           0       -3.718843    6.325875   -2.206049
     69          1           0       -3.828147    5.082256   -3.446738
     70          1           0       -1.971568    5.476312   -1.223110
     71          1           0       -1.574856    5.048922   -2.922124
     72          1           0       -2.176412    3.808088   -1.733356
     73          1           0       -4.554095   -0.178737   -5.778536
     74          1           0       -5.032367    1.452277   -5.186830
     75          1           0       -6.214751    0.084427   -5.058309
     76          1           0       -5.461807   -4.024780   -2.105858
     77          1           0       -3.307350   -7.648247   -3.026891
     78          1           0       -2.743467   -7.292259   -1.284754
     79          1           0       -1.976696   -6.658032   -2.752932
     80         12           0        3.975827    0.805611   -0.701783
     81          6           0        4.096842   -2.455652    0.791041
     82          6           0        3.548449    2.063970    2.439627
     83          6           0        3.415490    3.637007   -2.019610
     84          6           0        3.270244   -0.760797   -3.733978
     85          7           0        3.855677   -0.170410    1.279422
     86          6           0        3.976603   -1.410040    1.730010
     87          6           0        4.048871   -1.528245    3.276089
     88          6           0        3.300397   -0.159505    3.657157
     89          6           0        3.612536    0.648220    2.399048
     90          6           0        1.792087   -0.308782    3.766927
     91          6           0        5.525664   -1.542159    3.806116
     92          6           0        5.679967   -1.964355    5.268888
     93          1           0        6.857858   -2.739257    5.649121
     94          7           0        4.032583    2.624533    0.089976
     95          6           0        3.861053    2.952826    1.387701
     96          6           0        3.975474    4.418128    1.450523
     97          6           0        4.064360    4.941726    0.060319
     98          6           0        3.814540    3.729974   -0.694217
     99          6           0        4.071848    5.172039    2.745031
    100          6           0        4.317920    6.309450   -0.497559
    101          8           0        4.115425    6.580580   -1.733810
    102          6           0        4.720789    7.345576    0.464544
    103          7           0        3.215785    1.374348   -2.551445
    104          6           0        3.124899    2.671876   -2.892185
    105          6           0        2.812594    2.829478   -4.361199
    106          6           0        2.952066    1.365485   -4.989568
    107          6           0        3.246516    0.564567   -3.702236
    108          6           0        1.431270    3.394965   -4.690704
    109          6           0        3.917352    1.206497   -6.196060
    110          6           0        5.344317    1.426061   -5.747761
    111          7           0        3.904772   -1.230461   -1.421109
    112          6           0        3.562066   -1.664610   -2.720399
    113          6           0        3.543421   -3.141578   -2.695124
    114          6           0        3.856522   -3.466443   -1.366629
    115          6           0        4.036370   -2.275734   -0.612069
    116          6           0        3.216799   -3.988282   -3.791727
    117          6           0        4.065328   -4.545804   -0.428504
    118          8           0        4.129365   -5.771456   -0.514673
    119          6           0        4.105922   -3.938440    1.039781
    120          6           0        5.295703   -4.522251    1.751196
    121          8           0        6.450385   -4.264554    1.367914
    122          8           0        4.884164   -5.107891    2.890503
    123          6           0        6.030093   -5.692186    3.637025
    124          1           0        3.183998    2.540953    3.349881
    125          1           0        3.316440    4.586965   -2.549935
    126          1           0        3.155314   -1.324642   -4.662173
    127          1           0        3.513639   -2.373121    3.692596
    128          1           0        3.749417    0.306317    4.530514
    129          1           0        1.460237   -1.287504    3.453694
    130          1           0        1.373366    0.455828    3.125751
    131          1           0        1.462035   -0.065706    4.780975
    132          1           0        5.893361   -0.509874    3.868709
    133          1           0        6.147589   -2.157030    3.185013
    134          1           0        4.768944   -2.432495    5.661091
    135          1           0        5.803231   -1.065759    5.878267
    136          1           0        3.812163    4.536737    3.600818
    137          1           0        3.289044    5.938067    2.727988
    138          1           0        5.040212    5.659213    2.877661
    139          1           0        3.952350    7.448817    1.226977
    140          1           0        4.942682    8.230603   -0.134927
    141          1           0        5.630048    7.012381    0.977240
    142          1           0        3.527609    3.487068   -4.840198
    143          1           0        1.991607    0.995278   -5.377237
    144          1           0        1.470941    4.310171   -5.311107
    145          1           0        0.910806    3.587436   -3.761932
    146          1           0        0.757426    2.703857   -5.194211
    147          1           0        3.708521    1.968366   -6.951099
    148          1           0        3.843162    0.240472   -6.684198
    149          1           0        5.443497    2.515536   -5.764888
    150          1           0        6.039922    0.955479   -6.439658
    151          1           0        5.486072    1.098408   -4.711325
    152          1           0        3.940217   -4.792748   -3.790185
    153          1           0        3.229826   -3.442671   -4.732956
    154          1           0        2.206017   -4.293509   -3.508155
    155          1           0        3.167092   -4.200911    1.528934
    156          1           0        5.798936   -6.749246    3.800987
    157          1           0        6.155606   -5.058798    4.535250
    158          1           0        6.981036   -5.761078    3.121861
 ---------------------------------------------------------------------

 SCF Done:  E(RCAM-B3LYP) =  -4069.81232753     A.U. after   19 cycles

 Excitation energies and oscillator strengths:

 Excited State   1:      Singlet-A      1.6493 eV  751.76 nm  f=0.1383  <S**2>=0.000
     309 -> 315        0.11680
     310 -> 316       -0.11905
     311 -> 313       -0.48001
     312 -> 314        0.49159
 This state for optimization and/or second-order correction.
 Total Energy, E(TD-HF/TD-DFT) =  -4069.75171848
 Copying the excited state density for this state as the 1-particle RhoCI density.

 Excited State   2:      Singlet-A      1.6939 eV  731.94 nm  f=0.5134  <S**2>=0.000
     309 -> 315       -0.12752
     310 -> 316       -0.12525
     311 -> 313        0.48952
     312 -> 314        0.47834

 Excited State   3:      Singlet-A      2.1834 eV  567.86 nm  f=0.0490  <S**2>=0.000
     309 -> 313       -0.39176
     310 -> 314        0.51068
     311 -> 315       -0.16354
     312 -> 316        0.21529

 Excited State   4:      Singlet-A      2.1914 eV  565.77 nm  f=0.1398  <S**2>=0.000
     309 -> 313        0.50788
     310 -> 314        0.38854
     311 -> 315        0.22102
     312 -> 316        0.17040

 Excited State   5:      Singlet-A      2.2334 eV  555.14 nm  f=0.0000  <S**2>=0.000
     312 -> 313        0.70704

 The electronic state is 1-A.
 Alpha  occ. eigenvalues --  -46.87909 -46.87410 -19.26281 -19.26271 -19.19055
 Alpha  occ. eigenvalues --  -19.19053 -19.19041 -19.18481 -19.18287 -19.17824
 Alpha  occ. eigenvalues --  -14.42555 -14.42266 -14.41555 -14.41106 -14.39533
 Alpha  occ. eigenvalues --  -14.39101 -14.38702 -14.38327 -10.39114 -10.38976
 Alpha  occ. eigenvalues --  -10.35682 -10.35162 -10.34499 -10.34005 -10.31734
 Alpha  occ. eigenvalues --  -10.31585 -10.31500 -10.31076 -10.31017 -10.30832
 Alpha  occ. eigenvalues --  -10.30687 -10.30633 -10.30327 -10.30117 -10.30078
 Alpha  occ. eigenvalues --  -10.30018 -10.29878 -10.29774 -10.29621 -10.29397
 Alpha  occ. eigenvalues --  -10.29163 -10.29112 -10.28793 -10.28646 -10.28621
 Alpha  occ. eigenvalues --  -10.28491 -10.28441 -10.28180 -10.28162 -10.28044
 Alpha  occ. eigenvalues --  -10.27934 -10.27842 -10.27741 -10.27721 -10.27697
 Alpha  occ. eigenvalues --  -10.27566 -10.27520 -10.27509 -10.27431 -10.27248
 Alpha  occ. eigenvalues --  -10.27244 -10.27236 -10.27195 -10.27189 -10.27153
 Alpha  occ. eigenvalues --  -10.26869 -10.26739 -10.26702 -10.26621 -10.26295
 Alpha  occ. eigenvalues --  -10.26203 -10.26196 -10.26132 -10.26009 -10.25989
 Alpha  occ. eigenvalues --  -10.25885 -10.25637 -10.25508 -10.25324 -10.25232
 Alpha  occ. eigenvalues --  -10.24967 -10.24902 -10.24644 -10.24578 -10.24507
 Alpha  occ. eigenvalues --  -10.24444  -3.16651  -3.16161  -1.91532  -1.91119
 Alpha  occ. eigenvalues --   -1.91043  -1.90962  -1.90632  -1.90468  -1.16629
 Alpha  occ. eigenvalues --   -1.16565  -1.08737  -1.08440  -1.07448  -1.06838
 Alpha  occ. eigenvalues --   -1.06738  -1.06671  -1.04688  -1.04270  -1.03870
 Alpha  occ. eigenvalues --   -1.03413  -1.03356  -1.02772  -1.02527  -1.01849
 Alpha  occ. eigenvalues --   -0.92076  -0.91754  -0.89600  -0.89244  -0.89241
 Alpha  occ. eigenvalues --   -0.89030  -0.88363  -0.88004  -0.87981  -0.87770
 Alpha  occ. eigenvalues --   -0.87492  -0.87464  -0.87404  -0.86857  -0.85051
 Alpha  occ. eigenvalues --   -0.84845  -0.83997  -0.83649  -0.83174  -0.82725
 Alpha  occ. eigenvalues --   -0.82700  -0.82485  -0.81634  -0.81415  -0.80687
 Alpha  occ. eigenvalues --   -0.80236  -0.78958  -0.78354  -0.77303  -0.76971
 Alpha  occ. eigenvalues --   -0.76948  -0.76731  -0.75986  -0.75666  -0.74969
 Alpha  occ. eigenvalues --   -0.74597  -0.72888  -0.72421  -0.71762  -0.71380
 Alpha  occ. eigenvalues --   -0.69950  -0.69523  -0.68960  -0.68657  -0.67764
 Alpha  occ. eigenvalues --   -0.67374  -0.67293  -0.67036  -0.65349  -0.65117
 Alpha  occ. eigenvalues --   -0.64938  -0.64688  -0.64543  -0.64468  -0.64345
 Alpha  occ. eigenvalues --   -0.63967  -0.62332  -0.62114  -0.60599  -0.60087
 Alpha  occ. eigenvalues --   -0.59887  -0.59626  -0.59085  -0.58757  -0.58606
 Alpha  occ. eigenvalues --   -0.58201  -0.57666  -0.57408  -0.57359  -0.56995
 Alpha  occ. eigenvalues --   -0.56442  -0.56002  -0.55952  -0.55744  -0.55663
 Alpha  occ. eigenvalues --   -0.55397  -0.55242  -0.55035  -0.54567  -0.54305
 Alpha  occ. eigenvalues --   -0.53953  -0.53791  -0.53452  -0.53326  -0.53018
 Alpha  occ. eigenvalues --   -0.52986  -0.52951  -0.52889  -0.52731  -0.52476
 Alpha  occ. eigenvalues --   -0.52459  -0.52165  -0.52046  -0.51707  -0.51505
 Alpha  occ. eigenvalues --   -0.51445  -0.51274  -0.50977  -0.50802  -0.50245
 Alpha  occ. eigenvalues --   -0.50116  -0.50077  -0.49801  -0.49641  -0.49624
 Alpha  occ. eigenvalues --   -0.49338  -0.49290  -0.49165  -0.49021  -0.48898
 Alpha  occ. eigenvalues --   -0.48673  -0.48632  -0.48530  -0.48367  -0.48160
 Alpha  occ. eigenvalues --   -0.48115  -0.47797  -0.47414  -0.47398  -0.46891
 Alpha  occ. eigenvalues --   -0.46882  -0.46616  -0.46498  -0.46463  -0.46394
 Alpha  occ. eigenvalues --   -0.46247  -0.46017  -0.45894  -0.45826  -0.45589
 Alpha  occ. eigenvalues --   -0.45288  -0.45001  -0.44694  -0.44617  -0.44369
 Alpha  occ. eigenvalues --   -0.44249  -0.44241  -0.44156  -0.44124  -0.43941
 Alpha  occ. eigenvalues --   -0.43854  -0.43724  -0.43558  -0.43459  -0.43390
 Alpha  occ. eigenvalues --   -0.43200  -0.43121  -0.42775  -0.42748  -0.42678
 Alpha  occ. eigenvalues --   -0.42663  -0.42317  -0.42059  -0.41805  -0.41766
 Alpha  occ. eigenvalues --   -0.41587  -0.41460  -0.41292  -0.41231  -0.41026
 Alpha  occ. eigenvalues --   -0.40905  -0.40809  -0.40634  -0.40552  -0.40531
 Alpha  occ. eigenvalues --   -0.40271  -0.40260  -0.40113  -0.39465  -0.39181
 Alpha  occ. eigenvalues --   -0.38529  -0.38144  -0.37781  -0.37538  -0.37402
 Alpha  occ. eigenvalues --   -0.37318  -0.37031  -0.36998  -0.36750  -0.36648
 Alpha  occ. eigenvalues --   -0.36248  -0.36010  -0.34395  -0.34009  -0.33822
 Alpha  occ. eigenvalues --   -0.33725  -0.33296  -0.32917  -0.31565  -0.31145
 Alpha  occ. eigenvalues --   -0.31044  -0.30737  -0.30139  -0.29734  -0.29607
 Alpha  occ. eigenvalues --   -0.29455  -0.29057  -0.28907  -0.24190  -0.23781
 Alpha  occ. eigenvalues --   -0.21247  -0.20855
 Alpha virt. eigenvalues --   -0.08909  -0.08522  -0.01872  -0.01433  -0.00225
 Alpha virt. eigenvalues --    0.00205   0.02073   0.02376   0.02590   0.03588
 Alpha virt. eigenvalues --    0.04653   0.04927   0.05058   0.05294   0.06172

 Mulliken charges:
               1
     1  Mg   0.838786
     2  C   -0.002559
     3  C   -0.094595
     4  C   -0.045640
     5  C   -0.064285
     6  N   -0.256895
     7  C   -0.051911
     8  C   -0.014017
     9  C   -0.086841
    10  C    0.046295
    11  C    0.104813
    12  C    0.053673
    13  C   -0.073820
    14  H    0.041668
    15  N   -0.433135
    16  C    0.168119
    17  C   -0.177935
    18  C   -0.005203
    19  C    0.148811
    20  C    0.110099
    21  C    0.010744
    22  O   -0.249739
    23  C    0.063344
    24  N   -0.341365
    25  C    0.041523
    26  C   -0.028230
    27  C   -0.024298
    28  C    0.075828
    29  C    0.076138
    30  C    0.035365
    31  C   -0.009071
    32  N   -0.310629
    33  C    0.080938
    34  C   -0.170431
    35  C    0.008333
    36  C    0.083428
    37  C    0.127399
    38  C    0.045783
    39  O   -0.188108
    40  C   -0.005199
    41  C    0.213042
    42  O   -0.257738
    43  O   -0.304902
    44  C    0.157339
    45  H   -0.017647
    46  H   -0.017095
    47  H   -0.041401
    48  H    0.001380
    49  H   -0.004023
    50  H    0.025632
    51  H    0.016200
    52  H    0.016881
    53  H    0.009564
    54  H    0.045122
    55  H    0.017507
    56  H    0.017287
    57  H    0.006384
    58  H    0.027079
    59  H    0.036906
    60  H    0.038460
    61  H    0.034691
    62  H    0.027896
    63  H    0.016852
    64  H    0.009564
    65  H    0.023261
    66  H    0.012339
    67  H    0.004979
    68  H    0.006962
    69  H    0.003882
    70  H    0.010238
    71  H    0.024092
    72  H    0.028731
    73  H    0.046828
    74  H    0.009133
    75  H    0.046611
    76  H    0.035520
    77  H    0.043088
    78  H    0.047781
    79  H    0.054595
    80  Mg   0.837268
    81  C   -0.016842
    82  C   -0.087870
    83  C   -0.044756
    84  C   -0.060330
    85  N   -0.254471
    86  C   -0.050074
    87  C   -0.014789
    88  C   -0.090932
    89  C    0.045200
    90  C    0.114570
    91  C    0.062785
    92  C   -0.077320
    93  H    0.034498
    94  N   -0.423441
    95  C    0.162047
    96  C   -0.174030
    97  C   -0.008153
    98  C    0.151538
    99  C    0.099238
   100  C    0.015306
   101  O   -0.254340
   102  C    0.061176
   103  N   -0.349838
   104  C    0.036311
   105  C   -0.020105
   106  C   -0.035494
   107  C    0.088680
   108  C    0.071146
   109  C    0.034669
   110  C   -0.007547
   111  N   -0.324927
   112  C    0.078515
   113  C   -0.157451
   114  C    0.002750
   115  C    0.096760
   116  C    0.128924
   117  C    0.043545
   118  O   -0.189324
   119  C    0.000473
   120  C    0.210914
   121  O   -0.251006
   122  O   -0.306220
   123  C    0.152211
   124  H   -0.020585
   125  H   -0.016606
   126  H   -0.038083
   127  H   -0.002405
   128  H   -0.005548
   129  H    0.022155
   130  H    0.017863
   131  H    0.010845
   132  H    0.014225
   133  H    0.037848
   134  H    0.019232
   135  H    0.019159
   136  H    0.007857
   137  H    0.027921
   138  H    0.038626
   139  H    0.038927
   140  H    0.035485
   141  H    0.033476
   142  H    0.013681
   143  H    0.015460
   144  H    0.023122
   145  H    0.014027
   146  H    0.006359
   147  H    0.005521
   148  H    0.004745
   149  H    0.010296
   150  H    0.017555
   151  H    0.030081
   152  H    0.043346
   153  H    0.008209
   154  H    0.058155
   155  H    0.034019
   156  H    0.042980
   157  H    0.048916
   158  H    0.053669
 Sum of Mulliken charges =  -0.00000

 Dipole moment (field-independent basis, Debye):
    X=             -3.1282    Y=              1.6775    Z=              6.8153  Tot=              7.6843
 Quadrupole moment (field-independent basis, Debye-Ang):
   XX=           -519.5677   YY=           -528.7027   ZZ=           -470.7008
   XY=             14.6024   XZ=              3.2905   YZ=            -27.9191

 Normal termination of Gaussian 16 at Fri Sep  3 16:19:10 2021.
