 Gaussian 16, Revision A.03,
 Gaussian 16:  ES64L-G16RevA.03 25-Dec-2016

 -----------------------------------
 #p cam-b3lyp/Def2SVP td=(nstates=5)
 -----------------------------------

 --------------------------------
 TDDFT excited states in gaussian
 --------------------------------
 Symbolic Z-matrix:
 Charge =  0 Multiplicity = 1

                         Standard orientation:
 ---------------------------------------------------------------------
 Center     Atomic      Atomic             Coordinates (Angstroms)
 Number     Number       Type             X           Y           Z
 ---------------------------------------------------------------------
      1         12           0        4.205326   -0.244926   -0.071404
      2          6           0        3.588228   -3.614333   -1.109911
      3          6           0        4.989290    0.454555   -3.317816
      4          6           0        5.190360    2.610162    0.895447
      5          6           0        4.477438   -1.454814    3.185556
      6          7           0        4.244050   -1.503938   -1.891853
      7          6           0        3.927802   -2.765700   -2.165920
      8          6           0        3.917719   -3.082760   -3.691288
      9          6           0        4.901664   -1.933282   -4.193832
     10          6           0        4.673101   -0.917473   -3.088474
     11          6           0        6.370808   -2.343260   -4.188058
     12          6           0        2.491848   -2.931922   -4.320471
     13          6           0        2.328071   -3.533018   -5.719476
     14          1           0        1.058592   -4.150625   -6.072086
     15          7           0        4.506573    1.419709   -1.091742
     16          6           0        4.798738    1.519416   -2.410827
     17          6           0        4.928865    2.965475   -2.691290
     18          6           0        4.876100    3.687914   -1.389985
     19          6           0        4.881969    2.585477   -0.462636
     20          6           0        5.035110    3.528936   -4.075115
     21          6           0        4.838595    5.141421   -1.037790
     22          8           0        5.029116    5.557105    0.156146
     23          6           0        4.658540    6.084057   -2.156744
     24          7           0        4.973853    0.454028    1.739249
     25          6           0        5.266377    1.747797    1.911220
     26          6           0        5.527975    2.061278    3.354562
     27          6           0        5.113672    0.754234    4.172940
     28          6           0        4.742168   -0.162425    2.981306
     29          6           0        6.971983    2.446281    3.704738
     30          6           0        4.080784    0.936544    5.313258
     31          6           0        2.735799    1.311517    4.732302
     32          7           0        3.890592   -2.147728    0.924251
     33          6           0        4.085474   -2.430221    2.283991
     34          6           0        3.849362   -3.874579    2.463294
     35          6           0        3.547780   -4.338007    1.184182
     36          6           0        3.618359   -3.256846    0.259843
     37          6           0        3.982316   -4.595684    3.682624
     38          6           0        3.206445   -5.499696    0.379306
     39          8           0        2.919025   -6.671784    0.626473
     40          6           0        3.338276   -5.101232   -1.156818
     41          6           0        2.098812   -5.584070   -1.859601
     42          8           0        0.984593   -5.080545   -1.609914
     43          8           0        2.448441   -6.387461   -2.875900
     44          6           0        1.266100   -6.877893   -3.633331
     45          1           0        5.481545    0.733848   -4.251423
     46          1           0        5.427808    3.599981    1.290815
     47          1           0        4.461470   -1.887725    4.187447
     48          1           0        4.321803   -4.060309   -3.954988
     49          1           0        4.591622   -1.523641   -5.154973
     50          1           0        6.511190   -3.315774   -3.716432
     51          1           0        6.887210   -1.567635   -3.622171
     52          1           0        6.787089   -2.306832   -5.195113
     53          1           0        2.308275   -1.881690   -4.547131
     54          1           0        1.731901   -3.347942   -3.658102
     55          1           0        3.157401   -4.195824   -5.968089
     56          1           0        2.398595   -2.725692   -6.448483
     57          1           0        5.214419    2.747862   -4.812894
     58          1           0        5.937140    4.139954   -4.101720
     59          1           0        4.170303    4.138514   -4.337518
     60          1           0        5.470825    5.952983   -2.871979
     61          1           0        4.566467    7.071633   -1.706117
     62          1           0        3.739675    5.831583   -2.686738
     63          1           0        4.919062    2.900157    3.689126
     64          1           0        5.970078    0.289154    4.661758
     65          1           0        7.060908    3.420336    4.186417
     66          1           0        7.562527    2.407061    2.789854
     67          1           0        7.497283    1.727190    4.332739
     68          1           0        4.383319    1.749458    5.972490
     69          1           0        3.953045    0.043451    5.925074
     70          1           0        2.820606    2.389283    4.597919
     71          1           0        1.937112    1.067151    5.433441
     72          1           0        2.591333    0.870514    3.745827
     73          1           0        3.122841   -5.263737    3.737190
     74          1           0        4.015877   -3.922633    4.539058
     75          1           0        4.931301   -5.104425    3.513910
     76          1           0        4.237579   -5.589305   -1.531198
     77          1           0        1.314863   -7.966863   -3.634637
     78          1           0        1.283085   -6.369492   -4.597511
     79          1           0        0.293726   -6.715998   -3.166836
     80         12           0       -3.531617    1.456375    0.567776
     81          6           0       -6.029236   -1.113759    0.379803
     82          6           0       -4.813137    2.706311   -2.335664
     83          6           0       -1.073924    3.460370    0.461962
     84          6           0       -1.774143   -0.605086    2.760350
     85          7           0       -5.206320    0.794174   -0.716397
     86          6           0       -6.123114   -0.159789   -0.654882
     87          6           0       -7.247940   -0.040356   -1.717921
     88          6           0       -6.449441    0.814831   -2.817885
     89          6           0       -5.445877    1.513644   -1.902903
     90          6           0       -5.677653   -0.045152   -3.804849
     91          6           0       -8.498257    0.740286   -1.180037
     92          6           0       -9.750494    0.628380   -2.052479
     93          1           0      -11.054516    0.588028   -1.396451
     94          7           0       -3.295070    3.146119   -0.445813
     95          6           0       -3.911533    3.499977   -1.593005
     96          6           0       -3.379600    4.826126   -1.943072
     97          6           0       -2.277979    5.154136   -0.997795
     98          6           0       -2.156422    3.896511   -0.288067
     99          6           0       -3.968895    5.678435   -3.029219
    100          6           0       -1.459583    6.390421   -0.778647
    101          8           0       -0.395343    6.375605   -0.064486
    102          6           0       -1.888753    7.597218   -1.500394
    103          7           0       -1.591921    1.349041    1.308319
    104          6           0       -0.740989    2.380884    1.169895
    105          6           0        0.494692    2.186148    2.015804
    106          6           0        0.186618    0.918588    2.940986
    107          6           0       -1.199536    0.528592    2.382525
    108          6           0        1.795848    1.951777    1.248694
    109          6           0        0.337527    1.113355    4.474601
    110          6           0       -0.725873    2.060704    4.981642
    111          7           0       -3.903021   -0.418782    1.574704
    112          6           0       -3.021600   -1.117856    2.428219
    113          6           0       -3.675094   -2.396195    2.776363
    114          6           0       -4.891077   -2.362003    2.077287
    115          6           0       -4.979648   -1.157046    1.329134
    116          6           0       -3.119298   -3.418354    3.596371
    117          6           0       -6.115204   -3.076018    1.793729
    118          8           0       -6.634164   -4.110440    2.211317
    119          6           0       -6.850816   -2.356602    0.582240
    120          6           0       -8.298675   -2.186727    0.952848
    121          8           0       -8.627361   -1.440762    1.892052
    122          8           0       -9.065732   -2.757581    0.006218
    123          6           0      -10.510713   -2.605560    0.323652
    124          1           0       -4.989953    3.046493   -3.356393
    125          1           0       -0.244326    4.166059    0.547084
    126          1           0       -1.334152   -1.258894    3.516408
    127          1           0       -7.572845   -0.982314   -2.143285
    128          1           0       -7.097577    1.542547   -3.299265
    129          1           0       -5.698180   -1.089577   -3.531184
    130          1           0       -4.662634    0.329775   -3.790746
    131          1           0       -6.046964    0.122996   -4.820569
    132          1           0       -8.309011    1.818467   -1.260413
    133          1           0       -8.729851    0.443153   -0.175694
    134          1           0       -9.667126   -0.177494   -2.791768
    135          1           0       -9.836405    1.536360   -2.654303
    136          1           0       -4.660623    5.105751   -3.659262
    137          1           0       -3.149032    5.949762   -3.703059
    138          1           0       -4.427947    6.592007   -2.645407
    139          1           0       -1.887276    7.398320   -2.569463
    140          1           0       -1.235312    8.397111   -1.146763
    141          1           0       -2.925052    7.820625   -1.223281
    142          1           0        0.670520    3.048036    2.647740
    143          1           0        0.862012    0.079044    2.719969
    144          1           0        2.586449    2.685190    1.495926
    145          1           0        1.576062    1.972108    0.189543
    146          1           0        2.234596    0.963433    1.374669
    147          1           0        1.300488    1.575875    4.704674
    148          1           0        0.283524    0.186067    5.035141
    149          1           0       -0.296392    3.046010    4.777211
    150          1           0       -0.891505    1.915716    6.047281
    151          1           0       -1.645210    1.972864    4.391088
    152          1           0       -3.909866   -3.753966    4.254301
    153          1           0       -2.261150   -3.054936    4.157880
    154          1           0       -2.831934   -4.146205    2.832880
    155          1           0       -6.724986   -2.987418   -0.298565
    156          1           0      -10.944082   -3.610476    0.329015
    157          1           0      -10.906634   -1.890238   -0.421537
    158          1           0      -10.771903   -2.257296    1.316095
 ---------------------------------------------------------------------

 SCF Done:  E(RCAM-B3LYP) =  -4069.70812018     A.U. after   19 cycles

 Excitation energies and oscillator strengths:

 Excited State   1:      Singlet-A      1.6297 eV  760.76 nm  f=0.0004  <S**2>=0.000
     309 -> 315       -0.11494
     310 -> 316        0.11435
     311 -> 313       -0.48477
     312 -> 314        0.48851
 This state for optimization and/or second-order correction.
 Total Energy, E(TD-HF/TD-DFT) =  -4069.64822862
 Copying the excited state density for this state as the 1-particle RhoCI density.

 Excited State   2:      Singlet-A      1.7102 eV  724.95 nm  f=0.6686  <S**2>=0.000
     309 -> 315        0.13106
     310 -> 316        0.12792
     311 -> 313        0.48532
     312 -> 314        0.48158

 Excited State   3:      Singlet-A      2.1748 eV  570.11 nm  f=0.0514  <S**2>=0.000
     309 -> 313       -0.37766
     310 -> 314        0.48790
     311 -> 315        0.15664
     312 -> 313       -0.20807
     312 -> 316       -0.19780

 Excited State   4:      Singlet-A      2.1797 eV  568.81 nm  f=0.0053  <S**2>=0.000
     309 -> 313       -0.16175
     310 -> 314        0.11468
     312 -> 313        0.67181

 Excited State   5:      Singlet-A      2.1911 eV  565.85 nm  f=0.1348  <S**2>=0.000
     309 -> 313        0.49179
     310 -> 314        0.40249
     311 -> 315       -0.21835
     312 -> 316       -0.17887

 The electronic state is 1-A.
 Alpha  occ. eigenvalues --  -46.87882 -46.87297 -19.26326 -19.26099 -19.19069
 Alpha  occ. eigenvalues --  -19.18896 -19.18728 -19.18434 -19.18256 -19.17723
 Alpha  occ. eigenvalues --  -14.42574 -14.42151 -14.41570 -14.40989 -14.39462
 Alpha  occ. eigenvalues --  -14.39005 -14.38735 -14.38227 -10.39133 -10.38817
 Alpha  occ. eigenvalues --  -10.35351 -10.35122 -10.34479 -10.33896 -10.31703
 Alpha  occ. eigenvalues --  -10.31554 -10.31540 -10.31003 -10.30938 -10.30739
 Alpha  occ. eigenvalues --  -10.30709 -10.30609 -10.30404 -10.30095 -10.30008
 Alpha  occ. eigenvalues --  -10.29959 -10.29727 -10.29724 -10.29534 -10.29395
 Alpha  occ. eigenvalues --  -10.29119 -10.29011 -10.28839 -10.28618 -10.28472
 Alpha  occ. eigenvalues --  -10.28462 -10.28454 -10.28220 -10.28091 -10.27907
 Alpha  occ. eigenvalues --  -10.27861 -10.27859 -10.27773 -10.27759 -10.27675
 Alpha  occ. eigenvalues --  -10.27657 -10.27525 -10.27508 -10.27327 -10.27242
 Alpha  occ. eigenvalues --  -10.27240 -10.27223 -10.27143 -10.27112 -10.27017
 Alpha  occ. eigenvalues --  -10.26781 -10.26728 -10.26462 -10.26329 -10.26260
 Alpha  occ. eigenvalues --  -10.26254 -10.26248 -10.26169 -10.25998 -10.25763
 Alpha  occ. eigenvalues --  -10.25658 -10.25641 -10.25514 -10.25339 -10.25249
 Alpha  occ. eigenvalues --  -10.24950 -10.24941 -10.24529 -10.24357 -10.23932
 Alpha  occ. eigenvalues --  -10.22741  -3.16620  -3.16046  -1.91502  -1.91090
 Alpha  occ. eigenvalues --   -1.90930  -1.90928  -1.90517  -1.90354  -1.16677
 Alpha  occ. eigenvalues --   -1.16389  -1.08712  -1.08328  -1.07108  -1.06697
 Alpha  occ. eigenvalues --   -1.06691  -1.06679  -1.04700  -1.04156  -1.03908
 Alpha  occ. eigenvalues --   -1.03358  -1.03306  -1.02674  -1.02551  -1.01760
 Alpha  occ. eigenvalues --   -0.92102  -0.91649  -0.90592  -0.89334  -0.89229
 Alpha  occ. eigenvalues --   -0.88892  -0.88647  -0.88046  -0.88007  -0.87808
 Alpha  occ. eigenvalues --   -0.87417  -0.87346  -0.87287  -0.86828  -0.85335
 Alpha  occ. eigenvalues --   -0.85033  -0.84680  -0.83564  -0.83056  -0.82705
 Alpha  occ. eigenvalues --   -0.82650  -0.82379  -0.81704  -0.81295  -0.80724
 Alpha  occ. eigenvalues --   -0.80144  -0.78928  -0.78331  -0.78133  -0.77140
 Alpha  occ. eigenvalues --   -0.76819  -0.76608  -0.76143  -0.75535  -0.75518
 Alpha  occ. eigenvalues --   -0.74679  -0.73352  -0.72448  -0.72115  -0.71792
 Alpha  occ. eigenvalues --   -0.71339  -0.69062  -0.68823  -0.68352  -0.67745
 Alpha  occ. eigenvalues --   -0.67310  -0.67269  -0.66936  -0.66053  -0.65279
 Alpha  occ. eigenvalues --   -0.64942  -0.64895  -0.64615  -0.64398  -0.64256
 Alpha  occ. eigenvalues --   -0.63427  -0.62402  -0.62058  -0.60539  -0.60087
 Alpha  occ. eigenvalues --   -0.59912  -0.59514  -0.59158  -0.58756  -0.58647
 Alpha  occ. eigenvalues --   -0.58261  -0.57707  -0.57551  -0.57444  -0.57217
 Alpha  occ. eigenvalues --   -0.56553  -0.56374  -0.56057  -0.55815  -0.55592
 Alpha  occ. eigenvalues --   -0.55531  -0.55163  -0.55144  -0.54837  -0.54325
 Alpha  occ. eigenvalues --   -0.54020  -0.53762  -0.53637  -0.53255  -0.53208
 Alpha  occ. eigenvalues --   -0.52979  -0.52866  -0.52853  -0.52719  -0.52607
 Alpha  occ. eigenvalues --   -0.52422  -0.52164  -0.51959  -0.51664  -0.51474
 Alpha  occ. eigenvalues --   -0.51415  -0.51373  -0.51182  -0.50513  -0.50368
 Alpha  occ. eigenvalues --   -0.50155  -0.49950  -0.49714  -0.49662  -0.49392
 Alpha  occ. eigenvalues --   -0.49319  -0.49231  -0.49127  -0.48908  -0.48887
 Alpha  occ. eigenvalues --   -0.48732  -0.48626  -0.48424  -0.48382  -0.48234
 Alpha  occ. eigenvalues --   -0.48064  -0.47756  -0.47459  -0.47385  -0.47166
 Alpha  occ. eigenvalues --   -0.46919  -0.46675  -0.46579  -0.46512  -0.46325
 Alpha  occ. eigenvalues --   -0.46230  -0.46192  -0.45947  -0.45887  -0.45682
 Alpha  occ. eigenvalues --   -0.45484  -0.45211  -0.44779  -0.44660  -0.44549
 Alpha  occ. eigenvalues --   -0.44376  -0.44235  -0.44176  -0.44154  -0.44016
 Alpha  occ. eigenvalues --   -0.43823  -0.43652  -0.43617  -0.43513  -0.43445
 Alpha  occ. eigenvalues --   -0.43188  -0.43092  -0.42944  -0.42756  -0.42642
 Alpha  occ. eigenvalues --   -0.42554  -0.42376  -0.41992  -0.41862  -0.41688
 Alpha  occ. eigenvalues --   -0.41488  -0.41384  -0.41228  -0.41130  -0.41034
 Alpha  occ. eigenvalues --   -0.40851  -0.40696  -0.40663  -0.40537  -0.40465
 Alpha  occ. eigenvalues --   -0.40277  -0.40200  -0.39979  -0.38957  -0.38825
 Alpha  occ. eigenvalues --   -0.38152  -0.37849  -0.37576  -0.37396  -0.37355
 Alpha  occ. eigenvalues --   -0.37335  -0.36975  -0.36888  -0.36544  -0.36415
 Alpha  occ. eigenvalues --   -0.36010  -0.34421  -0.34100  -0.33825  -0.33586
 Alpha  occ. eigenvalues --   -0.33381  -0.32831  -0.31612  -0.31223  -0.30993
 Alpha  occ. eigenvalues --   -0.30746  -0.30603  -0.30113  -0.29622  -0.29504
 Alpha  occ. eigenvalues --   -0.29407  -0.28988  -0.28838  -0.24210  -0.23672
 Alpha  occ. eigenvalues --   -0.21271  -0.20758
 Alpha virt. eigenvalues --   -0.08903  -0.08439  -0.01930  -0.01361  -0.00078
 Alpha virt. eigenvalues --    0.00270   0.02042   0.02572   0.03449   0.04199
 Alpha virt. eigenvalues --    0.04533   0.05040   0.05057   0.05442   0.06104

 Mulliken charges:
               1
     1  Mg   0.762854
     2  C   -0.000783
     3  C   -0.092803
     4  C   -0.050552
     5  C   -0.063024
     6  N   -0.250845
     7  C   -0.053847
     8  C   -0.013774
     9  C   -0.086858
    10  C    0.045296
    11  C    0.104829
    12  C    0.053356
    13  C   -0.071732
    14  H    0.036052
    15  N   -0.429699
    16  C    0.170933
    17  C   -0.177529
    18  C   -0.002430
    19  C    0.150711
    20  C    0.110652
    21  C    0.018482
    22  O   -0.248525
    23  C    0.061574
    24  N   -0.331443
    25  C    0.034535
    26  C   -0.027814
    27  C   -0.031070
    28  C    0.072923
    29  C    0.079296
    30  C    0.123180
    31  C   -0.001353
    32  N   -0.305724
    33  C    0.072701
    34  C   -0.170963
    35  C    0.008183
    36  C    0.083050
    37  C    0.127816
    38  C    0.046246
    39  O   -0.187658
    40  C   -0.006605
    41  C    0.212889
    42  O   -0.256537
    43  O   -0.304883
    44  C    0.157427
    45  H   -0.017562
    46  H   -0.016172
    47  H   -0.043441
    48  H    0.001118
    49  H   -0.003973
    50  H    0.025754
    51  H    0.016629
    52  H    0.016894
    53  H    0.011413
    54  H    0.044697
    55  H    0.018034
    56  H    0.017679
    57  H    0.005326
    58  H    0.027222
    59  H    0.040734
    60  H    0.034854
    61  H    0.038712
    62  H    0.034721
    63  H    0.012738
    64  H    0.009369
    65  H    0.023551
    66  H    0.013946
    67  H    0.005298
    68  H   -0.000691
    69  H   -0.000639
    70  H    0.025830
    71  H    0.045547
    72  H    0.031062
    73  H    0.047287
    74  H    0.007683
    75  H    0.046671
    76  H    0.035507
    77  H    0.043411
    78  H    0.046129
    79  H    0.054330
    80  Mg   0.839118
    81  C   -0.017178
    82  C   -0.088617
    83  C   -0.048277
    84  C   -0.067618
    85  N   -0.254503
    86  C   -0.048894
    87  C   -0.015199
    88  C   -0.090510
    89  C    0.045609
    90  C    0.114761
    91  C    0.062648
    92  C   -0.077375
    93  H    0.034125
    94  N   -0.422743
    95  C    0.162126
    96  C   -0.176756
    97  C   -0.009084
    98  C    0.150520
    99  C    0.100376
   100  C    0.012976
   101  O   -0.252760
   102  C    0.061445
   103  N   -0.349820
   104  C    0.035238
   105  C    0.025545
   106  C   -0.048096
   107  C    0.107606
   108  C   -0.001270
   109  C   -0.021768
   110  C    0.021348
   111  N   -0.324998
   112  C    0.079515
   113  C   -0.159432
   114  C    0.002585
   115  C    0.097619
   116  C    0.131502
   117  C    0.043460
   118  O   -0.187548
   119  C    0.000606
   120  C    0.210976
   121  O   -0.251424
   122  O   -0.305543
   123  C    0.152257
   124  H   -0.021596
   125  H   -0.014973
   126  H   -0.039042
   127  H   -0.000913
   128  H   -0.005385
   129  H    0.023106
   130  H    0.014212
   131  H    0.014502
   132  H    0.013807
   133  H    0.037616
   134  H    0.020477
   135  H    0.019060
   136  H    0.007828
   137  H    0.023116
   138  H    0.038702
   139  H    0.035995
   140  H    0.035654
   141  H    0.034048
   142  H    0.009896
   143  H    0.022130
   144  H    0.050361
   145  H    0.041527
   146  H    0.045449
   147  H   -0.049617
   148  H   -0.012391
   149  H    0.005552
   150  H    0.007073
   151  H    0.017306
   152  H    0.044391
   153  H    0.007444
   154  H    0.054429
   155  H    0.035664
   156  H    0.043547
   157  H    0.049026
   158  H    0.053253
 Sum of Mulliken charges =  -0.00000

 Dipole moment (field-independent basis, Debye):
    X=              2.9909    Y=              3.9672    Z=             -7.2613  Tot=              8.7983
 Quadrupole moment (field-independent basis, Debye-Ang):
   XX=           -491.4443   YY=           -553.4253   ZZ=           -455.1853
   XY=            -25.9775   XZ=             29.0088   YZ=             -1.2273

 Normal termination of Gaussian 16 at Thu Sep  9 09:09:15 2021.
