 Gaussian 16, Revision A.03,
 Gaussian 16:  ES64L-G16RevA.03 25-Dec-2016

 -----------------------------------
 #p cam-b3lyp/Def2SVP td=(nstates=5)
 -----------------------------------

 --------------------------------
 TDDFT excited states in gaussian
 --------------------------------
 Symbolic Z-matrix:
 Charge =  0 Multiplicity = 1

                         Standard orientation:
 ---------------------------------------------------------------------
 Center     Atomic      Atomic             Coordinates (Angstroms)
 Number     Number       Type             X           Y           Z
 ---------------------------------------------------------------------
      1         12           0       -6.477735   -0.887254    0.022080
      2          6           0       -6.744857    2.673663    0.268510
      3          6           0       -7.329441   -0.574445   -3.267268
      4          6           0       -6.692567   -4.048404   -0.110583
      5          6           0       -6.767708   -1.001418    3.493181
      6          7           0       -6.950896    0.879104   -1.225616
      7          6           0       -6.959373    2.193240   -1.025253
      8          6           0       -7.142935    3.016726   -2.335043
      9          6           0       -7.868720    1.912402   -3.227064
     10          6           0       -7.324169    0.662979   -2.557489
     11          6           0       -9.387833    1.920621   -3.090207
     12          6           0       -5.774931    3.450550   -2.961215
     13          6           0       -5.865681    4.524212   -4.049501
     14          1           0       -4.806389    5.517401   -4.143446
     15          7           0       -6.462450   -2.108385   -1.530807
     16          6           0       -6.825874   -1.808032   -2.800845
     17          6           0       -6.637563   -3.048829   -3.582921
     18          6           0       -6.316324   -4.144834   -2.627059
     19          6           0       -6.505815   -3.474643   -1.365982
     20          6           0       -6.717935   -3.099395   -5.077824
     21          6           0       -5.914186   -5.572898   -2.819541
     22          8           0       -5.908574   -6.413675   -1.856402
     23          6           0       -5.608040   -5.988787   -4.200248
     24          7           0       -6.918190   -2.341927    1.453010
     25          6           0       -6.887271   -3.643406    1.146125
     26          6           0       -6.954789   -4.496611    2.377961
     27          6           0       -6.793113   -3.500232    3.615233
     28          6           0       -6.739658   -2.163023    2.835948
     29          6           0       -8.237578   -5.321498    2.551245
     30          6           0       -5.660035   -3.811192    4.625113
     31          6           0       -4.314513   -3.616708    3.962659
     32          7           0       -6.537294    0.561119    1.637540
     33          6           0       -6.685350    0.292288    3.005927
     34          6           0       -6.778454    1.592984    3.694106
     35          6           0       -6.694190    2.534000    2.669785
     36          6           0       -6.583522    1.863235    1.418339
     37          6           0       -6.979531    1.785010    5.089502
     38          6           0       -6.696673    3.949799    2.339082
     39          8           0       -6.671373    4.993190    2.993443
     40          6           0       -6.852174    4.095460    0.760973
     41          6           0       -5.818072    5.082148    0.291518
     42          8           0       -4.601232    4.812812    0.355740
     43          8           0       -6.423583    6.078663   -0.372452
     44          6           0       -5.450906    7.077349   -0.890795
     45          1           0       -7.814833   -0.620557   -4.244105
     46          1           0       -6.661464   -5.139891   -0.099304
     47          1           0       -6.774414   -0.957192    4.583801
     48          1           0       -7.782760    3.893638   -2.234671
     49          1           0       -7.548202    1.954897   -4.267825
     50          1           0       -9.713214    2.600040   -2.302528
     51          1           0       -9.663615    0.894588   -2.845885
     52          1           0       -9.861838    2.138409   -4.047633
     53          1           0       -5.370396    2.625649   -3.547688
     54          1           0       -5.083112    3.780941   -2.185616
     55          1           0       -6.843326    5.007028   -4.052527
     56          1           0       -5.803359    4.032554   -5.020371
     57          1           0       -7.131313   -2.178857   -5.488035
     58          1           0       -7.452284   -3.863642   -5.331532
     59          1           0       -5.758341   -3.346360   -5.532267
     60          1           0       -6.482025   -5.818959   -4.829420
     61          1           0       -5.253692   -7.016783   -4.133077
     62          1           0       -4.817583   -5.349506   -4.594516
     63          1           0       -6.143113   -5.222762    2.395674
     64          1           0       -7.693196   -3.461147    4.229233
     65          1           0       -8.059399   -6.392544    2.650320
     66          1           0       -8.890887   -5.110363    1.705136
     67          1           0       -8.864876   -5.020354    3.389831
     68          1           0       -5.712502   -4.851180    4.945455
     69          1           0       -5.696034   -3.186916    5.517993
     70          1           0       -4.156505   -4.564656    3.449571
     71          1           0       -3.542164   -3.445561    4.713257
     72          1           0       -4.354399   -2.837025    3.201745
     73          1           0       -6.297514    2.580578    5.389323
     74          1           0       -6.788340    0.868334    5.646955
     75          1           0       -8.031061    2.071220    5.104487
     76          1           0       -7.866855    4.447229    0.577116
     77          1           0       -5.751639    8.050201   -0.501752
     78          1           0       -5.424665    6.951424   -1.973319
     79          1           0       -4.434058    7.006074   -0.503135
     80         12           0        6.756914   -0.651523    0.133283
     81          6           0        6.022812    2.856876    0.310238
     82          6           0        6.359176   -0.412078   -3.245932
     83          6           0        6.953874   -3.814886   -0.014181
     84          6           0        5.976462   -0.844325    3.524364
     85          7           0        6.256869    1.056249   -1.180396
     86          6           0        6.060392    2.354614   -1.007240
     87          6           0        5.974806    3.173313   -2.323281
     88          6           0        5.520906    1.992216   -3.312143
     89          6           0        6.109384    0.801895   -2.557488
     90          6           0        4.013489    1.813903   -3.384577
     91          6           0        7.361669    3.774159   -2.744708
     92          6           0        7.295004    4.835880   -3.844734
     93          1           0        8.234545    5.952561   -3.792138
     94          7           0        7.151017   -1.843467   -1.403762
     95          6           0        6.948917   -1.578698   -2.711560
     96          6           0        7.381274   -2.783041   -3.437367
     97          6           0        7.700661   -3.841629   -2.441328
     98          6           0        7.251197   -3.200453   -1.221911
     99          6           0        7.534470   -2.822344   -4.930156
    100          6           0        8.298379   -5.210224   -2.567289
    101          8           0        8.265618   -6.050888   -1.600310
    102          6           0        8.839980   -5.570260   -3.885820
    103          7           0        6.300297   -2.157511    1.491894
    104          6           0        6.529655   -3.448817    1.195502
    105          6           0        6.384425   -4.323216    2.418091
    106          6           0        6.246318   -3.316068    3.652662
    107          6           0        6.246056   -1.975058    2.886461
    108          6           0        5.196390   -5.284932    2.410824
    109          6           0        7.249444   -3.497569    4.824604
    110          6           0        8.646780   -3.146234    4.366999
    111          7           0        6.294463    0.756554    1.705388
    112          6           0        5.973658    0.460592    3.048369
    113          6           0        5.624351    1.737464    3.704104
    114          6           0        5.744835    2.692243    2.683134
    115          6           0        6.121646    2.052633    1.471346
    116          6           0        5.210274    1.891773    5.057192
    117          6           0        5.628609    4.094312    2.352392
    118          8           0        5.424933    5.124193    2.993950
    119          6           0        5.680437    4.246490    0.771079
    120          6           0        6.646374    5.351619    0.442214
    121          8           0        7.857378    5.229335    0.697395
    122          8           0        6.020794    6.273732   -0.311919
    123          6           0        6.941091    7.384816   -0.672987
    124          1           0        6.035267   -0.496151   -4.283670
    125          1           0        7.113733   -4.895137    0.017186
    126          1           0        5.816910   -0.806949    4.604091
    127          1           0        5.231832    3.961835   -2.320232
    128          1           0        5.987686    2.093232   -4.288501
    129          1           0        3.499334    2.435156   -2.666362
    130          1           0        3.830849    0.767299   -3.178862
    131          1           0        3.662184    1.986065   -4.405983
    132          1           0        7.943572    3.001857   -3.264012
    133          1           0        7.880729    4.168530   -1.892846
    134          1           0        6.273019    5.200702   -4.004097
    135          1           0        7.563924    4.368335   -4.795048
    136          1           0        7.069050   -1.950031   -5.405391
    137          1           0        6.946275   -3.673616   -5.289647
    138          1           0        8.572450   -2.952362   -5.243779
    139          1           0        8.052798   -5.495383   -4.632278
    140          1           0        9.302875   -6.550164   -3.753952
    141          1           0        9.605949   -4.836845   -4.161547
    142          1           0        7.265514   -4.936526    2.561772
    143          1           0        5.263420   -3.400223    4.139156
    144          1           0        5.490778   -6.343309    2.542142
    145          1           0        4.656009   -5.152876    1.482879
    146          1           0        4.430082   -5.077915    3.155892
    147          1           0        7.279585   -4.543789    5.138730
    148          1           0        7.003011   -2.905564    5.699701
    149          1           0        8.987296   -4.067245    3.884428
    150          1           0        9.275478   -2.890561    5.217535
    151          1           0        8.624689   -2.361786    3.601621
    152          1           0        5.733523    2.755032    5.446397
    153          1           0        5.423291    0.999597    5.642366
    154          1           0        4.136782    2.043775    4.916520
    155          1           0        4.669151    4.471798    0.430335
    156          1           0        6.467337    8.313258   -0.339469
    157          1           0        7.128921    7.276589   -1.757778
    158          1           0        7.892494    7.435474   -0.156546
 ---------------------------------------------------------------------

 SCF Done:  E(RCAM-B3LYP) =  -4069.81151396     A.U. after   19 cycles

 Excitation energies and oscillator strengths:

 Excited State   1:      Singlet-A      1.6653 eV  744.50 nm  f=0.0137  <S**2>=0.000
     309 -> 315       -0.11082
     310 -> 316        0.13067
     311 -> 313       -0.44254
     312 -> 314        0.52498
 This state for optimization and/or second-order correction.
 Total Energy, E(TD-HF/TD-DFT) =  -4069.75031396
 Copying the excited state density for this state as the 1-particle RhoCI density.

 Excited State   2:      Singlet-A      1.6896 eV  733.82 nm  f=0.7304  <S**2>=0.000
     309 -> 315        0.13614
     310 -> 316        0.11408
     311 -> 313        0.52377
     312 -> 314        0.44162

 Excited State   3:      Singlet-A      2.1847 eV  567.51 nm  f=0.0375  <S**2>=0.000
     309 -> 313       -0.21079
     310 -> 314        0.60753
     312 -> 316       -0.25716

 Excited State   4:      Singlet-A      2.1933 eV  565.27 nm  f=0.1510  <S**2>=0.000
     309 -> 313        0.60512
     310 -> 314        0.20900
     311 -> 315       -0.26376

 Excited State   5:      Singlet-A      2.6537 eV  467.21 nm  f=0.0000  <S**2>=0.000
     312 -> 313        0.70710

 The electronic state is 1-A.
 Alpha  occ. eigenvalues --  -46.87824 -46.87543 -19.26278 -19.26216 -19.19030
 Alpha  occ. eigenvalues --  -19.19014 -19.18847 -19.18619 -19.18172 -19.17898
 Alpha  occ. eigenvalues --  -14.42479 -14.42382 -14.41477 -14.41242 -14.39431
 Alpha  occ. eigenvalues --  -14.39237 -14.38610 -14.38476 -10.39076 -10.38957
 Alpha  occ. eigenvalues --  -10.35481 -10.35299 -10.34392 -10.34075 -10.31668
 Alpha  occ. eigenvalues --  -10.31637 -10.31431 -10.31186 -10.30941 -10.30912
 Alpha  occ. eigenvalues --  -10.30593 -10.30530 -10.30276 -10.30238 -10.30236
 Alpha  occ. eigenvalues --  -10.30036 -10.29942 -10.29772 -10.29655 -10.29326
 Alpha  occ. eigenvalues --  -10.29283 -10.29282 -10.28788 -10.28608 -10.28601
 Alpha  occ. eigenvalues --  -10.28577 -10.28390 -10.28284 -10.28153 -10.28031
 Alpha  occ. eigenvalues --  -10.27877 -10.27814 -10.27757 -10.27611 -10.27558
 Alpha  occ. eigenvalues --  -10.27529 -10.27528 -10.27475 -10.27428 -10.27417
 Alpha  occ. eigenvalues --  -10.27389 -10.27362 -10.27352 -10.27271 -10.27166
 Alpha  occ. eigenvalues --  -10.26897 -10.26759 -10.26599 -10.26454 -10.26345
 Alpha  occ. eigenvalues --  -10.26265 -10.26216 -10.26049 -10.26046 -10.25906
 Alpha  occ. eigenvalues --  -10.25843 -10.25819 -10.25692 -10.25457 -10.25293
 Alpha  occ. eigenvalues --  -10.24851 -10.24813 -10.24743 -10.24727 -10.24646
 Alpha  occ. eigenvalues --  -10.24573  -3.16567  -3.16293  -1.91449  -1.91175
 Alpha  occ. eigenvalues --   -1.91035  -1.90877  -1.90764  -1.90601  -1.16627
 Alpha  occ. eigenvalues --   -1.16511  -1.08627  -1.08502  -1.07248  -1.06873
 Alpha  occ. eigenvalues --   -1.06814  -1.06636  -1.04610  -1.04378  -1.03788
 Alpha  occ. eigenvalues --   -1.03546  -1.03259  -1.02921  -1.02437  -1.01992
 Alpha  occ. eigenvalues --   -0.91992  -0.91858  -0.89547  -0.89384  -0.89225
 Alpha  occ. eigenvalues --   -0.89042  -0.88314  -0.88113  -0.87886  -0.87704
 Alpha  occ. eigenvalues --   -0.87659  -0.87571  -0.87307  -0.87021  -0.85017
 Alpha  occ. eigenvalues --   -0.84892  -0.83962  -0.83770  -0.83002  -0.82840
 Alpha  occ. eigenvalues --   -0.82679  -0.82547  -0.81598  -0.81473  -0.80618
 Alpha  occ. eigenvalues --   -0.80326  -0.78826  -0.78525  -0.77248  -0.77036
 Alpha  occ. eigenvalues --   -0.76962  -0.76787  -0.75946  -0.75721  -0.74922
 Alpha  occ. eigenvalues --   -0.74692  -0.72798  -0.72579  -0.71697  -0.71464
 Alpha  occ. eigenvalues --   -0.69937  -0.69658  -0.68906  -0.68719  -0.67665
 Alpha  occ. eigenvalues --   -0.67486  -0.67261  -0.67102  -0.65318  -0.65158
 Alpha  occ. eigenvalues --   -0.64875  -0.64654  -0.64645  -0.64539  -0.64296
 Alpha  occ. eigenvalues --   -0.64095  -0.62306  -0.62155  -0.60473  -0.60235
 Alpha  occ. eigenvalues --   -0.59836  -0.59682  -0.59011  -0.58875  -0.58526
 Alpha  occ. eigenvalues --   -0.58306  -0.57594  -0.57416  -0.57331  -0.57122
 Alpha  occ. eigenvalues --   -0.56333  -0.56087  -0.55990  -0.55768  -0.55547
 Alpha  occ. eigenvalues --   -0.55358  -0.55342  -0.55132  -0.54538  -0.54373
 Alpha  occ. eigenvalues --   -0.53931  -0.53805  -0.53325  -0.53252  -0.53116
 Alpha  occ. eigenvalues --   -0.53031  -0.52933  -0.52793  -0.52789  -0.52575
 Alpha  occ. eigenvalues --   -0.52467  -0.52303  -0.51923  -0.51738  -0.51651
 Alpha  occ. eigenvalues --   -0.51554  -0.51215  -0.51078  -0.50613  -0.50389
 Alpha  occ. eigenvalues --   -0.50062  -0.49952  -0.49876  -0.49763  -0.49546
 Alpha  occ. eigenvalues --   -0.49383  -0.49235  -0.49124  -0.49084  -0.48982
 Alpha  occ. eigenvalues --   -0.48610  -0.48489  -0.48464  -0.48438  -0.48264
 Alpha  occ. eigenvalues --   -0.48232  -0.47724  -0.47488  -0.47323  -0.47013
 Alpha  occ. eigenvalues --   -0.46824  -0.46598  -0.46590  -0.46449  -0.46383
 Alpha  occ. eigenvalues --   -0.46180  -0.46158  -0.45963  -0.45833  -0.45692
 Alpha  occ. eigenvalues --   -0.45227  -0.45099  -0.44592  -0.44542  -0.44396
 Alpha  occ. eigenvalues --   -0.44365  -0.44172  -0.44122  -0.44039  -0.44012
 Alpha  occ. eigenvalues --   -0.43972  -0.43827  -0.43506  -0.43434  -0.43417
 Alpha  occ. eigenvalues --   -0.43271  -0.43049  -0.42810  -0.42773  -0.42715
 Alpha  occ. eigenvalues --   -0.42668  -0.42450  -0.42038  -0.41859  -0.41725
 Alpha  occ. eigenvalues --   -0.41570  -0.41541  -0.41354  -0.41168  -0.40905
 Alpha  occ. eigenvalues --   -0.40874  -0.40860  -0.40627  -0.40599  -0.40598
 Alpha  occ. eigenvalues --   -0.40385  -0.40282  -0.40132  -0.39474  -0.39328
 Alpha  occ. eigenvalues --   -0.38499  -0.38245  -0.37790  -0.37554  -0.37349
 Alpha  occ. eigenvalues --   -0.37297  -0.37157  -0.37088  -0.36719  -0.36647
 Alpha  occ. eigenvalues --   -0.36210  -0.36103  -0.34311  -0.34134  -0.33770
 Alpha  occ. eigenvalues --   -0.33734  -0.33209  -0.33057  -0.31376  -0.31178
 Alpha  occ. eigenvalues --   -0.31061  -0.30856  -0.30031  -0.29801  -0.29476
 Alpha  occ. eigenvalues --   -0.29341  -0.29214  -0.29080  -0.24106  -0.23916
 Alpha  occ. eigenvalues --   -0.21154  -0.21000
 Alpha virt. eigenvalues --   -0.08800  -0.08673  -0.01777  -0.01570  -0.00087
 Alpha virt. eigenvalues --    0.00080   0.02186   0.02343   0.03087   0.03333
 Alpha virt. eigenvalues --    0.04684   0.04841   0.05099   0.05299   0.06133

 Mulliken charges:
               1
     1  Mg   0.838593
     2  C   -0.002955
     3  C   -0.094403
     4  C   -0.045861
     5  C   -0.063940
     6  N   -0.256737
     7  C   -0.052524
     8  C   -0.013952
     9  C   -0.086945
    10  C    0.046188
    11  C    0.104814
    12  C    0.053581
    13  C   -0.071592
    14  H    0.035740
    15  N   -0.433116
    16  C    0.168273
    17  C   -0.177396
    18  C   -0.004086
    19  C    0.148626
    20  C    0.110243
    21  C    0.012215
    22  O   -0.249551
    23  C    0.062557
    24  N   -0.341151
    25  C    0.041192
    26  C   -0.028192
    27  C   -0.023985
    28  C    0.074871
    29  C    0.076142
    30  C    0.035108
    31  C   -0.004468
    32  N   -0.310555
    33  C    0.080510
    34  C   -0.169447
    35  C    0.008595
    36  C    0.083056
    37  C    0.127216
    38  C    0.046449
    39  O   -0.187731
    40  C   -0.005460
    41  C    0.213028
    42  O   -0.256870
    43  O   -0.304893
    44  C    0.157477
    45  H   -0.017739
    46  H   -0.016831
    47  H   -0.041346
    48  H    0.001109
    49  H   -0.004347
    50  H    0.025597
    51  H    0.016508
    52  H    0.016581
    53  H    0.010680
    54  H    0.044212
    55  H    0.018142
    56  H    0.017538
    57  H    0.005693
    58  H    0.026850
    59  H    0.038994
    60  H    0.037328
    61  H    0.035710
    62  H    0.031086
    63  H    0.016504
    64  H    0.009579
    65  H    0.023234
    66  H    0.012574
    67  H    0.004814
    68  H    0.006369
    69  H    0.004843
    70  H    0.008728
    71  H    0.017841
    72  H    0.029058
    73  H    0.048140
    74  H    0.009116
    75  H    0.046109
    76  H    0.035195
    77  H    0.043296
    78  H    0.045945
    79  H    0.054227
    80  Mg   0.837934
    81  C   -0.016639
    82  C   -0.087906
    83  C   -0.045589
    84  C   -0.064751
    85  N   -0.254506
    86  C   -0.049511
    87  C   -0.015123
    88  C   -0.090600
    89  C    0.045802
    90  C    0.114320
    91  C    0.062587
    92  C   -0.077643
    93  H    0.034599
    94  N   -0.423427
    95  C    0.162774
    96  C   -0.174982
    97  C   -0.008014
    98  C    0.151999
    99  C    0.099550
   100  C    0.015367
   101  O   -0.253398
   102  C    0.061290
   103  N   -0.350035
   104  C    0.037495
   105  C   -0.019805
   106  C   -0.034815
   107  C    0.089094
   108  C    0.073693
   109  C    0.034741
   110  C   -0.007613
   111  N   -0.324291
   112  C    0.078713
   113  C   -0.162734
   114  C    0.002858
   115  C    0.096161
   116  C    0.131309
   117  C    0.043150
   118  O   -0.186951
   119  C    0.000616
   120  C    0.211150
   121  O   -0.251366
   122  O   -0.305291
   123  C    0.152141
   124  H   -0.020288
   125  H   -0.015792
   126  H   -0.040418
   127  H   -0.000198
   128  H   -0.004897
   129  H    0.023874
   130  H    0.014345
   131  H    0.015288
   132  H    0.013709
   133  H    0.037706
   134  H    0.020754
   135  H    0.019193
   136  H    0.008346
   137  H    0.025597
   138  H    0.039428
   139  H    0.037973
   140  H    0.036114
   141  H    0.033749
   142  H    0.014155
   143  H    0.012471
   144  H    0.024876
   145  H    0.011873
   146  H    0.005630
   147  H    0.006037
   148  H    0.003627
   149  H    0.010805
   150  H    0.017763
   151  H    0.030193
   152  H    0.045985
   153  H    0.008109
   154  H    0.048521
   155  H    0.036601
   156  H    0.044065
   157  H    0.049090
   158  H    0.053363
 Sum of Mulliken charges =  -0.00000

 Dipole moment (field-independent basis, Debye):
    X=             -3.2531    Y=             -2.4263    Z=             -7.8218  Tot=              8.8119
 Quadrupole moment (field-independent basis, Debye-Ang):
   XX=           -508.2281   YY=           -550.8847   ZZ=           -448.8167
   XY=              1.0469   XZ=             -2.7343   YZ=            -49.6260

 Normal termination of Gaussian 16 at Sat Sep 11 14:48:24 2021.
