 Gaussian 16, Revision A.03,
 Gaussian 16:  ES64L-G16RevA.03 25-Dec-2016

 -----------------------------------
 #p cam-b3lyp/Def2SVP td=(nstates=5)
 -----------------------------------

 --------------------------------
 TDDFT excited states in gaussian
 --------------------------------
 Symbolic Z-matrix:
 Charge =  0 Multiplicity = 1

                         Standard orientation:
 ---------------------------------------------------------------------
 Center     Atomic      Atomic             Coordinates (Angstroms)
 Number     Number       Type             X           Y           Z
 ---------------------------------------------------------------------
      1         12           0       -4.168390   -1.089024    0.082659
      2          6           0       -4.641880    1.872311    2.036763
      3          6           0       -5.280324    0.688734   -2.609225
      4          6           0       -4.191461   -3.800705   -1.561383
      5          6           0       -4.191769   -2.885564    3.068888
      6          7           0       -4.844097    1.008022   -0.132896
      7          6           0       -4.921032    2.056474    0.680738
      8          6           0       -5.253310    3.387921   -0.056971
      9          6           0       -5.971838    2.788041   -1.347653
     10          6           0       -5.300850    1.426410   -1.388387
     11          6           0       -7.474031    2.590309   -1.172095
     12          6           0       -3.965917    4.192675   -0.440012
     13          6           0       -4.205241    5.644119   -0.865910
     14          1           0       -3.221024    6.652132   -0.501804
     15          7           0       -4.191096   -1.404867   -1.867361
     16          6           0       -4.666226   -0.565076   -2.818302
     17          6           0       -4.458202   -1.253181   -4.110555
     18          6           0       -3.997917   -2.639279   -3.819067
     19          6           0       -4.135308   -2.679250   -2.385573
     20          6           0       -4.646078   -0.585195   -5.438052
     21          6           0       -3.521389   -3.754815   -4.694642
     22          8           0       -3.390874   -4.950796   -4.262010
     23          6           0       -3.292928   -3.424896   -6.113092
     24          7           0       -4.408088   -3.086145    0.640950
     25          6           0       -4.317538   -4.070244   -0.260345
     26          6           0       -4.239045   -5.413064    0.403442
     27          6           0       -4.049419   -5.125071    1.962562
     28          6           0       -4.138987   -3.579379    1.929633
     29          6           0       -5.450473   -6.332991    0.198041
     30          6           0       -2.826980   -5.778467    2.654760
     31          6           0       -1.549471   -5.166964    2.124541
     32          7           0       -4.199515   -0.609239    2.199233
     33          6           0       -4.228109   -1.515693    3.268904
     34          6           0       -4.352161   -0.721466    4.504980
     35          6           0       -4.404137    0.599572    4.064523
     36          6           0       -4.344438    0.627195    2.641862
     37          6           0       -4.460759   -1.243999    5.823919
     38          6           0       -4.521025    1.992778    4.463488
     39          8           0       -4.513425    2.589800    5.540985
     40          6           0       -4.802306    2.865000    3.161207
     41          6           0       -3.870652    4.045757    3.195038
     42          8           0       -2.637773    3.891414    3.078623
     43          8           0       -4.585843    5.178628    3.119905
     44          6           0       -3.719716    6.387750    3.118968
     45          1           0       -5.833062    1.074213   -3.468194
     46          1           0       -4.090407   -4.754835   -2.082786
     47          1           0       -4.120197   -3.372485    4.043176
     48          1           0       -5.938258    4.045542    0.478571
     49          1           0       -5.732896    3.355291   -2.247018
     50          1           0       -7.782429    2.773769   -0.142943
     51          1           0       -7.665228    1.553002   -1.447649
     52          1           0       -8.030740    3.197556   -1.886311
     53          1           0       -3.554559    3.792799   -1.366805
     54          1           0       -3.240734    4.170766    0.374209
     55          1           0       -5.209068    5.977012   -0.600540
     56          1           0       -4.184171    5.688432   -1.954851
     57          1           0       -5.146376    0.376903   -5.335032
     58          1           0       -5.347270   -1.196571   -6.005729
     59          1           0       -3.709178   -0.493971   -5.987805
     60          1           0       -4.220265   -3.054042   -6.550198
     61          1           0       -2.870052   -4.320989   -6.565909
     62          1           0       -2.576121   -2.605489   -6.173998
     63          1           0       -3.383860   -5.980353    0.038385
     64          1           0       -4.902043   -5.468864    2.548660
     65          1           0       -5.197820   -7.298093   -0.241788
     66          1           0       -6.176933   -5.801527   -0.416038
     67          1           0       -6.031557   -6.531439    1.098250
     68          1           0       -2.789397   -6.844086    2.431178
     69          1           0       -2.836064   -5.667223    3.739100
     70          1           0       -1.370198   -5.731990    1.210518
     71          1           0       -0.735897   -5.308298    2.836814
     72          1           0       -1.695190   -4.124703    1.840035
     73          1           0       -3.810208   -0.632298    6.448878
     74          1           0       -4.170886   -2.293926    5.858989
     75          1           0       -5.524304   -1.097934    6.012050
     76          1           0       -5.848115    3.167284    3.206247
     77          1           0       -4.051830    7.021122    3.941631
     78          1           0       -3.766060    6.801338    2.111395
     79          1           0       -2.674402    6.232116    3.388110
     80         12           0        4.779078   -0.158525   -0.072630
     81          6           0        2.251250    1.953277   -1.497187
     82          6           0        6.994707    2.376055   -0.621707
     83          6           0        7.107748   -2.147516    0.757219
     84          6           0        2.668526   -2.863236   -0.685642
     85          7           0        4.534265    1.856255   -0.951803
     86          6           0        3.514982    2.572401   -1.401859
     87          6           0        3.852985    4.058784   -1.695087
     88          6           0        5.433690    3.903687   -1.932169
     89          6           0        5.685802    2.654837   -1.089857
     90          6           0        5.798046    3.589192   -3.373578
     91          6           0        3.544399    4.994131   -0.473659
     92          6           0        3.557733    6.491181   -0.790566
     93          1           0        2.609908    7.358145   -0.095977
     94          7           0        6.641128    0.213542    0.504345
     95          6           0        7.382115    1.302334    0.209779
     96          6           0        8.687291    1.086886    0.853396
     97          6           0        8.712214   -0.291625    1.413579
     98          6           0        7.468629   -0.813978    0.883743
     99          6           0        9.728423    2.162834    0.962159
    100          6           0        9.698961   -1.023362    2.272119
    101          8           0        9.632671   -2.291982    2.442494
    102          6           0       10.799554   -0.225286    2.831804
    103          7           0        4.968152   -2.226688   -0.169154
    104          6           0        6.063531   -2.843759    0.307597
    105          6           0        5.858477   -4.337955    0.383179
    106          6           0        4.305270   -4.574121    0.084274
    107          6           0        3.880777   -3.119264   -0.213342
    108          6           0        6.695592   -5.174095   -0.584556
    109          6           0        3.499382   -5.377689    1.141388
    110          6           0        3.392074   -4.582341    2.422519
    111          7           0        2.747472   -0.421738   -0.759188
    112          6           0        2.069372   -1.642514   -0.968864
    113          6           0        0.750699   -1.314117   -1.548246
    114          6           0        0.762214    0.084585   -1.657700
    115          6           0        2.008442    0.590598   -1.199027
    116          6           0       -0.243238   -2.254622   -1.940242
    117          6           0        0.007583    1.247268   -2.066855
    118          8           0       -1.143615    1.443613   -2.454067
    119          6           0        0.986245    2.499284   -2.099082
    120          6           0        0.307120    3.638096   -1.388868
    121          8           0        0.067147    3.569990   -0.170512
    122          8           0        0.250111    4.700098   -2.213047
    123          6           0       -0.405322    5.858668   -1.549769
    124          1           0        7.812346    3.015371   -0.955797
    125          1           0        7.834937   -2.870546    1.133921
    126          1           0        1.915172   -3.643444   -0.813822
    127          1           0        3.382090    4.465272   -2.582104
    128          1           0        5.978889    4.752670   -1.527990
    129          1           0        4.923235    3.404544   -3.979179
    130          1           0        6.423324    2.706897   -3.333151
    131          1           0        6.425459    4.384579   -3.785950
    132          1           0        4.380752    4.944744    0.235443
    133          1           0        2.610200    4.729616   -0.017666
    134          1           0        3.535351    6.684217   -1.870003
    135          1           0        4.514135    6.906549   -0.463796
    136          1           0        9.494104    3.016290    0.314009
    137          1           0       10.655911    1.753397    0.547443
    138          1           0        9.908771    2.471677    1.994026
    139          1           0       11.360263    0.234868    2.021670
    140          1           0       11.348185   -0.903724    3.488011
    141          1           0       10.373073    0.592409    3.423498
    142          1           0        6.086060   -4.709877    1.374629
    143          1           0        4.150938   -5.142760   -0.844537
    144          1           0        7.321383   -5.932514   -0.077351
    145          1           0        7.310417   -4.504086   -1.170744
    146          1           0        6.128338   -5.698032   -1.351978
    147          1           0        4.022977   -6.303124    1.393536
    148          1           0        2.503631   -5.651390    0.808891
    149          1           0        4.338860   -4.797787    2.926770
    150          1           0        2.543864   -4.921232    3.013901
    151          1           0        3.365809   -3.505995    2.216499
    152          1           0       -1.191740   -1.869194   -1.590539
    153          1           0       -0.039433   -3.242103   -1.531454
    154          1           0       -0.120707   -2.226646   -3.026278
    155          1           0        1.187225    2.731142   -3.145716
    156          1           0       -1.237762    6.164879   -2.190837
    157          1           0        0.398434    6.599491   -1.379701
    158          1           0       -0.916736    5.675836   -0.611965
 ---------------------------------------------------------------------

 SCF Done:  E(RCAM-B3LYP) =  -4069.81391818     A.U. after   18 cycles

 Excitation energies and oscillator strengths:

 Excited State   1:      Singlet-A      1.6473 eV  752.64 nm  f=0.3084  <S**2>=0.000
     309 -> 315        0.12846
     310 -> 316        0.10348
     311 -> 313        0.52768
     312 -> 314        0.44078
 This state for optimization and/or second-order correction.
 Total Energy, E(TD-HF/TD-DFT) =  -4069.75338008
 Copying the excited state density for this state as the 1-particle RhoCI density.

 Excited State   2:      Singlet-A      1.6931 eV  732.28 nm  f=0.4792  <S**2>=0.000
     309 -> 315       -0.11365
     310 -> 316        0.13526
     311 -> 313       -0.43889
     312 -> 314        0.52558

 Excited State   3:      Singlet-A      2.1558 eV  575.11 nm  f=0.0005  <S**2>=0.000
     312 -> 313        0.70283

 Excited State   4:      Singlet-A      2.1714 eV  570.99 nm  f=0.0029  <S**2>=0.000
     309 -> 313        0.49483
     310 -> 314       -0.41640
     311 -> 315       -0.20201
     312 -> 316        0.16686

 Excited State   5:      Singlet-A      2.1920 eV  565.61 nm  f=0.1649  <S**2>=0.000
     309 -> 313        0.41005
     310 -> 314        0.48926
     311 -> 315       -0.17730
     312 -> 316       -0.21308

 The electronic state is 1-A.
 Alpha  occ. eigenvalues --  -46.87610 -46.86989 -19.26344 -19.25599 -19.19073
 Alpha  occ. eigenvalues --  -19.18680 -19.18427 -19.18302 -19.18172 -19.17471
 Alpha  occ. eigenvalues --  -14.42447 -14.41623 -14.41317 -14.40749 -14.39314
 Alpha  occ. eigenvalues --  -14.38634 -14.38565 -14.37816 -10.38997 -10.38250
 Alpha  occ. eigenvalues --  -10.35356 -10.34944 -10.34452 -10.33685 -10.31731
 Alpha  occ. eigenvalues --  -10.31293 -10.31183 -10.30983 -10.30590 -10.30372
 Alpha  occ. eigenvalues --  -10.30348 -10.30085 -10.30067 -10.29862 -10.29838
 Alpha  occ. eigenvalues --  -10.29792 -10.29546 -10.29384 -10.29376 -10.29320
 Alpha  occ. eigenvalues --  -10.28968 -10.28680 -10.28592 -10.28504 -10.28390
 Alpha  occ. eigenvalues --  -10.28280 -10.28117 -10.27989 -10.27988 -10.27633
 Alpha  occ. eigenvalues --  -10.27568 -10.27449 -10.27446 -10.27432 -10.27432
 Alpha  occ. eigenvalues --  -10.27355 -10.27312 -10.27135 -10.27082 -10.27045
 Alpha  occ. eigenvalues --  -10.27042 -10.26915 -10.26904 -10.26766 -10.26649
 Alpha  occ. eigenvalues --  -10.26588 -10.26428 -10.26369 -10.26038 -10.26030
 Alpha  occ. eigenvalues --  -10.25975 -10.25950 -10.25859 -10.25767 -10.25740
 Alpha  occ. eigenvalues --  -10.25603 -10.25341 -10.25330 -10.25258 -10.25067
 Alpha  occ. eigenvalues --  -10.24889 -10.24661 -10.24635 -10.24621 -10.24137
 Alpha  occ. eigenvalues --  -10.24093  -3.16359  -3.15729  -1.91240  -1.90829
 Alpha  occ. eigenvalues --   -1.90667  -1.90611  -1.90197  -1.90041  -1.16619
 Alpha  occ. eigenvalues --   -1.15921  -1.08936  -1.07931  -1.06931  -1.06866
 Alpha  occ. eigenvalues --   -1.06720  -1.05819  -1.04458  -1.03769  -1.03626
 Alpha  occ. eigenvalues --   -1.03045  -1.03001  -1.02490  -1.02079  -1.01671
 Alpha  occ. eigenvalues --   -0.91988  -0.91222  -0.89442  -0.89114  -0.89006
 Alpha  occ. eigenvalues --   -0.88435  -0.88161  -0.87770  -0.87744  -0.87636
 Alpha  occ. eigenvalues --   -0.87180  -0.87089  -0.86916  -0.86613  -0.84958
 Alpha  occ. eigenvalues --   -0.84318  -0.83817  -0.83501  -0.82889  -0.82619
 Alpha  occ. eigenvalues --   -0.82434  -0.82017  -0.81579  -0.80943  -0.80416
 Alpha  occ. eigenvalues --   -0.79926  -0.78601  -0.78108  -0.77095  -0.76874
 Alpha  occ. eigenvalues --   -0.76652  -0.76345  -0.75821  -0.75269  -0.74760
 Alpha  occ. eigenvalues --   -0.74369  -0.72653  -0.72098  -0.71554  -0.71013
 Alpha  occ. eigenvalues --   -0.69683  -0.69524  -0.68796  -0.68226  -0.67583
 Alpha  occ. eigenvalues --   -0.67151  -0.66976  -0.66563  -0.65243  -0.64734
 Alpha  occ. eigenvalues --   -0.64623  -0.64567  -0.64180  -0.64154  -0.64004
 Alpha  occ. eigenvalues --   -0.63667  -0.62265  -0.61641  -0.60306  -0.59824
 Alpha  occ. eigenvalues --   -0.59762  -0.59059  -0.58959  -0.58405  -0.58316
 Alpha  occ. eigenvalues --   -0.57828  -0.57563  -0.57209  -0.56875  -0.56693
 Alpha  occ. eigenvalues --   -0.56159  -0.55877  -0.55642  -0.55424  -0.55329
 Alpha  occ. eigenvalues --   -0.55209  -0.54916  -0.54810  -0.54444  -0.53940
 Alpha  occ. eigenvalues --   -0.53871  -0.53194  -0.53175  -0.53098  -0.52842
 Alpha  occ. eigenvalues --   -0.52707  -0.52643  -0.52566  -0.52335  -0.52289
 Alpha  occ. eigenvalues --   -0.52163  -0.51984  -0.51857  -0.51619  -0.51269
 Alpha  occ. eigenvalues --   -0.51213  -0.50925  -0.50561  -0.50434  -0.49985
 Alpha  occ. eigenvalues --   -0.49944  -0.49830  -0.49565  -0.49450  -0.49296
 Alpha  occ. eigenvalues --   -0.49175  -0.49136  -0.48886  -0.48563  -0.48542
 Alpha  occ. eigenvalues --   -0.48454  -0.48373  -0.48308  -0.48005  -0.47871
 Alpha  occ. eigenvalues --   -0.47835  -0.47565  -0.47102  -0.47067  -0.46705
 Alpha  occ. eigenvalues --   -0.46620  -0.46515  -0.46239  -0.46183  -0.46025
 Alpha  occ. eigenvalues --   -0.45897  -0.45796  -0.45690  -0.45531  -0.45222
 Alpha  occ. eigenvalues --   -0.45147  -0.44708  -0.44505  -0.44418  -0.44144
 Alpha  occ. eigenvalues --   -0.44037  -0.44001  -0.43927  -0.43914  -0.43642
 Alpha  occ. eigenvalues --   -0.43548  -0.43414  -0.43368  -0.43337  -0.42910
 Alpha  occ. eigenvalues --   -0.42893  -0.42857  -0.42719  -0.42503  -0.42427
 Alpha  occ. eigenvalues --   -0.42212  -0.42014  -0.41924  -0.41714  -0.41468
 Alpha  occ. eigenvalues --   -0.41411  -0.41036  -0.40980  -0.40917  -0.40676
 Alpha  occ. eigenvalues --   -0.40648  -0.40512  -0.40436  -0.40325  -0.40268
 Alpha  occ. eigenvalues --   -0.40164  -0.40012  -0.39471  -0.39345  -0.39098
 Alpha  occ. eigenvalues --   -0.38289  -0.37963  -0.37598  -0.37213  -0.37172
 Alpha  occ. eigenvalues --   -0.37135  -0.36727  -0.36672  -0.36536  -0.36156
 Alpha  occ. eigenvalues --   -0.36024  -0.35509  -0.34213  -0.33737  -0.33547
 Alpha  occ. eigenvalues --   -0.33129  -0.32922  -0.32419  -0.31236  -0.30935
 Alpha  occ. eigenvalues --   -0.30831  -0.30304  -0.30201  -0.29333  -0.29322
 Alpha  occ. eigenvalues --   -0.29222  -0.28722  -0.28583  -0.23993  -0.23308
 Alpha  occ. eigenvalues --   -0.21084  -0.20379
 Alpha virt. eigenvalues --   -0.08778  -0.08031  -0.01639  -0.01061  -0.00026
 Alpha virt. eigenvalues --    0.00642   0.02109   0.02872   0.03342   0.04183
 Alpha virt. eigenvalues --    0.04767   0.05113   0.05224   0.05877   0.06154

 Mulliken charges:
               1
     1  Mg   0.824964
     2  C    0.004849
     3  C   -0.081790
     4  C   -0.051378
     5  C   -0.065940
     6  N   -0.255774
     7  C   -0.047649
     8  C   -0.014655
     9  C   -0.091109
    10  C    0.058067
    11  C    0.105386
    12  C    0.045046
    13  C   -0.076595
    14  H    0.021159
    15  N   -0.440636
    16  C    0.187373
    17  C   -0.175251
    18  C   -0.004765
    19  C    0.144356
    20  C    0.112683
    21  C    0.009572
    22  O   -0.253232
    23  C    0.062862
    24  N   -0.338368
    25  C    0.041974
    26  C   -0.027006
    27  C   -0.023293
    28  C    0.074655
    29  C    0.076749
    30  C    0.036045
    31  C   -0.008806
    32  N   -0.309796
    33  C    0.080722
    34  C   -0.171487
    35  C    0.007171
    36  C    0.083218
    37  C    0.127575
    38  C    0.046890
    39  O   -0.191028
    40  C   -0.007882
    41  C    0.210089
    42  O   -0.247938
    43  O   -0.306450
    44  C    0.159061
    45  H   -0.021052
    46  H   -0.020396
    47  H   -0.044425
    48  H   -0.002400
    49  H   -0.003834
    50  H    0.024256
    51  H    0.016001
    52  H    0.014325
    53  H    0.024276
    54  H    0.057506
    55  H    0.017245
    56  H    0.019326
    57  H    0.006379
    58  H    0.023337
    59  H    0.041089
    60  H    0.037326
    61  H    0.032774
    62  H    0.031714
    63  H    0.012677
    64  H    0.008668
    65  H    0.021234
    66  H    0.013244
    67  H    0.003846
    68  H    0.004434
    69  H    0.004751
    70  H    0.005032
    71  H    0.017328
    72  H    0.032854
    73  H    0.046355
    74  H    0.007229
    75  H    0.044356
    76  H    0.032956
    77  H    0.040655
    78  H    0.043078
    79  H    0.054235
    80  Mg   0.840537
    81  C   -0.015133
    82  C   -0.087941
    83  C   -0.045285
    84  C   -0.065184
    85  N   -0.254835
    86  C   -0.049715
    87  C   -0.015599
    88  C   -0.090618
    89  C    0.046568
    90  C    0.114555
    91  C    0.062100
    92  C   -0.077680
    93  H    0.035079
    94  N   -0.423427
    95  C    0.163709
    96  C   -0.174519
    97  C   -0.007456
    98  C    0.152437
    99  C    0.099401
   100  C    0.015891
   101  O   -0.252971
   102  C    0.061034
   103  N   -0.350039
   104  C    0.037769
   105  C   -0.020049
   106  C   -0.034603
   107  C    0.088549
   108  C    0.073657
   109  C    0.033723
   110  C   -0.008575
   111  N   -0.323793
   112  C    0.077396
   113  C   -0.171090
   114  C   -0.001322
   115  C    0.099200
   116  C    0.132867
   117  C    0.049741
   118  O   -0.191133
   119  C    0.002569
   120  C    0.209022
   121  O   -0.240032
   122  O   -0.308585
   123  C    0.148361
   124  H   -0.019863
   125  H   -0.015424
   126  H   -0.038094
   127  H   -0.001859
   128  H   -0.004139
   129  H    0.021568
   130  H    0.014388
   131  H    0.016045
   132  H    0.014657
   133  H    0.041038
   134  H    0.019467
   135  H    0.019508
   136  H    0.008778
   137  H    0.026053
   138  H    0.040309
   139  H    0.038087
   140  H    0.036510
   141  H    0.034370
   142  H    0.014560
   143  H    0.013128
   144  H    0.025053
   145  H    0.011320
   146  H    0.006008
   147  H    0.005654
   148  H    0.005496
   149  H    0.010477
   150  H    0.018020
   151  H    0.031188
   152  H    0.058618
   153  H    0.013791
   154  H    0.043496
   155  H    0.032995
   156  H    0.039577
   157  H    0.047829
   158  H    0.060798
 Sum of Mulliken charges =  -0.00000

 Dipole moment (field-independent basis, Debye):
    X=              2.2581    Y=              2.9701    Z=             -5.2758  Tot=              6.4617
 Quadrupole moment (field-independent basis, Debye-Ang):
   XX=           -481.6001   YY=           -471.7739   ZZ=           -522.2081
   XY=             24.7603   XZ=              8.0037   YZ=            -33.0768

 Normal termination of Gaussian 16 at Thu Sep  9 21:36:05 2021.
