 Gaussian 16, Revision A.03,
 Gaussian 16:  ES64L-G16RevA.03 25-Dec-2016

 -----------------------------------
 #p cam-b3lyp/Def2SVP td=(nstates=5)
 -----------------------------------

 --------------------------------
 TDDFT excited states in gaussian
 --------------------------------
 Symbolic Z-matrix:
 Charge =  0 Multiplicity = 1

                         Standard orientation:
 ---------------------------------------------------------------------
 Center     Atomic      Atomic             Coordinates (Angstroms)
 Number     Number       Type             X           Y           Z
 ---------------------------------------------------------------------
      1         12           0       15.651507   -0.904182    0.144141
      2          6           0       15.897899    2.576870   -0.651964
      3          6           0       16.502829   -0.080151    3.344030
      4          6           0       15.884697   -4.005233    0.765210
      5          6           0       15.940614   -1.553712   -3.267631
      6          7           0       16.114979    1.036970    1.102143
      7          6           0       16.115759    2.304152    0.700370
      8          6           0       16.295125    3.321853    1.866340
      9          6           0       17.027683    2.373371    2.917882
     10          6           0       16.490081    1.032156    2.450922
     11          6           0       18.546662    2.368849    2.779384
     12          6           0       14.924906    3.839810    2.419469
     13          6           0       15.009915    5.069774    3.327938
     14          1           0       13.944932    6.059511    3.268110
     15          7           0       15.643973   -1.869738    1.867653
     16          6           0       16.006209   -1.373981    3.075252
     17          6           0       15.825428   -2.479501    4.040563
     18          6           0       15.510122   -3.712300    3.266689
     19          6           0       15.695175   -3.244760    1.916674
     20          6           0       15.906747   -2.297131    5.525110
     21          6           0       15.116343   -5.095476    3.678870
     22          8           0       15.115177   -6.075485    2.857801
     23          6           0       14.813215   -5.293899    5.107780
     24          7           0       16.099750   -2.560683   -1.044437
     25          6           0       16.076502   -3.798966   -0.539363
     26          6           0       16.148418   -4.832515   -1.624048
     27          6           0       15.980433   -4.041032   -3.000671
     28          6           0       15.919578   -2.599458   -2.438149
     29          6           0       17.435885   -5.667032   -1.669002
     30          6           0       14.848732   -4.511267   -3.948590
     31          6           0       13.502398   -4.223994   -3.322528
     32          7           0       15.701970    0.276409   -1.676492
     33          6           0       15.850980   -0.200573   -2.986819
     34          6           0       15.936251    0.978146   -3.868533
     35          6           0       15.846988    2.066160   -3.002449
     36          6           0       15.740754    1.597005   -1.661964
     37          6           0       16.135600    0.952546   -5.277092
     38          6           0       15.841418    3.516110   -2.895344
     39          8           0       15.809791    4.445218   -3.703583
     40          6           0       15.996766    3.905660   -1.359132
     41          6           0       14.957173    4.947361   -1.047019
     42          8           0       13.741885    4.664450   -1.067070
     43          8           0       15.557195    6.038208   -0.546450
     44          6           0       14.578979    7.099693   -0.187984
     45          1           0       16.988908    0.028552    4.315550
     46          1           0       15.859909   -5.085418    0.923400
     47          1           0       15.946585   -1.679147   -4.351920
     48          1           0       16.929817    4.176185    1.630321
     49          1           0       16.707380    2.574968    3.939883
     50          1           0       18.867758    2.919700    1.895426
     51          1           0       18.828273    1.318913    2.696791
     52          1           0       19.019818    2.735180    3.690813
     53          1           0       14.525411    3.113585    3.127326
     54          1           0       14.230846    4.041987    1.602933
     55          1           0       15.984749    5.552734    3.254740
     56          1           0       14.950867    4.734310    4.363398
     57          1           0       16.314968   -1.321786    5.787031
     58          1           0       16.645619   -3.008614    5.893306
     59          1           0       14.948798   -2.476040    6.013636
     60          1           0       15.686478   -5.023601    5.701834
     61          1           0       14.464796   -6.321859    5.201338
     62          1           0       14.019243   -4.605679    5.399176
     63          1           0       15.340953   -5.557200   -1.527840
     64          1           0       16.880006   -4.092569   -3.614500
     65          1           0       17.263868   -6.741474   -1.600520
     66          1           0       18.088332   -5.323527   -0.866749
     67          1           0       18.061062   -5.496062   -2.544981
     68          1           0       14.907080   -5.588042   -4.103822
     69          1           0       14.880724   -4.032844   -4.927538
     70          1           0       13.350105   -5.081764   -2.668410
     71          1           0       12.728742   -4.175708   -4.089558
     72          1           0       13.538102   -3.335512   -2.691805
     73          1           0       15.448857    1.688115   -5.695770
     74          1           0       15.949475   -0.040566   -5.685367
     75          1           0       17.185448    1.238907   -5.337687
     76          1           0       17.009473    4.287418   -1.233411
     77          1           0       14.873904    8.002111   -0.723609
     78          1           0       14.553943    7.143051    0.901006
     79          1           0       13.562392    6.963405   -0.558544
     80         12           0      -16.103588   -0.570855   -0.175906
     81          6           0      -14.320535    2.538966   -0.345732
     82          6           0      -16.942910    0.256899    3.024872
     83          6           0      -17.299581   -3.490462    0.160080
     84          6           0      -14.213710   -1.643538   -2.900497
     85          7           0      -15.633020    1.197153    1.067063
     86          6           0      -14.998832    2.344088    0.875484
     87          6           0      -15.164318    3.370847    2.027857
     88          6           0      -15.497377    2.345188    3.217799
     89          6           0      -16.095586    1.204507    2.397030
     90          6           0      -14.258802    1.824348    3.927718
     91          6           0      -16.352246    4.364746    1.776847
     92          6           0      -16.379288    5.581830    2.704073
     93          1           0      -16.840643    6.857895    2.164354
     94          7           0      -17.387214   -1.287275    1.157363
     95          6           0      -17.617167   -0.815532    2.400692
     96          6           0      -18.635363   -1.701872    2.985357
     97          6           0      -18.867501   -2.833017    2.046570
     98          6           0      -17.822544   -2.586471    1.073249
     99          6           0      -19.338610   -1.393678    4.275283
    100          6           0      -19.856984   -3.958618    2.034522
    101          8           0      -19.724836   -4.962934    1.249206
    102          6           0      -20.933560   -3.895845    3.033785
    103          7           0      -15.657777   -2.389691   -1.078912
    104          6           0      -16.364583   -3.496489   -0.790205
    105          6           0      -16.048883   -4.612911   -1.756814
    106          6           0      -15.158903   -3.946889   -2.906565
    107          6           0      -15.034035   -2.517866   -2.334120
    108          6           0      -15.305540   -5.811926   -1.168453
    109          6           0      -15.655698   -4.116739   -4.368420
    110          6           0      -16.942678   -3.349289   -4.568607
    111          7           0      -14.680859    0.326534   -1.531853
    112          6           0      -13.989379   -0.309266   -2.586225
    113          6           0      -13.047839    0.680485   -3.148662
    114          6           0      -13.242034    1.825429   -2.361337
    115          6           0      -14.220048    1.561112   -1.364776
    116          6           0      -12.133046    0.446633   -4.213826
    117          6           0      -12.834419    3.194197   -2.139925
    118          8           0      -12.101338    3.988227   -2.728011
    119          6           0      -13.423285    3.677474   -0.744909
    120          6           0      -14.053641    5.027766   -0.949556
    121          8           0      -15.056458    5.153874   -1.674169
    122          8           0      -13.504852    5.905137   -0.089651
    123          6           0      -14.105427    7.256598   -0.246684
    124          1           0      -17.072206    0.312638    4.106106
    125          1           0      -17.758597   -4.481815    0.162294
    126          1           0      -13.659632   -1.869846   -3.813983
    127          1           0      -14.271082    3.936720    2.263833
    128          1           0      -16.239598    2.756062    3.897248
    129          1           0      -13.350301    2.139747    3.436502
    130          1           0      -14.342502    0.745555    3.911979
    131          1           0      -14.279556    2.112880    4.982545
    132          1           0      -17.292094    3.881620    2.073519
    133          1           0      -16.368223    4.688936    0.754466
    134          1           0      -15.432007    5.711797    3.241389
    135          1           0      -17.112562    5.400337    3.493621
    136          1           0      -18.841265   -0.582116    4.820638
    137          1           0      -19.218223   -2.269345    4.922252
    138          1           0      -20.404504   -1.199573    4.137977
    139          1           0      -20.499759   -3.862327    4.030361
    140          1           0      -21.589760   -4.739103    2.809756
    141          1           0      -21.482752   -2.957474    2.897893
    142          1           0      -16.954686   -5.009413   -2.198850
    143          1           0      -14.142303   -4.366232   -2.929326
    144          1           0      -15.838385   -6.770447   -1.314695
    145          1           0      -15.138104   -5.626694   -0.115745
    146          1           0      -14.293003   -5.956015   -1.541580
    147          1           0      -15.885180   -5.165776   -4.570947
    148          1           0      -14.932080   -3.796303   -5.110506
    149          1           0      -17.702946   -4.039664   -4.191165
    150          1           0      -17.097636   -3.129582   -5.623001
    151          1           0      -16.968772   -2.453227   -3.937700
    152          1           0      -12.181791    1.311735   -4.861683
    153          1           0      -12.374389   -0.467863   -4.751627
    154          1           0      -11.198840    0.358513   -3.652791
    155          1           0      -12.595761    3.715276   -0.035435
    156          1           0      -13.281819    7.952373   -0.434430
    157          1           0      -14.707849    7.423685    0.665956
    158          1           0      -14.730440    7.429504   -1.114967
 ---------------------------------------------------------------------

 SCF Done:  E(RCAM-B3LYP) =  -4069.81174678     A.U. after   19 cycles

 Excitation energies and oscillator strengths:

 Excited State   1:      Singlet-A      1.6754 eV  740.03 nm  f=0.2693  <S**2>=0.000
     310 -> 316       -0.16962
     311 -> 313        0.67051
     312 -> 314       -0.14518
     310 <- 316       -0.10225
 This state for optimization and/or second-order correction.
 Total Energy, E(TD-HF/TD-DFT) =  -4069.75017695
 Copying the excited state density for this state as the 1-particle RhoCI density.

 Excited State   2:      Singlet-A      1.6800 eV  737.98 nm  f=0.5097  <S**2>=0.000
     309 -> 315        0.17160
     311 -> 313        0.14514
     312 -> 314        0.67015
     309 <- 315        0.10275

 Excited State   3:      Singlet-A      2.1861 eV  567.15 nm  f=0.0946  <S**2>=0.000
     310 -> 313        0.64204
     311 -> 316        0.27295

 Excited State   4:      Singlet-A      2.1925 eV  565.50 nm  f=0.1054  <S**2>=0.000
     309 -> 314        0.64027
     312 -> 315       -0.27810

 Excited State   5:      Singlet-A      3.0565 eV  405.65 nm  f=0.0000  <S**2>=0.000
     312 -> 313        0.70710

 The electronic state is 1-A.
 Alpha  occ. eigenvalues --  -46.87765 -46.87659 -19.26344 -19.26247 -19.19156
 Alpha  occ. eigenvalues --  -19.18983 -19.18786 -19.18714 -19.18136 -19.18047
 Alpha  occ. eigenvalues --  -14.42497 -14.42419 -14.41418 -14.41358 -14.39371
 Alpha  occ. eigenvalues --  -14.39351 -14.38598 -14.38555 -10.39086 -10.39043
 Alpha  occ. eigenvalues --  -10.35420 -10.35392 -10.34356 -10.34224 -10.31750
 Alpha  occ. eigenvalues --  -10.31641 -10.31373 -10.31307 -10.31023 -10.30878
 Alpha  occ. eigenvalues --  -10.30538 -10.30476 -10.30396 -10.30359 -10.30176
 Alpha  occ. eigenvalues --  -10.30141 -10.29893 -10.29889 -10.29599 -10.29436
 Alpha  occ. eigenvalues --  -10.29399 -10.29223 -10.28718 -10.28717 -10.28653
 Alpha  occ. eigenvalues --  -10.28505 -10.28404 -10.28333 -10.28140 -10.28086
 Alpha  occ. eigenvalues --  -10.27999 -10.27761 -10.27696 -10.27668 -10.27553
 Alpha  occ. eigenvalues --  -10.27517 -10.27482 -10.27470 -10.27468 -10.27464
 Alpha  occ. eigenvalues --  -10.27453 -10.27419 -10.27375 -10.27372 -10.27124
 Alpha  occ. eigenvalues --  -10.27047 -10.26692 -10.26671 -10.26416 -10.26383
 Alpha  occ. eigenvalues --  -10.26205 -10.26152 -10.26136 -10.26026 -10.25988
 Alpha  occ. eigenvalues --  -10.25933 -10.25844 -10.25810 -10.25407 -10.25398
 Alpha  occ. eigenvalues --  -10.24870 -10.24801 -10.24757 -10.24729 -10.24689
 Alpha  occ. eigenvalues --  -10.24654  -3.16508  -3.16409  -1.91389  -1.91292
 Alpha  occ. eigenvalues --   -1.90976  -1.90880  -1.90818  -1.90717  -1.16638
 Alpha  occ. eigenvalues --   -1.16596  -1.08653  -1.08593  -1.07187  -1.06967
 Alpha  occ. eigenvalues --   -1.06941  -1.06606  -1.04549  -1.04494  -1.03729
 Alpha  occ. eigenvalues --   -1.03662  -1.03202  -1.03038  -1.02380  -1.02110
 Alpha  occ. eigenvalues --   -0.91985  -0.91940  -0.89493  -0.89488  -0.89156
 Alpha  occ. eigenvalues --   -0.89151  -0.88256  -0.88219  -0.87838  -0.87791
 Alpha  occ. eigenvalues --   -0.87683  -0.87641  -0.87244  -0.87120  -0.84999
 Alpha  occ. eigenvalues --   -0.84950  -0.83905  -0.83875  -0.82938  -0.82932
 Alpha  occ. eigenvalues --   -0.82652  -0.82617  -0.81593  -0.81552  -0.80564
 Alpha  occ. eigenvalues --   -0.80441  -0.78766  -0.78634  -0.77187  -0.77143
 Alpha  occ. eigenvalues --   -0.76902  -0.76897  -0.75891  -0.75837  -0.74867
 Alpha  occ. eigenvalues --   -0.74802  -0.72743  -0.72697  -0.71641  -0.71580
 Alpha  occ. eigenvalues --   -0.69876  -0.69756  -0.68841  -0.68826  -0.67610
 Alpha  occ. eigenvalues --   -0.67600  -0.67199  -0.67188  -0.65270  -0.65254
 Alpha  occ. eigenvalues --   -0.64821  -0.64769  -0.64652  -0.64588  -0.64238
 Alpha  occ. eigenvalues --   -0.64202  -0.62275  -0.62263  -0.60412  -0.60339
 Alpha  occ. eigenvalues --   -0.59795  -0.59773  -0.58991  -0.58956  -0.58472
 Alpha  occ. eigenvalues --   -0.58424  -0.57551  -0.57551  -0.57277  -0.57235
 Alpha  occ. eigenvalues --   -0.56278  -0.56202  -0.55944  -0.55883  -0.55489
 Alpha  occ. eigenvalues --   -0.55450  -0.55307  -0.55246  -0.54490  -0.54485
 Alpha  occ. eigenvalues --   -0.53912  -0.53863  -0.53268  -0.53226  -0.53190
 Alpha  occ. eigenvalues --   -0.53140  -0.52900  -0.52882  -0.52726  -0.52668
 Alpha  occ. eigenvalues --   -0.52406  -0.52399  -0.51882  -0.51880  -0.51658
 Alpha  occ. eigenvalues --   -0.51585  -0.51199  -0.51163  -0.50544  -0.50476
 Alpha  occ. eigenvalues --   -0.50001  -0.49979  -0.49888  -0.49866  -0.49487
 Alpha  occ. eigenvalues --   -0.49484  -0.49201  -0.49183  -0.49103  -0.49064
 Alpha  occ. eigenvalues --   -0.48560  -0.48556  -0.48431  -0.48414  -0.48374
 Alpha  occ. eigenvalues --   -0.48338  -0.47663  -0.47593  -0.47266  -0.47117
 Alpha  occ. eigenvalues --   -0.46765  -0.46708  -0.46553  -0.46523  -0.46327
 Alpha  occ. eigenvalues --   -0.46269  -0.46130  -0.46083  -0.45819  -0.45788
 Alpha  occ. eigenvalues --   -0.45208  -0.45171  -0.44545  -0.44512  -0.44476
 Alpha  occ. eigenvalues --   -0.44475  -0.44126  -0.44113  -0.44076  -0.44057
 Alpha  occ. eigenvalues --   -0.43987  -0.43938  -0.43550  -0.43461  -0.43384
 Alpha  occ. eigenvalues --   -0.43354  -0.42995  -0.42927  -0.42898  -0.42665
 Alpha  occ. eigenvalues --   -0.42621  -0.42552  -0.41977  -0.41963  -0.41672
 Alpha  occ. eigenvalues --   -0.41667  -0.41502  -0.41458  -0.41110  -0.40989
 Alpha  occ. eigenvalues --   -0.40838  -0.40793  -0.40722  -0.40698  -0.40540
 Alpha  occ. eigenvalues --   -0.40492  -0.40226  -0.40202  -0.39424  -0.39409
 Alpha  occ. eigenvalues --   -0.38438  -0.38350  -0.37716  -0.37653  -0.37289
 Alpha  occ. eigenvalues --   -0.37265  -0.37231  -0.37198  -0.36767  -0.36678
 Alpha  occ. eigenvalues --   -0.36215  -0.36159  -0.34254  -0.34252  -0.33858
 Alpha  occ. eigenvalues --   -0.33734  -0.33174  -0.33154  -0.31316  -0.31273
 Alpha  occ. eigenvalues --   -0.31004  -0.30972  -0.29995  -0.29951  -0.29418
 Alpha  occ. eigenvalues --   -0.29326  -0.29290  -0.29209  -0.24049  -0.24035
 Alpha  occ. eigenvalues --   -0.21116  -0.21096
 Alpha virt. eigenvalues --   -0.08791  -0.08743  -0.01719  -0.01683  -0.00028
 Alpha virt. eigenvalues --   -0.00027   0.02210   0.02233   0.03155   0.03231
 Alpha virt. eigenvalues --    0.04730   0.04750   0.05134   0.05169   0.06183

 Mulliken charges:
               1
     1  Mg   0.838753
     2  C   -0.002930
     3  C   -0.094127
     4  C   -0.045863
     5  C   -0.063965
     6  N   -0.256766
     7  C   -0.052465
     8  C   -0.014026
     9  C   -0.086987
    10  C    0.046316
    11  C    0.104823
    12  C    0.053480
    13  C   -0.071825
    14  H    0.036199
    15  N   -0.433121
    16  C    0.168411
    17  C   -0.177171
    18  C   -0.004018
    19  C    0.148706
    20  C    0.110191
    21  C    0.012278
    22  O   -0.249655
    23  C    0.062480
    24  N   -0.341127
    25  C    0.041229
    26  C   -0.028151
    27  C   -0.023992
    28  C    0.074855
    29  C    0.076184
    30  C    0.035135
    31  C   -0.004507
    32  N   -0.310479
    33  C    0.080430
    34  C   -0.169684
    35  C    0.008375
    36  C    0.083008
    37  C    0.127300
    38  C    0.046147
    39  O   -0.188385
    40  C   -0.005349
    41  C    0.212884
    42  O   -0.257035
    43  O   -0.304825
    44  C    0.157664
    45  H   -0.017641
    46  H   -0.016870
    47  H   -0.041482
    48  H    0.000930
    49  H   -0.004045
    50  H    0.025467
    51  H    0.016425
    52  H    0.016621
    53  H    0.011210
    54  H    0.044173
    55  H    0.017842
    56  H    0.017924
    57  H    0.005857
    58  H    0.026774
    59  H    0.039537
    60  H    0.037316
    61  H    0.035610
    62  H    0.031514
    63  H    0.016547
    64  H    0.009439
    65  H    0.023179
    66  H    0.012522
    67  H    0.004730
    68  H    0.006335
    69  H    0.004746
    70  H    0.008760
    71  H    0.018196
    72  H    0.029011
    73  H    0.047634
    74  H    0.009122
    75  H    0.045986
    76  H    0.035126
    77  H    0.042955
    78  H    0.046382
    79  H    0.053768
    80  Mg   0.837898
    81  C   -0.016821
    82  C   -0.087812
    83  C   -0.045509
    84  C   -0.064868
    85  N   -0.254577
    86  C   -0.049799
    87  C   -0.015122
    88  C   -0.090478
    89  C    0.045747
    90  C    0.114375
    91  C    0.062527
    92  C   -0.077896
    93  H    0.034924
    94  N   -0.423508
    95  C    0.162928
    96  C   -0.174646
    97  C   -0.007817
    98  C    0.152093
    99  C    0.099376
   100  C    0.015561
   101  O   -0.253194
   102  C    0.061204
   103  N   -0.350081
   104  C    0.037498
   105  C   -0.019823
   106  C   -0.034842
   107  C    0.088921
   108  C    0.073650
   109  C    0.034733
   110  C   -0.007675
   111  N   -0.324112
   112  C    0.078471
   113  C   -0.163098
   114  C    0.002272
   115  C    0.096187
   116  C    0.131484
   117  C    0.042419
   118  O   -0.187749
   119  C    0.000885
   120  C    0.211295
   121  O   -0.251019
   122  O   -0.305631
   123  C    0.152011
   124  H   -0.019686
   125  H   -0.015579
   126  H   -0.040403
   127  H   -0.000629
   128  H   -0.004338
   129  H    0.022481
   130  H    0.014416
   131  H    0.016253
   132  H    0.013914
   133  H    0.037697
   134  H    0.020784
   135  H    0.019573
   136  H    0.008743
   137  H    0.026116
   138  H    0.039787
   139  H    0.038236
   140  H    0.036389
   141  H    0.033899
   142  H    0.014397
   143  H    0.012453
   144  H    0.025135
   145  H    0.011622
   146  H    0.005697
   147  H    0.006270
   148  H    0.003695
   149  H    0.010921
   150  H    0.017960
   151  H    0.030086
   152  H    0.046074
   153  H    0.008539
   154  H    0.047025
   155  H    0.035062
   156  H    0.043967
   157  H    0.049463
   158  H    0.053598
 Sum of Mulliken charges =  -0.00000

 Dipole moment (field-independent basis, Debye):
    X=              1.0820    Y=             -1.3451    Z=              8.4104  Tot=              8.5858
 Quadrupole moment (field-independent basis, Debye-Ang):
   XX=           -430.2613   YY=           -527.3320   ZZ=           -469.1304
   XY=            -14.7988   XZ=             -8.2294   YZ=             59.2047

 Normal termination of Gaussian 16 at Sun Sep 12 18:25:38 2021.
