 Gaussian 16, Revision A.03,
 Gaussian 16:  ES64L-G16RevA.03 25-Dec-2016

 -----------------------------------
 #p cam-b3lyp/Def2SVP td=(nstates=5)
 -----------------------------------

 --------------------------------
 TDDFT excited states in gaussian
 --------------------------------
 Symbolic Z-matrix:
 Charge =  0 Multiplicity = 1

                         Standard orientation:
 ---------------------------------------------------------------------
 Center     Atomic      Atomic             Coordinates (Angstroms)
 Number     Number       Type             X           Y           Z
 ---------------------------------------------------------------------
      1         12           0        8.020463    0.559425    0.895873
      2          6           0        8.493720   -2.406011   -1.052057
      3          6           0        9.191577    2.324521   -1.779195
      4          6           0        8.041434    3.136595    2.743677
      5          6           0        7.979752   -1.480484    3.721253
      6          7           0        8.720552   -0.073442   -1.106625
      7          6           0        8.795546   -1.234405   -1.749829
      8          6           0        9.152565   -1.082773   -3.258776
      9          6           0        9.884769    0.332426   -3.203234
     10          6           0        9.200768    0.911862   -1.977542
     11          6           0       11.382009    0.233430   -2.929424
     12          6           0        7.879411   -1.033762   -4.168945
     13          6           0        8.139906   -1.215048   -5.667154
     14          1           0        7.160435   -1.935989   -6.466046
     15          7           0        8.069975    2.476317    0.420557
     16          6           0        8.568136    3.015788   -0.717903
     17          6           0        8.373078    4.476537   -0.596066
     18          6           0        7.894387    4.757975    0.785868
     19          6           0        8.009297    3.454229    1.387881
     20          6           0        8.588092    5.432688   -1.728892
     21          6           0        7.420143    6.006324    1.460295
     22          8           0        7.270915    6.079908    2.727927
     23          6           0        7.216875    7.183209    0.596196
     24          7           0        8.231360    0.828568    2.955174
     25          6           0        8.144752    2.044979    3.504561
     26          6           0        8.042498    1.963204    4.998816
     27          6           0        7.831826    0.418379    5.343613
     28          6           0        7.937497   -0.159748    3.910828
     29          6           0        9.247589    2.501288    5.782546
     30          6           0        6.592346    0.051163    6.197582
     31          6           0        5.329387    0.311352    5.407434
     32          7           0        8.023866   -1.575588    1.286705
     33          6           0        8.026844   -2.203155    2.540828
     34          6           0        8.139880   -3.653105    2.298057
     35          6           0        8.211966   -3.767845    0.911160
     36          6           0        8.174444   -2.469996    0.325949
     37          6           0        8.222890   -4.661570    3.298328
     38          6           0        8.336768   -4.683434   -0.211327
     39          8           0        8.318623   -5.908728   -0.337091
     40          6           0        8.646846   -3.831689   -1.520606
     41          6           0        7.726755   -4.317378   -2.607274
     42          8           0        6.494316   -4.137130   -2.529998
     43          8           0        8.454423   -4.700819   -3.667469
     44          6           0        7.600669   -5.166355   -4.792873
     45          1           0        9.761330    2.957191   -2.462607
     46          1           0        7.938783    3.992035    3.414589
     47          1           0        7.888285   -2.184216    4.550620
     48          1           0        9.835800   -1.840621   -3.642548
     49          1           0        9.665433    0.938856   -4.081788
     50          1           0       11.676375   -0.788090   -2.689075
     51          1           0       11.566936    0.892534   -2.080968
     52          1           0       11.955745    0.645803   -3.759817
     53          1           0        7.478342   -0.020255   -4.171671
     54          1           0        7.141603   -1.766425   -3.840050
     55          1           0        9.142843   -1.600100   -5.853597
     56          1           0        8.136040   -0.230999   -6.136017
     57          1           0        9.096438    4.954745   -2.565372
     58          1           0        9.291724    6.187799   -1.379011
     59          1           0        7.660729    5.911853   -2.043109
     60          1           0        8.154525    7.429923    0.097706
     61          1           0        6.791986    7.956051    1.235755
     62          1           0        6.509403    6.924460   -0.192145
     63          1           0        7.187344    2.530525    5.363896
     64          1           0        8.671817    0.005918    5.903046
     65          1           0        8.991998    3.287578    6.493269
     66          1           0        9.988741    2.849645    5.063775
     67          1           0        9.812721    1.745652    6.327575
     68          1           0        6.547446    0.675937    7.088978
     69          1           0        6.585870   -0.989671    6.521422
     70          1           0        5.158499    1.375664    5.565134
     71          1           0        4.503565   -0.279735    5.804731
     72          1           0        5.489985    0.161831    4.339568
     73          1           0        7.569013   -5.469994    2.971428
     74          1           0        7.921923   -4.278220    4.273040
     75          1           0        9.284836   -4.902782    3.254241
     76          1           0        9.694838   -4.002550   -1.764818
     77          1           0        7.926467   -6.175081   -5.046963
     78          1           0        7.666683   -4.402942   -5.568274
     79          1           0        6.549820   -5.342018   -4.560066
     80         12           0       -7.742864    0.348726   -0.946104
     81          6           0       -9.380002   -1.649046    1.545432
     82          6           0       -9.765254    2.925397    0.005410
     83          6           0       -6.640828    1.997395   -3.422967
     84          6           0       -6.692383   -2.620746   -2.437547
     85          7           0       -9.327778    0.496364    0.589639
     86          6           0       -9.820559   -0.309420    1.518204
     87          6           0      -10.783592    0.379207    2.522156
     88          6           0      -11.250990    1.609401    1.601809
     89          6           0      -10.027448    1.713926    0.693676
     90          6           0      -12.460382    1.289931    0.738886
     91          6           0      -10.044722    0.876552    3.813952
     92          6           0      -10.966406    1.278788    4.967402
     93          1           0      -10.530670    1.005830    6.334193
     94          7           0       -7.776828    2.299800   -1.307692
     95          6           0       -8.653918    3.202485   -0.820729
     96          6           0       -8.263559    4.496539   -1.401430
     97          6           0       -7.186244    4.256818   -2.399750
     98          6           0       -7.173698    2.808047   -2.431280
     99          6           0       -8.841812    5.802874   -0.940441
    100          6           0       -6.320511    5.178948   -3.203718
    101          8           0       -5.614581    4.754428   -4.185701
    102          6           0       -6.395244    6.608136   -2.867069
    103          7           0       -6.982610   -0.223154   -2.794698
    104          6           0       -6.524336    0.691907   -3.666801
    105          6           0       -5.776897    0.036000   -4.803258
    106          6           0       -5.619746   -1.499447   -4.384589
    107          6           0       -6.416395   -1.483795   -3.061525
    108          6           0       -6.443513    0.123265   -6.175994
    109          6           0       -4.179929   -2.082101   -4.373585
    110          6           0       -3.370050   -1.435860   -3.272754
    111          7           0       -7.817057   -1.752587   -0.449080
    112          6           0       -7.340374   -2.830437   -1.226955
    113          6           0       -7.719692   -4.074369   -0.526113
    114          6           0       -8.416338   -3.630909    0.608132
    115          6           0       -8.485081   -2.211495    0.603349
    116          6           0       -7.458385   -5.397847   -0.980240
    117          6           0       -9.118395   -4.041179    1.802905
    118          8           0       -9.306526   -5.114215    2.374681
    119          6           0       -9.883200   -2.781039    2.397497
    120          6           0       -9.605160   -2.723383    3.874616
    121          8           0       -8.454151   -2.507499    4.293155
    122          8           0      -10.772973   -2.715479    4.542822
    123          6           0      -10.549585   -2.647810    6.011612
    124          1           0      -10.500766    3.727808    0.068867
    125          1           0       -6.149642    2.520834   -4.246511
    126          1           0       -6.316824   -3.584711   -2.787389
    127          1           0      -11.641408   -0.216520    2.810285
    128          1           0      -11.370189    2.517526    2.187001
    129          1           0      -12.734720    0.247258    0.799888
    130          1           0      -12.176180    1.547789   -0.272935
    131          1           0      -13.292411    1.951652    0.996144
    132          1           0       -9.571310    1.844609    3.605396
    133          1           0       -9.338144    0.144755    4.154335
    134          1           0      -11.994589    0.928822    4.814708
    135          1           0      -11.052936    2.368007    4.978802
    136          1           0       -9.729064    5.651113   -0.313424
    137          1           0       -9.222568    6.315788   -1.830286
    138          1           0       -8.102525    6.442206   -0.453222
    139          1           0       -7.420424    6.952647   -2.980097
    140          1           0       -5.640332    7.094473   -3.487926
    141          1           0       -6.136223    6.732497   -1.809679
    142          1           0       -4.791888    0.470916   -4.920304
    143          1           0       -6.162601   -2.166391   -5.070400
    144          1           0       -5.801454    0.594736   -6.943811
    145          1           0       -7.372369    0.667874   -6.070383
    146          1           0       -6.778495   -0.827138   -6.587956
    147          1           0       -3.670002   -1.849287   -5.311637
    148          1           0       -4.150916   -3.159542   -4.250062
    149          1           0       -3.028682   -0.503473   -3.732348
    150          1           0       -2.530175   -2.068666   -2.993098
    151          1           0       -4.006118   -1.169723   -2.420556
    152          1           0       -7.120280   -5.960938   -0.120522
    153          1           0       -6.718289   -5.405692   -1.777712
    154          1           0       -8.451613   -5.680545   -1.339205
    155          1           0      -10.945015   -2.912278    2.185598
    156          1           0      -11.073681   -3.500563    6.454116
    157          1           0      -10.881803   -1.638135    6.318117
    158          1           0       -9.540696   -2.808887    6.373073
 ---------------------------------------------------------------------

 SCF Done:  E(RCAM-B3LYP) =  -4069.81177763     A.U. after   19 cycles

 Excitation energies and oscillator strengths:

 Excited State   1:      Singlet-A      1.6697 eV  742.55 nm  f=0.0190  <S**2>=0.000
     309 -> 315        0.10327
     310 -> 316       -0.13805
     311 -> 313        0.55068
     312 -> 314        0.40968
 This state for optimization and/or second-order correction.
 Total Energy, E(TD-HF/TD-DFT) =  -4069.75041661
 Copying the excited state density for this state as the 1-particle RhoCI density.

 Excited State   2:      Singlet-A      1.6851 eV  735.78 nm  f=0.7385  <S**2>=0.000
     309 -> 315        0.14193
     310 -> 316        0.10502
     311 -> 313       -0.40917
     312 -> 314        0.54987

 Excited State   3:      Singlet-A      2.1854 eV  567.32 nm  f=0.0723  <S**2>=0.000
     309 -> 314       -0.10926
     310 -> 313        0.63332
     311 -> 316        0.26874

 Excited State   4:      Singlet-A      2.1927 eV  565.44 nm  f=0.1237  <S**2>=0.000
     309 -> 314        0.63144
     310 -> 313        0.10845
     312 -> 315       -0.27432

 Excited State   5:      Singlet-A      2.8055 eV  441.93 nm  f=0.0000  <S**2>=0.000
     312 -> 313        0.70710

 The electronic state is 1-A.
 Alpha  occ. eigenvalues --  -46.87707 -46.87590 -19.26289 -19.26220 -19.19095
 Alpha  occ. eigenvalues --  -19.18951 -19.18731 -19.18666 -19.18086 -19.17983
 Alpha  occ. eigenvalues --  -14.42431 -14.42363 -14.41360 -14.41287 -14.39314
 Alpha  occ. eigenvalues --  -14.39284 -14.38528 -14.38497 -10.39025 -10.39010
 Alpha  occ. eigenvalues --  -10.35365 -10.35345 -10.34306 -10.34160 -10.31700
 Alpha  occ. eigenvalues --  -10.31625 -10.31319 -10.31240 -10.30962 -10.30826
 Alpha  occ. eigenvalues --  -10.30481 -10.30418 -10.30327 -10.30289 -10.30116
 Alpha  occ. eigenvalues --  -10.30069 -10.29830 -10.29820 -10.29542 -10.29370
 Alpha  occ. eigenvalues --  -10.29332 -10.29165 -10.28674 -10.28662 -10.28604
 Alpha  occ. eigenvalues --  -10.28476 -10.28339 -10.28278 -10.28083 -10.28039
 Alpha  occ. eigenvalues --  -10.27932 -10.27704 -10.27640 -10.27603 -10.27496
 Alpha  occ. eigenvalues --  -10.27428 -10.27417 -10.27416 -10.27403 -10.27401
 Alpha  occ. eigenvalues --  -10.27396 -10.27357 -10.27318 -10.27299 -10.27080
 Alpha  occ. eigenvalues --  -10.26985 -10.26637 -10.26633 -10.26383 -10.26329
 Alpha  occ. eigenvalues --  -10.26162 -10.26071 -10.26012 -10.25975 -10.25927
 Alpha  occ. eigenvalues --  -10.25856 -10.25760 -10.25746 -10.25351 -10.25339
 Alpha  occ. eigenvalues --  -10.24803 -10.24745 -10.24699 -10.24622 -10.24575
 Alpha  occ. eigenvalues --  -10.24560  -3.16449  -3.16340  -1.91331  -1.91222
 Alpha  occ. eigenvalues --   -1.90918  -1.90811  -1.90760  -1.90648  -1.16582
 Alpha  occ. eigenvalues --   -1.16568  -1.08590  -1.08545  -1.07132  -1.06919
 Alpha  occ. eigenvalues --   -1.06880  -1.06574  -1.04495  -1.04429  -1.03671
 Alpha  occ. eigenvalues --   -1.03594  -1.03144  -1.02967  -1.02322  -1.02041
 Alpha  occ. eigenvalues --   -0.91919  -0.91887  -0.89424  -0.89410  -0.89110
 Alpha  occ. eigenvalues --   -0.89091  -0.88193  -0.88137  -0.87779  -0.87718
 Alpha  occ. eigenvalues --   -0.87616  -0.87587  -0.87187  -0.87063  -0.84939
 Alpha  occ. eigenvalues --   -0.84902  -0.83841  -0.83787  -0.82880  -0.82873
 Alpha  occ. eigenvalues --   -0.82592  -0.82568  -0.81529  -0.81509  -0.80514
 Alpha  occ. eigenvalues --   -0.80378  -0.78709  -0.78571  -0.77131  -0.77076
 Alpha  occ. eigenvalues --   -0.76854  -0.76828  -0.75844  -0.75775  -0.74810
 Alpha  occ. eigenvalues --   -0.74729  -0.72685  -0.72626  -0.71588  -0.71515
 Alpha  occ. eigenvalues --   -0.69805  -0.69656  -0.68792  -0.68765  -0.67556
 Alpha  occ. eigenvalues --   -0.67536  -0.67144  -0.67142  -0.65209  -0.65206
 Alpha  occ. eigenvalues --   -0.64769  -0.64698  -0.64586  -0.64537  -0.64176
 Alpha  occ. eigenvalues --   -0.64120  -0.62221  -0.62210  -0.60354  -0.60276
 Alpha  occ. eigenvalues --   -0.59734  -0.59723  -0.58923  -0.58901  -0.58418
 Alpha  occ. eigenvalues --   -0.58356  -0.57505  -0.57487  -0.57221  -0.57165
 Alpha  occ. eigenvalues --   -0.56224  -0.56136  -0.55907  -0.55824  -0.55436
 Alpha  occ. eigenvalues --   -0.55393  -0.55251  -0.55169  -0.54439  -0.54408
 Alpha  occ. eigenvalues --   -0.53853  -0.53817  -0.53212  -0.53159  -0.53141
 Alpha  occ. eigenvalues --   -0.53080  -0.52835  -0.52833  -0.52674  -0.52617
 Alpha  occ. eigenvalues --   -0.52333  -0.52290  -0.51822  -0.51803  -0.51602
 Alpha  occ. eigenvalues --   -0.51538  -0.51127  -0.51109  -0.50486  -0.50422
 Alpha  occ. eigenvalues --   -0.49937  -0.49918  -0.49834  -0.49788  -0.49434
 Alpha  occ. eigenvalues --   -0.49431  -0.49140  -0.49131  -0.49040  -0.49017
 Alpha  occ. eigenvalues --   -0.48513  -0.48495  -0.48373  -0.48363  -0.48303
 Alpha  occ. eigenvalues --   -0.48285  -0.47611  -0.47530  -0.47213  -0.47056
 Alpha  occ. eigenvalues --   -0.46708  -0.46635  -0.46494  -0.46478  -0.46271
 Alpha  occ. eigenvalues --   -0.46198  -0.46076  -0.46013  -0.45751  -0.45740
 Alpha  occ. eigenvalues --   -0.45134  -0.45111  -0.44495  -0.44451  -0.44421
 Alpha  occ. eigenvalues --   -0.44407  -0.44064  -0.44054  -0.44008  -0.43996
 Alpha  occ. eigenvalues --   -0.43937  -0.43882  -0.43481  -0.43415  -0.43321
 Alpha  occ. eigenvalues --   -0.43301  -0.42941  -0.42864  -0.42832  -0.42624
 Alpha  occ. eigenvalues --   -0.42561  -0.42468  -0.41917  -0.41877  -0.41619
 Alpha  occ. eigenvalues --   -0.41600  -0.41453  -0.41390  -0.41058  -0.40925
 Alpha  occ. eigenvalues --   -0.40785  -0.40740  -0.40668  -0.40632  -0.40479
 Alpha  occ. eigenvalues --   -0.40409  -0.40173  -0.40160  -0.39335  -0.39318
 Alpha  occ. eigenvalues --   -0.38378  -0.38273  -0.37672  -0.37593  -0.37229
 Alpha  occ. eigenvalues --   -0.37188  -0.37183  -0.37136  -0.36703  -0.36638
 Alpha  occ. eigenvalues --   -0.36143  -0.36110  -0.34198  -0.34183  -0.33795
 Alpha  occ. eigenvalues --   -0.33698  -0.33106  -0.33099  -0.31261  -0.31224
 Alpha  occ. eigenvalues --   -0.30949  -0.30906  -0.29946  -0.29887  -0.29361
 Alpha  occ. eigenvalues --   -0.29263  -0.29233  -0.29141  -0.23992  -0.23966
 Alpha  occ. eigenvalues --   -0.21048  -0.21039
 Alpha virt. eigenvalues --   -0.08724  -0.08686  -0.01661  -0.01615   0.00027
 Alpha virt. eigenvalues --    0.00029   0.02277   0.02288   0.03226   0.03312
 Alpha virt. eigenvalues --    0.04794   0.04800   0.05169   0.05230   0.06238

 Mulliken charges:
               1
     1  Mg   0.838961
     2  C   -0.003055
     3  C   -0.094116
     4  C   -0.045821
     5  C   -0.063862
     6  N   -0.256777
     7  C   -0.052483
     8  C   -0.014033
     9  C   -0.087004
    10  C    0.046316
    11  C    0.104836
    12  C    0.053481
    13  C   -0.071684
    14  H    0.035774
    15  N   -0.433101
    16  C    0.168449
    17  C   -0.177161
    18  C   -0.004009
    19  C    0.148747
    20  C    0.110197
    21  C    0.012329
    22  O   -0.249727
    23  C    0.062448
    24  N   -0.341161
    25  C    0.041246
    26  C   -0.028131
    27  C   -0.024024
    28  C    0.074934
    29  C    0.076227
    30  C    0.035099
    31  C   -0.004563
    32  N   -0.310487
    33  C    0.080492
    34  C   -0.169521
    35  C    0.008319
    36  C    0.083087
    37  C    0.127265
    38  C    0.046155
    39  O   -0.188488
    40  C   -0.005351
    41  C    0.212876
    42  O   -0.257130
    43  O   -0.304786
    44  C    0.157781
    45  H   -0.017730
    46  H   -0.016908
    47  H   -0.041337
    48  H    0.000825
    49  H   -0.004071
    50  H    0.025409
    51  H    0.016438
    52  H    0.016534
    53  H    0.011362
    54  H    0.044046
    55  H    0.017808
    56  H    0.018010
    57  H    0.005810
    58  H    0.026648
    59  H    0.039701
    60  H    0.037226
    61  H    0.035459
    62  H    0.031734
    63  H    0.016609
    64  H    0.009367
    65  H    0.023098
    66  H    0.012413
    67  H    0.004685
    68  H    0.006277
    69  H    0.004888
    70  H    0.008681
    71  H    0.018793
    72  H    0.029002
    73  H    0.047769
    74  H    0.009323
    75  H    0.045868
    76  H    0.035048
    77  H    0.042868
    78  H    0.046326
    79  H    0.053484
    80  Mg   0.838080
    81  C   -0.016836
    82  C   -0.087891
    83  C   -0.045527
    84  C   -0.064721
    85  N   -0.254551
    86  C   -0.049819
    87  C   -0.015115
    88  C   -0.090484
    89  C    0.045733
    90  C    0.114425
    91  C    0.062543
    92  C   -0.077831
    93  H    0.034839
    94  N   -0.423427
    95  C    0.162861
    96  C   -0.174764
    97  C   -0.007928
    98  C    0.152124
    99  C    0.099412
   100  C    0.015482
   101  O   -0.253501
   102  C    0.061252
   103  N   -0.350135
   104  C    0.037576
   105  C   -0.019723
   106  C   -0.034977
   107  C    0.089155
   108  C    0.073788
   109  C    0.034683
   110  C   -0.007888
   111  N   -0.324196
   112  C    0.078666
   113  C   -0.162740
   114  C    0.002237
   115  C    0.096364
   116  C    0.131385
   117  C    0.042530
   118  O   -0.187760
   119  C    0.000830
   120  C    0.211258
   121  O   -0.250850
   122  O   -0.305690
   123  C    0.152039
   124  H   -0.019888
   125  H   -0.015807
   126  H   -0.040025
   127  H   -0.000733
   128  H   -0.004432
   129  H    0.022399
   130  H    0.014370
   131  H    0.016107
   132  H    0.013956
   133  H    0.037776
   134  H    0.020693
   135  H    0.019515
   136  H    0.008672
   137  H    0.025874
   138  H    0.039662
   139  H    0.038149
   140  H    0.035935
   141  H    0.033967
   142  H    0.014377
   143  H    0.012285
   144  H    0.024789
   145  H    0.011408
   146  H    0.005590
   147  H    0.006100
   148  H    0.004186
   149  H    0.010509
   150  H    0.019860
   151  H    0.029852
   152  H    0.046407
   153  H    0.009024
   154  H    0.046752
   155  H    0.034888
   156  H    0.043841
   157  H    0.049391
   158  H    0.053645
 Sum of Mulliken charges =  -0.00000

 Dipole moment (field-independent basis, Debye):
    X=             -0.2251    Y=              6.9911    Z=             -2.5793  Tot=              7.4552
 Quadrupole moment (field-independent basis, Debye-Ang):
   XX=           -430.0737   YY=           -537.9668   ZZ=           -474.1860
   XY=            -18.9712   XZ=            -27.5777   YZ=             10.6856

 Normal termination of Gaussian 16 at Sat Sep 11 21:02:44 2021.
