 Gaussian 16, Revision A.03,
 Gaussian 16:  ES64L-G16RevA.03 25-Dec-2016

 -----------------------------------
 #p cam-b3lyp/Def2SVP td=(nstates=5)
 -----------------------------------

 --------------------------------
 TDDFT excited states in gaussian
 --------------------------------
 Symbolic Z-matrix:
 Charge =  0 Multiplicity = 1

                         Standard orientation:
 ---------------------------------------------------------------------
 Center     Atomic      Atomic             Coordinates (Angstroms)
 Number     Number       Type             X           Y           Z
 ---------------------------------------------------------------------
      1         12           0       15.779633    0.624760    0.482224
      2          6           0       16.118926   -2.456458   -1.307522
      3          6           0       16.597763    2.226787   -2.417300
      4          6           0       15.931311    3.322177    2.142813
      5          6           0       16.108928   -1.217487    3.422182
      6          7           0       16.272079   -0.128860   -1.540200
      7          6           0       16.308526   -1.329286   -2.110131
      8          6           0       16.492358   -1.273815   -3.656256
      9          6           0       17.185771    0.156850   -3.776142
     10          6           0       16.625080    0.804369   -2.522241
     11          6           0       18.706288    0.108106   -3.665899
     12          6           0       15.125644   -1.313784   -4.419293
     13          6           0       15.224213   -1.591659   -5.922098
     14          1           0       14.183396   -2.385862   -6.557150
     15          7           0       15.721972    2.505259   -0.120478
     16          6           0       16.075918    2.975867   -1.340534
     17          6           0       15.854136    4.437137   -1.293787
     18          6           0       15.523117    4.802397    0.111597
     19          6           0       15.740718    3.545575    0.781242
     20          6           0       15.915580    5.317830   -2.503892
     21          6           0       15.090990    6.083783    0.751479
     22          8           0       15.080568    6.240783    2.020265
     23          6           0       14.760276    7.194294   -0.159803
     24          7           0       16.208826    1.038497    2.482787
     25          6           0       16.148912    2.287568    2.957355
     26          6           0       16.214581    2.306091    4.455782
     27          6           0       16.087169    0.784411    4.922697
     28          6           0       16.050403    0.111953    3.528165
     29          6           0       17.483062    2.921579    5.062528
     30          6           0       14.960445    0.450673    5.932415
     31          6           0       13.611116    0.629765    5.273375
     32          7           0       15.886727   -1.477977    1.009551
     33          6           0       16.045920   -2.018078    2.293927
     34          6           0       16.172560   -3.478561    2.135752
     35          6           0       16.094345   -3.686381    0.760056
     36          6           0       15.955650   -2.432676    0.098787
     37          6           0       16.394051   -4.414280    3.184468
     38          6           0       16.120410   -4.673810   -0.306791
     39          8           0       16.123265   -5.904948   -0.349003
     40          6           0       16.259784   -3.907340   -1.695649
     41          6           0       15.239521   -4.485340   -2.638140
     42          8           0       14.018528   -4.326005   -2.435272
     43          8           0       15.856302   -4.925133   -3.745707
     44          6           0       14.897096   -5.484296   -4.735360
     45          1           0       17.070419    2.822982   -3.200300
     46          1           0       15.879114    4.219180    2.763376
     47          1           0       16.129569   -1.864588    4.300981
     48          1           0       17.150281   -2.041708   -4.063566
     49          1           0       16.853684    0.697043   -4.662501
     50          1           0       19.054248   -0.888207   -3.393492
     51          1           0       18.964963    0.827428   -2.888623
     52          1           0       19.172927    0.474597   -4.580617
     53          1           0       14.698133   -0.311434   -4.443609
     54          1           0       14.449734   -2.037477   -3.962414
     55          1           0       16.210960   -1.967535   -6.194047
     56          1           0       15.140700   -0.642287   -6.451171
     57          1           0       16.341843    4.794503   -3.358862
     58          1           0       16.631824    6.109638   -2.285388
     59          1           0       14.945982    5.754906   -2.743010
     60          1           0       15.629794    7.425856   -0.775325
     61          1           0       14.386825    8.000037    0.471198
     62          1           0       13.977738    6.867503   -0.845215
     63          1           0       15.389201    2.879076    4.876330
     64          1           0       16.995140    0.428821    5.410364
     65          1           0       17.285279    3.749138    5.744241
     66          1           0       18.130164    3.235349    4.243933
     67          1           0       18.126111    2.216966    5.589241
     68          1           0       14.996505    1.133890    6.780272
     69          1           0       15.019287   -0.565477    6.322581
     70          1           0       13.428553    1.698570    5.379002
     71          1           0       12.851299    0.050125    5.798643
     72          1           0       13.657039    0.410927    4.206376
     73          1           0       15.731287   -5.256652    2.986678
     74          1           0       16.191758   -3.971516    4.159476
     75          1           0       17.451055   -4.635714    3.037614
     76          1           0       17.278840   -4.072586   -2.043990
     77          1           0       15.221344   -6.501017   -4.957567
     78          1           0       14.855432   -4.774506   -5.561718
     79          1           0       13.883775   -5.665527   -4.375255
     80         12           0      -15.949856   -0.712211    0.377533
     81          6           0      -15.857205    2.148810   -1.786955
     82          6           0      -15.169887    1.392356    2.946012
     83          6           0      -15.580776   -3.264813    2.225623
     84          6           0      -15.588461   -2.699138   -2.462745
     85          7           0      -15.586186    1.468481    0.445249
     86          6           0      -15.639132    2.461999   -0.429090
     87          6           0      -15.527507    3.877472    0.198218
     88          6           0      -14.754966    3.481512    1.549239
     89          6           0      -15.222222    2.033566    1.682602
     90          6           0      -13.242616    3.483573    1.400401
     91          6           0      -16.931365    4.508530    0.503162
     92          6           0      -16.907556    6.003918    0.827182
     93          1           0      -18.023600    6.831384    0.377501
     94          7           0      -15.933641   -0.874224    2.355425
     95          6           0      -15.614257    0.086324    3.247963
     96          6           0      -15.737111   -0.539417    4.573675
     97          6           0      -15.995007   -1.992795    4.384294
     98          6           0      -15.822019   -2.106509    2.949987
     99          6           0      -15.688946    0.246219    5.851913
    100          6           0      -16.328008   -3.099861    5.338089
    101          8           0      -16.275577   -4.331009    4.985464
    102          6           0      -16.626537   -2.704904    6.722427
    103          7           0      -15.419400   -2.681233   -0.027312
    104          6           0      -15.384010   -3.602826    0.951131
    105          6           0      -15.248653   -4.995753    0.383842
    106          6           0      -15.444508   -4.837373   -1.195437
    107          6           0      -15.576211   -3.300921   -1.281279
    108          6           0      -13.922255   -5.701989    0.663614
    109          6           0      -16.543277   -5.711664   -1.859522
    110          6           0      -17.909928   -5.267952   -1.389664
    111          7           0      -15.940874   -0.385697   -1.758198
    112          6           0      -15.748631   -1.353638   -2.768265
    113          6           0      -15.710361   -0.634921   -4.058389
    114          6           0      -15.861155    0.714374   -3.704592
    115          6           0      -15.964422    0.830420   -2.292019
    116          6           0      -15.505542   -1.228743   -5.335699
    117          6           0      -15.945783    2.067895   -4.204109
    118          8           0      -16.005592    2.579315   -5.321513
    119          6           0      -15.820099    3.068681   -2.975686
    120          6           0      -16.911131    4.096595   -3.100498
    121          8           0      -18.105768    3.765548   -3.001139
    122          8           0      -16.361683    5.324791   -3.098707
    123          6           0      -17.405029    6.378832   -3.209434
    124          1           0      -14.706230    1.922766    3.778221
    125          1           0      -15.555651   -4.188621    2.808221
    126          1           0      -15.577221   -3.256443   -3.401873
    127          1           0      -14.937400    4.582887   -0.374438
    128          1           0      -15.103292    4.073694    2.391480
    129          1           0      -12.938870    3.636504    0.375461
    130          1           0      -12.911027    2.515659    1.752864
    131          1           0      -12.798243    4.219144    2.076999
    132          1           0      -17.300840    4.115053    1.458881
    133          1           0      -17.615080    4.324209   -0.302565
    134          1           0      -15.951427    6.468876    0.557785
    135          1           0      -16.968410    6.125059    1.911450
    136          1           0      -15.323108    1.266596    5.683377
    137          1           0      -14.922347   -0.216426    6.482902
    138          1           0      -16.640429    0.237353    6.387877
    139          1           0      -15.774885   -2.170996    7.137285
    140          1           0      -16.927508   -3.623444    7.229940
    141          1           0      -17.465258   -1.999893    6.711964
    142          1           0      -16.022514   -5.647591    0.770305
    143          1           0      -14.532230   -5.105943   -1.748117
    144          1           0      -14.045085   -6.672985    1.179509
    145          1           0      -13.298276   -5.037825    1.246760
    146          1           0      -13.304577   -5.888777   -0.213195
    147          1           0      -16.433468   -6.754947   -1.553490
    148          1           0      -16.516108   -5.689562   -2.943856
    149          1           0      -18.022806   -5.787473   -0.433394
    150          1           0      -18.676771   -5.574370   -2.098249
    151          1           0      -17.924933   -4.191374   -1.183711
    152          1           0      -16.214560   -0.767948   -6.010572
    153          1           0      -15.635497   -2.308303   -5.297709
    154          1           0      -14.464999   -0.946697   -5.517314
    155          1           0      -14.827285    3.518083   -3.019506
    156          1           0      -17.144194    6.996994   -4.074020
    157          1           0      -17.431097    6.878197   -2.222664
    158          1           0      -18.409175    6.064751   -3.469220
 ---------------------------------------------------------------------

 SCF Done:  E(RCAM-B3LYP) =  -4069.81178297     A.U. after   19 cycles

 Excitation energies and oscillator strengths:

 Excited State   1:      Singlet-A      1.6755 eV  739.97 nm  f=0.3585  <S**2>=0.000
     310 -> 316        0.17273
     312 -> 313        0.68255
     310 <- 316        0.10412
 This state for optimization and/or second-order correction.
 Total Energy, E(TD-HF/TD-DFT) =  -4069.75020872
 Copying the excited state density for this state as the 1-particle RhoCI density.

 Excited State   2:      Singlet-A      1.6799 eV  738.04 nm  f=0.4178  <S**2>=0.000
     309 -> 315        0.17464
     311 -> 314        0.68219
     309 <- 315        0.10458

 Excited State   3:      Singlet-A      2.1861 eV  567.14 nm  f=0.1010  <S**2>=0.000
     310 -> 313        0.64240
     312 -> 316       -0.27310

 Excited State   4:      Singlet-A      2.1925 eV  565.49 nm  f=0.0998  <S**2>=0.000
     309 -> 314        0.64062
     311 -> 315       -0.27824

 Excited State   5:      Singlet-A      3.0657 eV  404.43 nm  f=0.0000  <S**2>=0.000
     311 -> 313        0.70711

 The electronic state is 1-A.
 Alpha  occ. eigenvalues --  -46.87796 -46.87661 -19.26355 -19.26279 -19.19165
 Alpha  occ. eigenvalues --  -19.19016 -19.18816 -19.18712 -19.18168 -19.18054
 Alpha  occ. eigenvalues --  -14.42498 -14.42449 -14.41449 -14.41359 -14.39402
 Alpha  occ. eigenvalues --  -14.39352 -14.38601 -14.38586 -10.39095 -10.39075
 Alpha  occ. eigenvalues --  -10.35449 -10.35389 -10.34388 -10.34231 -10.31763
 Alpha  occ. eigenvalues --  -10.31673 -10.31403 -10.31310 -10.31024 -10.30907
 Alpha  occ. eigenvalues --  -10.30569 -10.30507 -10.30398 -10.30362 -10.30207
 Alpha  occ. eigenvalues --  -10.30140 -10.29921 -10.29894 -10.29630 -10.29437
 Alpha  occ. eigenvalues --  -10.29401 -10.29254 -10.28745 -10.28721 -10.28658
 Alpha  occ. eigenvalues --  -10.28530 -10.28405 -10.28364 -10.28141 -10.28113
 Alpha  occ. eigenvalues --  -10.28002 -10.27792 -10.27726 -10.27669 -10.27584
 Alpha  occ. eigenvalues --  -10.27516 -10.27504 -10.27484 -10.27479 -10.27467
 Alpha  occ. eigenvalues --  -10.27463 -10.27452 -10.27402 -10.27373 -10.27156
 Alpha  occ. eigenvalues --  -10.27053 -10.26699 -10.26695 -10.26411 -10.26410
 Alpha  occ. eigenvalues --  -10.26230 -10.26189 -10.26136 -10.26025 -10.26019
 Alpha  occ. eigenvalues --  -10.25934 -10.25854 -10.25844 -10.25439 -10.25392
 Alpha  occ. eigenvalues --  -10.24874 -10.24832 -10.24788 -10.24730 -10.24693
 Alpha  occ. eigenvalues --  -10.24690  -3.16539  -3.16411  -1.91420  -1.91293
 Alpha  occ. eigenvalues --   -1.91007  -1.90881  -1.90849  -1.90718  -1.16649
 Alpha  occ. eigenvalues --   -1.16628  -1.08662  -1.08625  -1.07217  -1.06965
 Alpha  occ. eigenvalues --   -1.06950  -1.06638  -1.04580  -1.04496  -1.03760
 Alpha  occ. eigenvalues --   -1.03664  -1.03233  -1.03039  -1.02411  -1.02112
 Alpha  occ. eigenvalues --   -0.91988  -0.91971  -0.89521  -0.89494  -0.89184
 Alpha  occ. eigenvalues --   -0.89152  -0.88288  -0.88219  -0.87870  -0.87795
 Alpha  occ. eigenvalues --   -0.87684  -0.87671  -0.87273  -0.87119  -0.85001
 Alpha  occ. eigenvalues --   -0.84979  -0.83938  -0.83875  -0.82968  -0.82930
 Alpha  occ. eigenvalues --   -0.82653  -0.82646  -0.81599  -0.81583  -0.80595
 Alpha  occ. eigenvalues --   -0.80444  -0.78796  -0.78636  -0.77218  -0.77145
 Alpha  occ. eigenvalues --   -0.76932  -0.76900  -0.75920  -0.75840  -0.74899
 Alpha  occ. eigenvalues --   -0.74802  -0.72774  -0.72700  -0.71671  -0.71581
 Alpha  occ. eigenvalues --   -0.69910  -0.69756  -0.68871  -0.68828  -0.67640
 Alpha  occ. eigenvalues --   -0.67602  -0.67216  -0.67201  -0.65284  -0.65273
 Alpha  occ. eigenvalues --   -0.64852  -0.64771  -0.64655  -0.64619  -0.64270
 Alpha  occ. eigenvalues --   -0.64203  -0.62295  -0.62281  -0.60442  -0.60339
 Alpha  occ. eigenvalues --   -0.59802  -0.59798  -0.58993  -0.58987  -0.58503
 Alpha  occ. eigenvalues --   -0.58426  -0.57582  -0.57557  -0.57309  -0.57237
 Alpha  occ. eigenvalues --   -0.56309  -0.56205  -0.55975  -0.55889  -0.55519
 Alpha  occ. eigenvalues --   -0.55453  -0.55340  -0.55248  -0.54523  -0.54489
 Alpha  occ. eigenvalues --   -0.53914  -0.53891  -0.53298  -0.53228  -0.53220
 Alpha  occ. eigenvalues --   -0.53143  -0.52913  -0.52904  -0.52754  -0.52667
 Alpha  occ. eigenvalues --   -0.52441  -0.52400  -0.51915  -0.51888  -0.51660
 Alpha  occ. eigenvalues --   -0.51614  -0.51203  -0.51195  -0.50572  -0.50473
 Alpha  occ. eigenvalues --   -0.50033  -0.49980  -0.49917  -0.49866  -0.49513
 Alpha  occ. eigenvalues --   -0.49488  -0.49213  -0.49204  -0.49106  -0.49093
 Alpha  occ. eigenvalues --   -0.48591  -0.48560  -0.48462  -0.48444  -0.48375
 Alpha  occ. eigenvalues --   -0.48338  -0.47693  -0.47595  -0.47296  -0.47118
 Alpha  occ. eigenvalues --   -0.46797  -0.46710  -0.46555  -0.46552  -0.46359
 Alpha  occ. eigenvalues --   -0.46271  -0.46162  -0.46086  -0.45825  -0.45820
 Alpha  occ. eigenvalues --   -0.45207  -0.45203  -0.44576  -0.44516  -0.44506
 Alpha  occ. eigenvalues --   -0.44477  -0.44145  -0.44128  -0.44086  -0.44078
 Alpha  occ. eigenvalues --   -0.44018  -0.43940  -0.43556  -0.43493  -0.43387
 Alpha  occ. eigenvalues --   -0.43384  -0.43026  -0.42933  -0.42903  -0.42697
 Alpha  occ. eigenvalues --   -0.42655  -0.42553  -0.42010  -0.41965  -0.41703
 Alpha  occ. eigenvalues --   -0.41671  -0.41531  -0.41460  -0.41140  -0.40990
 Alpha  occ. eigenvalues --   -0.40867  -0.40823  -0.40722  -0.40698  -0.40572
 Alpha  occ. eigenvalues --   -0.40493  -0.40229  -0.40228  -0.39444  -0.39425
 Alpha  occ. eigenvalues --   -0.38470  -0.38349  -0.37744  -0.37656  -0.37321
 Alpha  occ. eigenvalues --   -0.37266  -0.37261  -0.37201  -0.36775  -0.36711
 Alpha  occ. eigenvalues --   -0.36218  -0.36191  -0.34285  -0.34254  -0.33866
 Alpha  occ. eigenvalues --   -0.33767  -0.33185  -0.33176  -0.31345  -0.31271
 Alpha  occ. eigenvalues --   -0.31035  -0.30973  -0.30027  -0.29959  -0.29449
 Alpha  occ. eigenvalues --   -0.29327  -0.29321  -0.29213  -0.24080  -0.24037
 Alpha  occ. eigenvalues --   -0.21127  -0.21117
 Alpha virt. eigenvalues --   -0.08792  -0.08773  -0.01749  -0.01684  -0.00057
 Alpha virt. eigenvalues --   -0.00028   0.02201   0.02205   0.03121   0.03225
 Alpha virt. eigenvalues --    0.04720   0.04729   0.05102   0.05161   0.06180

 Mulliken charges:
               1
     1  Mg   0.838703
     2  C   -0.002945
     3  C   -0.094095
     4  C   -0.045920
     5  C   -0.063959
     6  N   -0.256790
     7  C   -0.052445
     8  C   -0.014028
     9  C   -0.086990
    10  C    0.046329
    11  C    0.104808
    12  C    0.053465
    13  C   -0.071843
    14  H    0.036196
    15  N   -0.433143
    16  C    0.168431
    17  C   -0.177131
    18  C   -0.004008
    19  C    0.148736
    20  C    0.110161
    21  C    0.012274
    22  O   -0.249667
    23  C    0.062483
    24  N   -0.341143
    25  C    0.041274
    26  C   -0.028168
    27  C   -0.023956
    28  C    0.074806
    29  C    0.076174
    30  C    0.035133
    31  C   -0.004490
    32  N   -0.310461
    33  C    0.080398
    34  C   -0.169730
    35  C    0.008366
    36  C    0.082980
    37  C    0.127314
    38  C    0.046116
    39  O   -0.188432
    40  C   -0.005339
    41  C    0.212894
    42  O   -0.257106
    43  O   -0.304798
    44  C    0.157677
    45  H   -0.017572
    46  H   -0.016867
    47  H   -0.041524
    48  H    0.000952
    49  H   -0.003993
    50  H    0.025473
    51  H    0.016432
    52  H    0.016688
    53  H    0.011216
    54  H    0.044124
    55  H    0.017874
    56  H    0.017982
    57  H    0.005911
    58  H    0.026831
    59  H    0.039584
    60  H    0.037364
    61  H    0.035619
    62  H    0.031523
    63  H    0.016515
    64  H    0.009450
    65  H    0.023177
    66  H    0.012564
    67  H    0.004743
    68  H    0.006321
    69  H    0.004719
    70  H    0.008751
    71  H    0.018097
    72  H    0.029016
    73  H    0.047562
    74  H    0.009082
    75  H    0.046009
    76  H    0.035161
    77  H    0.042956
    78  H    0.046434
    79  H    0.053699
    80  Mg   0.837808
    81  C   -0.016852
    82  C   -0.087770
    83  C   -0.045472
    84  C   -0.064857
    85  N   -0.254582
    86  C   -0.049827
    87  C   -0.015097
    88  C   -0.090533
    89  C    0.045781
    90  C    0.114372
    91  C    0.062511
    92  C   -0.077886
    93  H    0.034875
    94  N   -0.423476
    95  C    0.162916
    96  C   -0.174597
    97  C   -0.007757
    98  C    0.152104
    99  C    0.099347
   100  C    0.015593
   101  O   -0.253125
   102  C    0.061192
   103  N   -0.350062
   104  C    0.037553
   105  C   -0.019869
   106  C   -0.034798
   107  C    0.088908
   108  C    0.073626
   109  C    0.034720
   110  C   -0.007679
   111  N   -0.324091
   112  C    0.078426
   113  C   -0.163142
   114  C    0.002223
   115  C    0.096201
   116  C    0.131490
   117  C    0.042364
   118  O   -0.187930
   119  C    0.000937
   120  C    0.211257
   121  O   -0.251026
   122  O   -0.305638
   123  C    0.152040
   124  H   -0.019620
   125  H   -0.015521
   126  H   -0.040454
   127  H   -0.000666
   128  H   -0.004312
   129  H    0.022448
   130  H    0.014471
   131  H    0.016308
   132  H    0.013929
   133  H    0.037667
   134  H    0.020778
   135  H    0.019610
   136  H    0.008776
   137  H    0.026214
   138  H    0.039812
   139  H    0.038292
   140  H    0.036439
   141  H    0.033882
   142  H    0.014417
   143  H    0.012456
   144  H    0.025198
   145  H    0.011682
   146  H    0.005730
   147  H    0.006306
   148  H    0.003641
   149  H    0.010951
   150  H    0.017920
   151  H    0.030082
   152  H    0.045971
   153  H    0.008522
   154  H    0.046935
   155  H    0.035006
   156  H    0.043875
   157  H    0.049503
   158  H    0.053574
 Sum of Mulliken charges =  -0.00000

 Dipole moment (field-independent basis, Debye):
    X=              3.8058    Y=              4.5877    Z=              1.2797  Tot=              6.0966
 Quadrupole moment (field-independent basis, Debye-Ang):
   XX=           -518.2563   YY=           -519.5502   ZZ=           -479.2084
   XY=             33.0008   XZ=           -106.3602   YZ=             18.7322

 Normal termination of Gaussian 16 at Sat Sep  4 18:42:08 2021.
