 Gaussian 16, Revision A.03,
 Gaussian 16:  ES64L-G16RevA.03 25-Dec-2016

 -----------------------------------
 #p cam-b3lyp/Def2SVP td=(nstates=5)
 -----------------------------------

 --------------------------------
 TDDFT excited states in gaussian
 --------------------------------
 Symbolic Z-matrix:
 Charge =  0 Multiplicity = 1

                         Standard orientation:
 ---------------------------------------------------------------------
 Center     Atomic      Atomic             Coordinates (Angstroms)
 Number     Number       Type             X           Y           Z
 ---------------------------------------------------------------------
      1         12           0       -5.189796    0.647294    0.471622
      2          6           0       -5.605362   -2.254837   -1.581950
      3          6           0       -5.785156   -1.357958    3.167466
      4          6           0       -5.278006    3.263764    2.261293
      5          6           0       -5.753505    2.566214   -2.382435
      6          7           0       -5.625139   -1.516454    0.642843
      7          6           0       -5.697546   -2.528915   -0.215558
      8          6           0       -5.805094   -3.920086    0.477588
      9          6           0       -6.416126   -3.458076    1.875867
     10          6           0       -5.882023   -2.037165    1.916735
     11          6           0       -7.940612   -3.410329    1.888614
     12          6           0       -4.407890   -4.602799    0.660496
     13          6           0       -4.449904   -6.089235    1.026691
     14          1           0       -3.423362   -6.971360    0.492449
     15          7           0       -5.005271    0.869569    2.425949
     16          6           0       -5.276124   -0.057798    3.375642
     17          6           0       -4.980493    0.588458    4.672421
     18          6           0       -4.697433    2.026881    4.409913
     19          6           0       -5.011961    2.117788    3.006992
     20          6           0       -4.938543   -0.155466    5.971870
     21          6           0       -4.229385    3.144848    5.286961
     22          8           0       -4.270598    4.366438    4.912006
     23          6           0       -3.798299    2.776068    6.647552
     24          7           0       -5.690583    2.631930    0.061666
     25          6           0       -5.587720    3.577870    1.001666
     26          6           0       -5.722925    4.950484    0.412098
     27          6           0       -5.697623    4.755422   -1.172536
     28          6           0       -5.630430    3.208941   -1.218896
     29          6           0       -6.984598    5.728646    0.810414
     30          6           0       -4.638821    5.563745   -1.963719
     31          6           0       -3.252380    5.065266   -1.622549
     32          7           0       -5.431726    0.264140   -1.651044
     33          6           0       -5.679412    1.210610   -2.655792
     34          6           0       -5.874840    0.465116   -3.912818
     35          6           0       -5.742833   -0.872882   -3.546511
     36          6           0       -5.507572   -0.959131   -2.144546
     37          6           0       -6.194294    1.033212   -5.177591
     38          6           0       -5.770282   -2.250976   -4.009068
     39          8           0       -5.835679   -2.794064   -5.112822
     40          6           0       -5.803625   -3.206400   -2.735537
     41          6           0       -4.771752   -4.280726   -2.946182
     42          8           0       -3.555014   -4.004083   -2.965751
     43          8           0       -5.357817   -5.484275   -2.853770
     44          6           0       -4.383637   -6.595207   -3.023935
     45          1           0       -6.188451   -1.837863    4.061326
     46          1           0       -5.208183    4.198391    2.821680
     47          1           0       -5.849464    3.101971   -3.328590
     48          1           0       -6.482425   -4.620405   -0.011492
     49          1           0       -6.014744   -4.037819    2.706838
     50          1           0       -8.352783   -3.577724    0.893619
     51          1           0       -8.197593   -2.412317    2.244177
     52          1           0       -8.343736   -4.104355    2.626582
     53          1           0       -3.927750   -4.204976    1.554511
     54          1           0       -3.793149   -4.468154   -0.230173
     55          1           0       -5.441073   -6.512559    0.861500
     56          1           0       -4.291877   -6.180841    2.101324
     57          1           0       -5.350857   -1.158789    5.872446
     58          1           0       -5.621800    0.352825    6.651950
     59          1           0       -3.937168   -0.173482    6.402284
     60          1           0       -4.624483    2.290897    7.167723
     61          1           0       -3.413297    3.689748    7.099009
     62          1           0       -3.002514    2.033994    6.576834
     63          1           0       -4.889395    5.586614    0.707045
     64          1           0       -6.644974    5.034817   -1.634205
     65          1           0       -6.776075    6.693719    1.272859
     66          1           0       -7.575033    5.096778    1.473302
     67          1           0       -7.687826    5.906330   -0.002800
     68          1           0       -4.678961    6.616130   -1.684753
     69          1           0       -4.769187    5.501847   -3.044193
     70          1           0       -3.019222    5.603535   -0.704543
     71          1           0       -2.549613    5.323121   -2.415544
     72          1           0       -3.259337    4.001580   -1.383784
     73          1           0       -5.568012    0.521934   -5.908572
     74          1           0       -6.015277    2.108152   -5.185432
     75          1           0       -7.253349    0.785739   -5.248416
     76          1           0       -6.812378   -3.613767   -2.675604
     77          1           0       -4.749898   -7.221499   -3.837474
     78          1           0       -4.265894   -7.056998   -2.043481
     79          1           0       -3.399323   -6.319225   -3.403803
     80         12           0        5.344109    0.660414   -0.624331
     81          6           0        5.327839   -2.449679    1.166243
     82          6           0        4.773167    2.209978    2.360200
     83          6           0        4.904834    3.364348   -2.225318
     84          6           0        4.772602   -1.171249   -3.533640
     85          7           0        5.101741   -0.126089    1.428698
     86          6           0        5.176569   -1.320054    1.997208
     87          6           0        5.164645   -1.295309    3.549247
     88          6           0        4.421441    0.112331    3.761590
     89          6           0        4.814156    0.795868    2.453449
     90          6           0        2.907014   -0.006824    3.802335
     91          6           0        6.610765   -1.278911    4.157917
     92          6           0        6.679757   -1.565592    5.659514
     93          1           0        7.821873   -2.316902    6.172916
     94          7           0        5.391104    2.544023   -0.001154
     95          6           0        5.156867    2.993396    1.249635
     96          6           0        5.293793    4.456639    1.183672
     97          6           0        5.465572    4.847890   -0.241857
     98          6           0        5.234623    3.574696   -0.894322
     99          6           0        5.334760    5.326028    2.406736
    100          6           0        5.772606    6.154648   -0.908434
    101          8           0        5.640799    6.312552   -2.173550
    102          6           0        6.142238    7.270270   -0.025111
    103          7           0        4.693451    1.064867   -2.557052
    104          6           0        4.643830    2.326263   -3.020030
    105          6           0        4.412715    2.350969   -4.512129
    106          6           0        4.559281    0.833352   -4.994770
    107          6           0        4.770768    0.151539   -3.625168
    108          6           0        3.061073    2.901081   -4.966923
    109          6           0        5.584219    0.550847   -6.127191
    110          6           0        6.989067    0.792765   -5.623952
    111          7           0        5.275148   -1.432507   -1.156296
    112          6           0        4.994170   -1.980848   -2.426912
    113          6           0        4.947971   -3.448750   -2.267074
    114          6           0        5.184360   -3.653011   -0.899274
    115          6           0        5.345074   -2.399872   -0.248669
    116          6           0        4.664976   -4.389230   -3.297378
    117          6           0        5.323919   -4.643326    0.144039
    118          8           0        5.370658   -5.872401    0.174490
    119          6           0        5.297378   -3.903011    1.550323
    120          6           0        6.437197   -4.433504    2.376093
    121          8           0        7.614979   -4.227244    2.034186
    122          8           0        5.955485   -4.905683    3.540305
    123          6           0        7.049646   -5.432839    4.398633
    124          1           0        4.369494    2.773920    3.201572
    125          1           0        4.850934    4.262230   -2.845299
    126          1           0        4.697055   -1.817215   -4.410965
    127          1           0        4.593151   -2.091011    4.011866
    128          1           0        4.831725    0.651338    4.611591
    129          1           0        2.574915   -1.006049    3.562775
    130          1           0        2.536539    0.700328    3.071769
    131          1           0        2.528025    0.333423    4.770280
    132          1           0        6.992904   -0.250054    4.145312
    133          1           0        7.253730   -1.956616    3.630725
    134          1           0        5.741042   -1.983652    6.042899
    135          1           0        6.786473   -0.616013    6.189548
    136          1           0        5.018812    4.776186    3.301868
    137          1           0        4.567697    6.097120    2.276772
    138          1           0        6.303234    5.810970    2.546559
    139          1           0        5.336401    7.453589    0.681628
    140          1           0        6.411294    8.092992   -0.690408
    141          1           0        7.016961    6.974455    0.564769
    142          1           0        5.163688    2.952116   -5.009883
    143          1           0        3.614305    0.441109   -5.398491
    144          1           0        3.149836    3.754232   -5.665721
    145          1           0        2.495593    3.185475   -4.089487
    146          1           0        2.402707    2.174942   -5.440714
    147          1           0        5.429283    1.242036   -6.959300
    148          1           0        5.518859   -0.455246   -6.527804
    149          1           0        7.108365    1.874598   -5.735702
    150          1           0        7.711919    0.251200   -6.230765
    151          1           0        7.069819    0.560845   -4.555610
    152          1           0        5.372889   -5.199280   -3.182526
    153          1           0        4.737582   -3.933449   -4.282652
    154          1           0        3.635309   -4.653902   -3.042409
    155          1           0        4.329416   -4.106952    2.009687
    156          1           0        6.791383   -6.467098    4.646217
    157          1           0        7.138586   -4.720553    5.240349
    158          1           0        8.025202   -5.561358    3.944513
 ---------------------------------------------------------------------

 SCF Done:  E(RCAM-B3LYP) =  -4069.81191033     A.U. after   19 cycles

 Excitation energies and oscillator strengths:

 Excited State   1:      Singlet-A      1.6668 eV  743.85 nm  f=0.2149  <S**2>=0.000
     309 -> 315       -0.10892
     310 -> 316        0.13254
     311 -> 313        0.43460
     312 -> 314        0.53118
 This state for optimization and/or second-order correction.
 Total Energy, E(TD-HF/TD-DFT) =  -4069.75065729
 Copying the excited state density for this state as the 1-particle RhoCI density.

 Excited State   2:      Singlet-A      1.6844 eV  736.07 nm  f=0.4871  <S**2>=0.000
     309 -> 315       -0.13634
     310 -> 316       -0.11176
     311 -> 313        0.53032
     312 -> 314       -0.43409

 Excited State   3:      Singlet-A      2.1852 eV  567.38 nm  f=0.0845  <S**2>=0.000
     309 -> 313       -0.13664
     310 -> 314        0.62794
     312 -> 316       -0.26672

 Excited State   4:      Singlet-A      2.1911 eV  565.85 nm  f=0.1116  <S**2>=0.000
     309 -> 313        0.62625
     310 -> 314        0.13554
     311 -> 315        0.27093

 Excited State   5:      Singlet-A      2.4856 eV  498.81 nm  f=0.0000  <S**2>=0.000
     312 -> 313        0.70709

 The electronic state is 1-A.
 Alpha  occ. eigenvalues --  -46.87877 -46.87502 -19.26304 -19.26291 -19.19094
 Alpha  occ. eigenvalues --  -19.19044 -19.18957 -19.18579 -19.18242 -19.17925
 Alpha  occ. eigenvalues --  -14.42523 -14.42351 -14.41527 -14.41193 -14.39491
 Alpha  occ. eigenvalues --  -14.39198 -14.38666 -14.38438 -10.39105 -10.39020
 Alpha  occ. eigenvalues --  -10.35594 -10.35258 -10.34458 -10.34104 -10.31739
 Alpha  occ. eigenvalues --  -10.31654 -10.31468 -10.31167 -10.30982 -10.30897
 Alpha  occ. eigenvalues --  -10.30646 -10.30593 -10.30293 -10.30234 -10.30200
 Alpha  occ. eigenvalues --  -10.29996 -10.29966 -10.29721 -10.29720 -10.29347
 Alpha  occ. eigenvalues --  -10.29273 -10.29241 -10.28782 -10.28643 -10.28634
 Alpha  occ. eigenvalues --  -10.28496 -10.28448 -10.28259 -10.28158 -10.28058
 Alpha  occ. eigenvalues --  -10.27881 -10.27844 -10.27802 -10.27683 -10.27602
 Alpha  occ. eigenvalues --  -10.27569 -10.27523 -10.27521 -10.27476 -10.27340
 Alpha  occ. eigenvalues --  -10.27322 -10.27310 -10.27308 -10.27211 -10.27186
 Alpha  occ. eigenvalues --  -10.26943 -10.26708 -10.26635 -10.26604 -10.26297
 Alpha  occ. eigenvalues --  -10.26274 -10.26235 -10.26098 -10.25971 -10.25945
 Alpha  occ. eigenvalues --  -10.25923 -10.25752 -10.25622 -10.25507 -10.25191
 Alpha  occ. eigenvalues --  -10.24917 -10.24871 -10.24729 -10.24714 -10.24565
 Alpha  occ. eigenvalues --  -10.24532  -3.16619  -3.16252  -1.91501  -1.91134
 Alpha  occ. eigenvalues --   -1.91087  -1.90930  -1.90723  -1.90560  -1.16644
 Alpha  occ. eigenvalues --   -1.16592  -1.08695  -1.08538  -1.07362  -1.06879
 Alpha  occ. eigenvalues --   -1.06833  -1.06666  -1.04654  -1.04353  -1.03839
 Alpha  occ. eigenvalues --   -1.03508  -1.03317  -1.02873  -1.02492  -1.01951
 Alpha  occ. eigenvalues --   -0.92042  -0.91847  -0.89590  -0.89324  -0.89227
 Alpha  occ. eigenvalues --   -0.89059  -0.88357  -0.88044  -0.87952  -0.87740
 Alpha  occ. eigenvalues --   -0.87618  -0.87536  -0.87389  -0.86973  -0.85031
 Alpha  occ. eigenvalues --   -0.84894  -0.84001  -0.83707  -0.83096  -0.82788
 Alpha  occ. eigenvalues --   -0.82708  -0.82542  -0.81628  -0.81489  -0.80663
 Alpha  occ. eigenvalues --   -0.80318  -0.78896  -0.78480  -0.77283  -0.77017
 Alpha  occ. eigenvalues --   -0.76972  -0.76781  -0.75971  -0.75731  -0.74963
 Alpha  occ. eigenvalues --   -0.74641  -0.72851  -0.72538  -0.71738  -0.71440
 Alpha  occ. eigenvalues --   -0.69968  -0.69582  -0.68933  -0.68716  -0.67723
 Alpha  occ. eigenvalues --   -0.67461  -0.67272  -0.67099  -0.65333  -0.65168
 Alpha  occ. eigenvalues --   -0.64917  -0.64675  -0.64628  -0.64533  -0.64338
 Alpha  occ. eigenvalues --   -0.64038  -0.62335  -0.62173  -0.60545  -0.60185
 Alpha  occ. eigenvalues --   -0.59860  -0.59684  -0.59058  -0.58843  -0.58575
 Alpha  occ. eigenvalues --   -0.58284  -0.57640  -0.57441  -0.57383  -0.57082
 Alpha  occ. eigenvalues --   -0.56393  -0.56059  -0.56007  -0.55797  -0.55613
 Alpha  occ. eigenvalues --   -0.55396  -0.55331  -0.55099  -0.54569  -0.54354
 Alpha  occ. eigenvalues --   -0.53936  -0.53822  -0.53393  -0.53292  -0.53080
 Alpha  occ. eigenvalues --   -0.53025  -0.52978  -0.52848  -0.52791  -0.52548
 Alpha  occ. eigenvalues --   -0.52498  -0.52230  -0.51993  -0.51688  -0.51677
 Alpha  occ. eigenvalues --   -0.51556  -0.51256  -0.51065  -0.50708  -0.50338
 Alpha  occ. eigenvalues --   -0.50102  -0.50021  -0.49861  -0.49699  -0.49589
 Alpha  occ. eigenvalues --   -0.49367  -0.49293  -0.49144  -0.49085  -0.48988
 Alpha  occ. eigenvalues --   -0.48648  -0.48569  -0.48517  -0.48443  -0.48222
 Alpha  occ. eigenvalues --   -0.48199  -0.47767  -0.47467  -0.47377  -0.46972
 Alpha  occ. eigenvalues --   -0.46862  -0.46600  -0.46567  -0.46448  -0.46434
 Alpha  occ. eigenvalues --   -0.46227  -0.46115  -0.45925  -0.45872  -0.45691
 Alpha  occ. eigenvalues --   -0.45272  -0.45044  -0.44646  -0.44589  -0.44406
 Alpha  occ. eigenvalues --   -0.44347  -0.44221  -0.44138  -0.44093  -0.44011
 Alpha  occ. eigenvalues --   -0.43931  -0.43816  -0.43544  -0.43448  -0.43445
 Alpha  occ. eigenvalues --   -0.43260  -0.43094  -0.42838  -0.42760  -0.42752
 Alpha  occ. eigenvalues --   -0.42688  -0.42390  -0.42063  -0.41827  -0.41774
 Alpha  occ. eigenvalues --   -0.41577  -0.41536  -0.41344  -0.41206  -0.40955
 Alpha  occ. eigenvalues --   -0.40903  -0.40861  -0.40632  -0.40610  -0.40585
 Alpha  occ. eigenvalues --   -0.40331  -0.40258  -0.40150  -0.39499  -0.39247
 Alpha  occ. eigenvalues --   -0.38530  -0.38190  -0.37777  -0.37567  -0.37389
 Alpha  occ. eigenvalues --   -0.37309  -0.37108  -0.37073  -0.36749  -0.36686
 Alpha  occ. eigenvalues --   -0.36240  -0.36074  -0.34362  -0.34102  -0.33806
 Alpha  occ. eigenvalues --   -0.33778  -0.33262  -0.33019  -0.31484  -0.31137
 Alpha  occ. eigenvalues --   -0.31112  -0.30825  -0.30098  -0.29832  -0.29549
 Alpha  occ. eigenvalues --   -0.29407  -0.29173  -0.29049  -0.24157  -0.23878
 Alpha  occ. eigenvalues --   -0.21208  -0.20959
 Alpha virt. eigenvalues --   -0.08862  -0.08635  -0.01834  -0.01526  -0.00162
 Alpha virt. eigenvalues --    0.00108   0.02120   0.02359   0.03024   0.03375
 Alpha virt. eigenvalues --    0.04667   0.04858   0.05067   0.05241   0.06174

 Mulliken charges:
               1
     1  Mg   0.838613
     2  C   -0.002846
     3  C   -0.094122
     4  C   -0.046114
     5  C   -0.063986
     6  N   -0.256835
     7  C   -0.052160
     8  C   -0.014002
     9  C   -0.086987
    10  C    0.046315
    11  C    0.104793
    12  C    0.053466
    13  C   -0.072594
    14  H    0.038286
    15  N   -0.433029
    16  C    0.168141
    17  C   -0.177467
    18  C   -0.004540
    19  C    0.148562
    20  C    0.110197
    21  C    0.011467
    22  O   -0.249971
    23  C    0.062901
    24  N   -0.341191
    25  C    0.041330
    26  C   -0.028106
    27  C   -0.024071
    28  C    0.075096
    29  C    0.076162
    30  C    0.035072
    31  C   -0.004483
    32  N   -0.310518
    33  C    0.080615
    34  C   -0.169812
    35  C    0.008406
    36  C    0.083077
    37  C    0.127332
    38  C    0.046064
    39  O   -0.188162
    40  C   -0.005227
    41  C    0.212901
    42  O   -0.257148
    43  O   -0.304827
    44  C    0.157552
    45  H   -0.017508
    46  H   -0.017125
    47  H   -0.041308
    48  H    0.001190
    49  H   -0.003837
    50  H    0.025560
    51  H    0.016272
    52  H    0.016863
    53  H    0.010917
    54  H    0.044386
    55  H    0.017741
    56  H    0.017969
    57  H    0.006251
    58  H    0.026866
    59  H    0.038389
    60  H    0.037929
    61  H    0.034824
    62  H    0.030003
    63  H    0.016269
    64  H    0.009614
    65  H    0.023092
    66  H    0.012537
    67  H    0.004945
    68  H    0.006556
    69  H    0.004889
    70  H    0.008425
    71  H    0.019181
    72  H    0.028643
    73  H    0.047393
    74  H    0.009239
    75  H    0.046291
    76  H    0.035379
    77  H    0.043082
    78  H    0.047009
    79  H    0.053925
    80  Mg   0.838236
    81  C   -0.016998
    82  C   -0.087987
    83  C   -0.045398
    84  C   -0.062813
    85  N   -0.254469
    86  C   -0.049845
    87  C   -0.015049
    88  C   -0.090534
    89  C    0.045612
    90  C    0.114596
    91  C    0.062666
    92  C   -0.077532
    93  H    0.034501
    94  N   -0.423436
    95  C    0.162736
    96  C   -0.174601
    97  C   -0.007999
    98  C    0.152062
    99  C    0.099368
   100  C    0.015388
   101  O   -0.253537
   102  C    0.061239
   103  N   -0.349874
   104  C    0.037747
   105  C   -0.020034
   106  C   -0.035284
   107  C    0.088933
   108  C    0.073355
   109  C    0.034650
   110  C   -0.007585
   111  N   -0.324307
   112  C    0.078452
   113  C   -0.161795
   114  C    0.002187
   115  C    0.096516
   116  C    0.131262
   117  C    0.042608
   118  O   -0.188607
   119  C    0.000822
   120  C    0.211086
   121  O   -0.251014
   122  O   -0.305915
   123  C    0.152156
   124  H   -0.019863
   125  H   -0.015828
   126  H   -0.039293
   127  H   -0.001594
   128  H   -0.004826
   129  H    0.021989
   130  H    0.015541
   131  H    0.014424
   132  H    0.014070
   133  H    0.037695
   134  H    0.019928
   135  H    0.019431
   136  H    0.008562
   137  H    0.026458
   138  H    0.039283
   139  H    0.038348
   140  H    0.035969
   141  H    0.033700
   142  H    0.013922
   143  H    0.014765
   144  H    0.024179
   145  H    0.011527
   146  H    0.007550
   147  H    0.006190
   148  H    0.004171
   149  H    0.010588
   150  H    0.017623
   151  H    0.029836
   152  H    0.045084
   153  H    0.008908
   154  H    0.049514
   155  H    0.034474
   156  H    0.043334
   157  H    0.049171
   158  H    0.053607
 Sum of Mulliken charges =  -0.00000

 Dipole moment (field-independent basis, Debye):
    X=             -3.4089    Y=              1.8761    Z=              6.5962  Tot=              7.6583
 Quadrupole moment (field-independent basis, Debye-Ang):
   XX=           -519.1400   YY=           -521.0970   ZZ=           -478.1032
   XY=             24.7769   XZ=             -3.3770   YZ=            -20.4421

 Normal termination of Gaussian 16 at Sat Sep  4 04:27:22 2021.
