 Gaussian 16, Revision A.03,
 Gaussian 16:  ES64L-G16RevA.03 25-Dec-2016

 -----------------------------------
 #p cam-b3lyp/Def2SVP td=(nstates=5)
 -----------------------------------

 --------------------------------
 TDDFT excited states in gaussian
 --------------------------------
 Symbolic Z-matrix:
 Charge =  0 Multiplicity = 1

                         Standard orientation:
 ---------------------------------------------------------------------
 Center     Atomic      Atomic             Coordinates (Angstroms)
 Number     Number       Type             X           Y           Z
 ---------------------------------------------------------------------
      1         12           0        4.453484   -0.601984    0.774804
      2          6           0        5.043931    2.048882   -1.556825
      3          6           0        4.881057    1.692421    3.263971
      4          6           0        4.387187   -3.000351    2.848463
      5          6           0        5.194096   -2.832115   -1.798845
      6          7           0        4.899814    1.565883    0.732552
      7          6           0        5.043345    2.474915   -0.226735
      8          6           0        5.117601    3.934993    0.311810
      9          6           0        5.624145    3.631581    1.792807
     10          6           0        5.072727    2.226029    1.954942
     11          6           0        7.143380    3.580740    1.918673
     12          6           0        3.718702    4.638399    0.317635
     13          6           0        3.751520    6.156494    0.516794
     14          1           0        2.774737    6.976040   -0.184339
     15          7           0        4.130238   -0.602000    2.723743
     16          6           0        4.344285    0.425626    3.580162
     17          6           0        3.951497   -0.069422    4.917071
     18          6           0        3.671517   -1.527360    4.798239
     19          6           0        4.082386   -1.776798    3.440172
     20          6           0        3.827020    0.816343    6.118602
     21          6           0        3.130862   -2.537869    5.759850
     22          8           0        3.184619   -3.794059    5.528183
     23          6           0        2.609780   -2.016732    7.036538
     24          7           0        4.959626   -2.621758    0.626578
     25          6           0        4.780747   -3.455400    1.657125
     26          6           0        4.941594   -4.886136    1.236337
     27          6           0        5.029376   -4.870829   -0.357969
     28          6           0        4.982790   -3.339220   -0.582185
     29          6           0        6.163582   -5.618446    1.807719
     30          6           0        4.019593   -5.759808   -1.126392
     31          6           0        2.618311   -5.221660   -0.942271
     32          7           0        4.847557   -0.461270   -1.354973
     33          6           0        5.154384   -1.515728   -2.227125
     34          6           0        5.445545   -0.917277   -3.542856
     35          6           0        5.303121    0.453892   -3.339247
     36          6           0        4.971336    0.698342   -1.975995
     37          6           0        5.846357   -1.625306   -4.710109
     38          6           0        5.378181    1.770981   -3.950392
     39          8           0        5.526664    2.186003   -5.100698
     40          6           0        5.332974    2.863737   -2.792952
     41          6           0        4.330373    3.910745   -3.195288
     42          8           0        3.114984    3.637520   -3.269744
     43          8           0        4.921882    5.115176   -3.197256
     44          6           0        3.974405    6.202936   -3.559496
     45          1           0        5.226146    2.268726    4.124626
     46          1           0        4.267945   -3.865641    3.503820
     47          1           0        5.350046   -3.471394   -2.669738
     48          1           0        5.835230    4.573579   -0.203593
     49          1           0        5.172087    4.302552    2.522987
     50          1           0        7.625982    3.633622    0.942855
     51          1           0        7.363745    2.628349    2.401253
     52          1           0        7.501583    4.352232    2.600778
     53          1           0        3.172804    4.345393    1.214409
     54          1           0        3.166314    4.406182   -0.593556
     55          1           0        4.756463    6.555359    0.375704
     56          1           0        3.519733    6.369131    1.560470
     57          1           0        4.256409    1.800755    5.936662
     58          1           0        4.455336    0.385772    6.898049
     59          1           0        2.798252    0.885928    6.472333
     60          1           0        3.402895   -1.478650    7.556139
     61          1           0        2.184005   -2.872485    7.559274
     62          1           0        1.829191   -1.284836    6.826875
     63          1           0        4.082452   -5.482325    1.541068
     64          1           0        6.003538   -5.203478   -0.717175
     65          1           0        5.912502   -6.524586    2.359601
     66          1           0        6.713187   -4.917771    2.435636
     67          1           0        6.919956   -5.888879    1.071389
     68          1           0        4.028417   -6.774170   -0.728976
     69          1           0        4.225905   -5.820490   -2.195038
     70          1           0        2.315535   -5.652296    0.011516
     71          1           0        1.969916   -5.565014   -1.749058
     72          1           0        2.620374   -4.137868   -0.824467
     73          1           0        5.278467   -1.197684   -5.536311
     74          1           0        5.656387   -2.693707   -4.609943
     75          1           0        6.910458   -1.390752   -4.733133
     76          1           0        6.339529    3.272062   -2.707872
     77          1           0        4.403620    6.732386   -4.410197
     78          1           0        3.793505    6.772656   -2.647849
     79          1           0        3.016069    5.889024   -3.974695
     80         12           0       -4.397749   -0.682036   -0.787643
     81          6           0       -5.292008    1.835672    1.608294
     82          6           0       -4.661166    1.723816   -3.191198
     83          6           0       -4.056025   -2.962400   -2.967231
     84          6           0       -5.312860   -3.066425    1.583638
     85          7           0       -4.915800    1.465629   -0.680932
     86          6           0       -5.176278    2.326757    0.291152
     87          6           0       -5.241525    3.809535   -0.163481
     88          6           0       -5.600572    3.571149   -1.710454
     89          6           0       -4.993128    2.181519   -1.891037
     90          6           0       -7.094245    3.477434   -1.974075
     91          6           0       -3.865665    4.545933   -0.000008
     92          6           0       -3.931903    6.069121   -0.131456
     93          1           0       -3.045381    6.878687    0.699895
     94          7           0       -3.886525   -0.563027   -2.701551
     95          6           0       -4.044109    0.497244   -3.521476
     96          6           0       -3.528754    0.072309   -4.832201
     97          6           0       -3.205968   -1.378729   -4.761343
     98          6           0       -3.734725   -1.702737   -3.451562
     99          6           0       -3.310468    1.027634   -5.969366
    100          6           0       -2.543930   -2.321818   -5.719725
    101          8           0       -2.580957   -3.591556   -5.548808
    102          6           0       -1.931325   -1.720615   -6.913354
    103          7           0       -4.845341   -2.712307   -0.786225
    104          6           0       -4.547096   -3.486724   -1.844173
    105          6           0       -4.705790   -4.950905   -1.510427
    106          6           0       -4.940498   -5.008196    0.070466
    107          6           0       -4.966940   -3.494768    0.377390
    108          6           0       -5.849084   -5.675048   -2.220976
    109          6           0       -3.981244   -5.912359    0.892048
    110          6           0       -2.582440   -5.339661    0.864859
    111          7           0       -4.988158   -0.661997    1.290600
    112          6           0       -5.352640   -1.771470    2.084518
    113          6           0       -5.785300   -1.245393    3.395428
    114          6           0       -5.663413    0.146167    3.264390
    115          6           0       -5.207561    0.465971    1.956935
    116          6           0       -6.263062   -2.023439    4.487448
    117          6           0       -5.826861    1.417865    3.931310
    118          8           0       -6.102712    1.768280    5.077982
    119          6           0       -5.714389    2.575035    2.847472
    120          6           0       -4.784741    3.627522    3.386472
    121          8           0       -3.581518    3.373277    3.571472
    122          8           0       -5.417473    4.814967    3.388768
    123          6           0       -4.532274    5.892936    3.904723
    124          1           0       -4.936536    2.343150   -4.045289
    125          1           0       -3.850383   -3.794540   -3.644524
    126          1           0       -5.519786   -3.750929    2.409059
    127          1           0       -6.017843    4.396763    0.312193
    128          1           0       -5.097469    4.293062   -2.348497
    129          1           0       -7.665328    3.468554   -1.057594
    130          1           0       -7.239374    2.553986   -2.519247
    131          1           0       -7.408905    4.278530   -2.649024
    132          1           0       -3.228815    4.310449   -0.862399
    133          1           0       -3.401209    4.283402    0.930570
    134          1           0       -4.961195    6.443478   -0.073450
    135          1           0       -3.602449    6.345387   -1.136028
    136          1           0       -3.793043    1.994549   -5.780703
    137          1           0       -3.844877    0.621678   -6.835095
    138          1           0       -2.255350    1.141715   -6.227018
    139          1           0       -2.688487   -1.176073   -7.472492
    140          1           0       -1.431903   -2.542071   -7.430726
    141          1           0       -1.187225   -0.983629   -6.591181
    142          1           0       -3.805559   -5.502453   -1.752253
    143          1           0       -5.938589   -5.397012    0.320378
    144          1           0       -5.514388   -6.555974   -2.800649
    145          1           0       -6.354684   -4.966639   -2.863681
    146          1           0       -6.654807   -6.014334   -1.572212
    147          1           0       -3.918637   -6.905952    0.441481
    148          1           0       -4.290510   -6.045354    1.923388
    149          1           0       -2.181560   -5.712363   -0.082492
    150          1           0       -2.002411   -5.705060    1.709906
    151          1           0       -2.606289   -4.245367    0.804962
    152          1           0       -5.795280   -1.628372    5.379406
    153          1           0       -6.036239   -3.079000    4.352859
    154          1           0       -7.335216   -1.821672    4.416361
    155          1           0       -6.719138    2.964127    2.678203
    156          1           0       -5.060113    6.368838    4.736941
    157          1           0       -4.293790    6.527637    3.030632
    158          1           0       -3.606893    5.595215    4.383779
 ---------------------------------------------------------------------

 SCF Done:  E(RCAM-B3LYP) =  -4069.81263455     A.U. after   18 cycles

 Excitation energies and oscillator strengths:

 Excited State   1:      Singlet-A      1.6488 eV  751.95 nm  f=0.0059  <S**2>=0.000
     309 -> 315        0.11372
     310 -> 316        0.12268
     311 -> 313       -0.46403
     312 -> 314        0.50266
 This state for optimization and/or second-order correction.
 Total Energy, E(TD-HF/TD-DFT) =  -4069.75204063
 Copying the excited state density for this state as the 1-particle RhoCI density.

 Excited State   2:      Singlet-A      1.7039 eV  727.66 nm  f=0.6970  <S**2>=0.000
     309 -> 315       -0.13356
     310 -> 316        0.12276
     311 -> 313        0.50021
     312 -> 314        0.46188

 Excited State   3:      Singlet-A      2.1844 eV  567.60 nm  f=0.0132  <S**2>=0.000
     309 -> 313        0.32935
     310 -> 314        0.55023
     311 -> 315        0.13813
     312 -> 316       -0.23224

 Excited State   4:      Singlet-A      2.1969 eV  564.36 nm  f=0.1633  <S**2>=0.000
     309 -> 313        0.54582
     310 -> 314       -0.32506
     311 -> 315        0.24175
     312 -> 316        0.14469

 Excited State   5:      Singlet-A      2.4818 eV  499.58 nm  f=0.0000  <S**2>=0.000
     312 -> 313        0.70348

 The electronic state is 1-A.
 Alpha  occ. eigenvalues --  -46.87620 -46.87469 -19.26343 -19.26309 -19.19142
 Alpha  occ. eigenvalues --  -19.19036 -19.18596 -19.18478 -19.18077 -19.17928
 Alpha  occ. eigenvalues --  -14.42308 -14.42278 -14.41275 -14.41177 -14.39217
 Alpha  occ. eigenvalues --  -14.39149 -14.38424 -14.38420 -10.39083 -10.39061
 Alpha  occ. eigenvalues --  -10.35223 -10.35147 -10.34301 -10.34111 -10.31799
 Alpha  occ. eigenvalues --  -10.31753 -10.31253 -10.31139 -10.30825 -10.30735
 Alpha  occ. eigenvalues --  -10.30407 -10.30343 -10.30220 -10.30180 -10.30009
 Alpha  occ. eigenvalues --  -10.29935 -10.29768 -10.29739 -10.29457 -10.29222
 Alpha  occ. eigenvalues --  -10.29205 -10.29059 -10.28611 -10.28560 -10.28554
 Alpha  occ. eigenvalues --  -10.28454 -10.28214 -10.28196 -10.27973 -10.27969
 Alpha  occ. eigenvalues --  -10.27811 -10.27625 -10.27549 -10.27470 -10.27392
 Alpha  occ. eigenvalues --  -10.27353 -10.27321 -10.27309 -10.27290 -10.27253
 Alpha  occ. eigenvalues --  -10.27249 -10.27230 -10.27194 -10.27117 -10.27079
 Alpha  occ. eigenvalues --  -10.26945 -10.26567 -10.26529 -10.26108 -10.26105
 Alpha  occ. eigenvalues --  -10.26073 -10.25983 -10.25971 -10.25883 -10.25838
 Alpha  occ. eigenvalues --  -10.25747 -10.25728 -10.25722 -10.25296 -10.25274
 Alpha  occ. eigenvalues --  -10.24696 -10.24680 -10.24621 -10.24543 -10.24515
 Alpha  occ. eigenvalues --  -10.24452  -3.16362  -3.16219  -1.91244  -1.91101
 Alpha  occ. eigenvalues --   -1.90830  -1.90690  -1.90673  -1.90527  -1.16654
 Alpha  occ. eigenvalues --   -1.16632  -1.08551  -1.08550  -1.06996  -1.06923
 Alpha  occ. eigenvalues --   -1.06731  -1.06656  -1.04413  -1.04308  -1.03588
 Alpha  occ. eigenvalues --   -1.03475  -1.03060  -1.02853  -1.02241  -1.01928
 Alpha  occ. eigenvalues --   -0.91834  -0.91828  -0.89344  -0.89321  -0.89043
 Alpha  occ. eigenvalues --   -0.88988  -0.88116  -0.88055  -0.87723  -0.87630
 Alpha  occ. eigenvalues --   -0.87504  -0.87500  -0.87049  -0.86860  -0.84834
 Alpha  occ. eigenvalues --   -0.84833  -0.83773  -0.83721  -0.82743  -0.82696
 Alpha  occ. eigenvalues --   -0.82490  -0.82458  -0.81504  -0.81493  -0.80456
 Alpha  occ. eigenvalues --   -0.80290  -0.78599  -0.78414  -0.77053  -0.76965
 Alpha  occ. eigenvalues --   -0.76817  -0.76768  -0.75802  -0.75694  -0.74747
 Alpha  occ. eigenvalues --   -0.74652  -0.72610  -0.72520  -0.71524  -0.71422
 Alpha  occ. eigenvalues --   -0.69721  -0.69588  -0.68720  -0.68658  -0.67484
 Alpha  occ. eigenvalues --   -0.67430  -0.67056  -0.67010  -0.65148  -0.65117
 Alpha  occ. eigenvalues --   -0.64722  -0.64618  -0.64505  -0.64480  -0.64101
 Alpha  occ. eigenvalues --   -0.64040  -0.62230  -0.62186  -0.60239  -0.60118
 Alpha  occ. eigenvalues --   -0.59652  -0.59625  -0.58836  -0.58829  -0.58357
 Alpha  occ. eigenvalues --   -0.58269  -0.57506  -0.57453  -0.57150  -0.57060
 Alpha  occ. eigenvalues --   -0.56161  -0.56036  -0.55917  -0.55784  -0.55343
 Alpha  occ. eigenvalues --   -0.55276  -0.55215  -0.55112  -0.54421  -0.54373
 Alpha  occ. eigenvalues --   -0.53753  -0.53750  -0.53135  -0.53056  -0.53054
 Alpha  occ. eigenvalues --   -0.52973  -0.52798  -0.52755  -0.52540  -0.52407
 Alpha  occ. eigenvalues --   -0.52251  -0.52232  -0.51789  -0.51747  -0.51472
 Alpha  occ. eigenvalues --   -0.51457  -0.51063  -0.51057  -0.50309  -0.50191
 Alpha  occ. eigenvalues --   -0.49842  -0.49773  -0.49725  -0.49682  -0.49352
 Alpha  occ. eigenvalues --   -0.49290  -0.49067  -0.49025  -0.48967  -0.48960
 Alpha  occ. eigenvalues --   -0.48485  -0.48425  -0.48330  -0.48249  -0.48240
 Alpha  occ. eigenvalues --   -0.48116  -0.47531  -0.47414  -0.47124  -0.46922
 Alpha  occ. eigenvalues --   -0.46637  -0.46544  -0.46418  -0.46387  -0.46200
 Alpha  occ. eigenvalues --   -0.46094  -0.46028  -0.45942  -0.45730  -0.45710
 Alpha  occ. eigenvalues --   -0.45051  -0.45038  -0.44469  -0.44381  -0.44320
 Alpha  occ. eigenvalues --   -0.44305  -0.43995  -0.43978  -0.43938  -0.43908
 Alpha  occ. eigenvalues --   -0.43850  -0.43722  -0.43460  -0.43407  -0.43231
 Alpha  occ. eigenvalues --   -0.43230  -0.42882  -0.42854  -0.42750  -0.42671
 Alpha  occ. eigenvalues --   -0.42481  -0.42369  -0.41854  -0.41802  -0.41564
 Alpha  occ. eigenvalues --   -0.41519  -0.41389  -0.41298  -0.40992  -0.40829
 Alpha  occ. eigenvalues --   -0.40714  -0.40612  -0.40551  -0.40482  -0.40409
 Alpha  occ. eigenvalues --   -0.40335  -0.40083  -0.40044  -0.39270  -0.39230
 Alpha  occ. eigenvalues --   -0.38304  -0.38192  -0.37619  -0.37509  -0.37151
 Alpha  occ. eigenvalues --   -0.37116  -0.37099  -0.37027  -0.36720  -0.36675
 Alpha  occ. eigenvalues --   -0.36077  -0.36074  -0.34125  -0.34083  -0.33813
 Alpha  occ. eigenvalues --   -0.33755  -0.33025  -0.32995  -0.31132  -0.31045
 Alpha  occ. eigenvalues --   -0.30873  -0.30794  -0.29943  -0.29841  -0.29267
 Alpha  occ. eigenvalues --   -0.29157  -0.29122  -0.29025  -0.23914  -0.23855
 Alpha  occ. eigenvalues --   -0.20953  -0.20925
 Alpha virt. eigenvalues --   -0.08597  -0.08597  -0.01572  -0.01493   0.00133
 Alpha virt. eigenvalues --    0.00187   0.02333   0.02360   0.02933   0.03845
 Alpha virt. eigenvalues --    0.04866   0.04895   0.05112   0.05210   0.06257

 Mulliken charges:
               1
     1  Mg   0.839498
     2  C   -0.003294
     3  C   -0.092645
     4  C   -0.045948
     5  C   -0.063598
     6  N   -0.256842
     7  C   -0.052615
     8  C   -0.014246
     9  C   -0.087294
    10  C    0.046845
    11  C    0.104838
    12  C    0.053008
    13  C   -0.071104
    14  H    0.033724
    15  N   -0.433365
    16  C    0.169578
    17  C   -0.175436
    18  C   -0.003196
    19  C    0.149104
    20  C    0.109910
    21  C    0.013028
    22  O   -0.250405
    23  C    0.061571
    24  N   -0.341224
    25  C    0.041606
    26  C   -0.028116
    27  C   -0.023827
    28  C    0.074597
    29  C    0.076344
    30  C    0.035133
    31  C   -0.005053
    32  N   -0.310167
    33  C    0.079922
    34  C   -0.170477
    35  C    0.007410
    36  C    0.082567
    37  C    0.127655
    38  C    0.044889
    39  O   -0.190529
    40  C   -0.005011
    41  C    0.212690
    42  O   -0.258576
    43  O   -0.304324
    44  C    0.158448
    45  H   -0.017511
    46  H   -0.017050
    47  H   -0.041641
    48  H    0.000157
    49  H   -0.003448
    50  H    0.025092
    51  H    0.016521
    52  H    0.016491
    53  H    0.013957
    54  H    0.043104
    55  H    0.017399
    56  H    0.018824
    57  H    0.005879
    58  H    0.026236
    59  H    0.043533
    60  H    0.036917
    61  H    0.035284
    62  H    0.035183
    63  H    0.016312
    64  H    0.009013
    65  H    0.022839
    66  H    0.012437
    67  H    0.004539
    68  H    0.005591
    69  H    0.005067
    70  H    0.007931
    71  H    0.020619
    72  H    0.029042
    73  H    0.045875
    74  H    0.009547
    75  H    0.045546
    76  H    0.034911
    77  H    0.042411
    78  H    0.046739
    79  H    0.051595
    80  Mg   0.838412
    81  C   -0.017129
    82  C   -0.085828
    83  C   -0.045711
    84  C   -0.064781
    85  N   -0.254630
    86  C   -0.050098
    87  C   -0.015296
    88  C   -0.090878
    89  C    0.046326
    90  C    0.114421
    91  C    0.061851
    92  C   -0.077089
    93  H    0.032270
    94  N   -0.423808
    95  C    0.164533
    96  C   -0.172520
    97  C   -0.006828
    98  C    0.152426
    99  C    0.099024
   100  C    0.016286
   101  O   -0.254485
   102  C    0.059973
   103  N   -0.350065
   104  C    0.037833
   105  C   -0.019722
   106  C   -0.034560
   107  C    0.088529
   108  C    0.073877
   109  C    0.034834
   110  C   -0.007986
   111  N   -0.323734
   112  C    0.077767
   113  C   -0.163926
   114  C    0.001502
   115  C    0.095650
   116  C    0.131753
   117  C    0.041324
   118  O   -0.189803
   119  C    0.001182
   120  C    0.211175
   121  O   -0.252248
   122  O   -0.305270
   123  C    0.152686
   124  H   -0.019504
   125  H   -0.016010
   126  H   -0.040911
   127  H   -0.001494
   128  H   -0.003590
   129  H    0.022028
   130  H    0.014439
   131  H    0.016047
   132  H    0.017229
   133  H    0.036682
   134  H    0.020205
   135  H    0.020422
   136  H    0.008738
   137  H    0.025237
   138  H    0.045462
   139  H    0.037844
   140  H    0.035573
   141  H    0.038870
   142  H    0.013877
   143  H    0.011897
   144  H    0.024611
   145  H    0.011614
   146  H    0.005403
   147  H    0.005408
   148  H    0.003689
   149  H    0.010131
   150  H    0.019534
   151  H    0.030285
   152  H    0.044671
   153  H    0.008518
   154  H    0.046360
   155  H    0.034665
   156  H    0.043315
   157  H    0.049688
   158  H    0.051818
 Sum of Mulliken charges =  -0.00000

 Dipole moment (field-independent basis, Debye):
    X=              0.4455    Y=              3.0961    Z=              0.1119  Tot=              3.1300
 Quadrupole moment (field-independent basis, Debye-Ang):
   XX=           -499.4085   YY=           -461.7647   ZZ=           -532.4641
   XY=              0.9920   XZ=             42.6285   YZ=              2.5467

 Normal termination of Gaussian 16 at Thu Sep  9 17:03:27 2021.
