 Gaussian 16, Revision A.03,
 Gaussian 16:  ES64L-G16RevA.03 25-Dec-2016

 -----------------------------------
 #p cam-b3lyp/Def2SVP td=(nstates=5)
 -----------------------------------

 --------------------------------
 TDDFT excited states in gaussian
 --------------------------------
 Symbolic Z-matrix:
 Charge =  0 Multiplicity = 1

                         Standard orientation:
 ---------------------------------------------------------------------
 Center     Atomic      Atomic             Coordinates (Angstroms)
 Number     Number       Type             X           Y           Z
 ---------------------------------------------------------------------
      1         12           0        4.643806   -0.444345    0.725238
      2          6           0        4.978102    2.589433   -1.144696
      3          6           0        5.022763    1.430516    3.550897
      4          6           0        4.806631   -3.151486    2.368862
      5          6           0        5.422660   -2.162773   -2.204959
      6          7           0        4.952265    1.725874    1.034503
      7          6           0        5.001989    2.788628    0.237475
      8          6           0        5.005741    4.141182    1.010751
      9          6           0        5.586631    3.632116    2.405533
     10          6           0        5.130471    2.184988    2.344993
     11          6           0        7.109789    3.664314    2.479378
     12          6           0        3.566993    4.737428    1.172700
     13          6           0        3.512787    6.200374    1.622371
     14          1           0        2.460675    7.056418    1.095496
     15          7           0        4.396174   -0.788553    2.654758
     16          6           0        4.578475    0.095431    3.665019
     17          6           0        4.268854   -0.639351    4.910374
     18          6           0        4.075895   -2.073154    4.556723
     19          6           0        4.449116   -2.066146    3.165308
     20          6           0        4.135612    0.025029    6.246262
     21          6           0        3.636521   -3.263068    5.349937
     22          8           0        3.759508   -4.457080    4.909727
     23          6           0        3.133334   -2.996769    6.709690
     24          7           0        5.268735   -2.372763    0.226936
     25          6           0        5.181794   -3.375522    1.107788
     26          6           0        5.415203   -4.702734    0.449026
     27          6           0        5.440651   -4.418092   -1.121988
     28          6           0        5.290174   -2.877226   -1.085106
     29          6           0        6.701453   -5.434861    0.855919
     30          6           0        4.459484   -5.234176   -2.000474
     31          6           0        3.035492   -4.830171   -1.690435
     32          7           0        4.946374    0.073001   -1.360871
     33          6           0        5.284620   -0.799455   -2.405421
     34          6           0        5.487256    0.026671   -3.609797
     35          6           0        5.267601    1.332436   -3.175544
     36          6           0        4.973761    1.325027   -1.782026
     37          6           0        5.886335   -0.449764   -4.889711
     38          6           0        5.236968    2.734466   -3.559249
     39          8           0        5.315081    3.343086   -4.627412
     40          6           0        5.168197    3.615172   -2.234313
     41          6           0        4.087625    4.643856   -2.427916
     42          8           0        2.889659    4.304916   -2.513718
     43          8           0        4.602441    5.869336   -2.244324
     44          6           0        3.575843    6.935225   -2.393099
     45          1           0        5.364033    1.878631    4.486134
     46          1           0        4.766750   -4.119298    2.873031
     47          1           0        5.584616   -2.637175   -3.174581
     48          1           0        5.661897    4.903380    0.590113
     49          1           0        5.121988    4.140887    3.249916
     50          1           0        7.550378    3.910431    1.513340
     51          1           0        7.407405    2.662404    2.789370
     52          1           0        7.445131    4.334887    3.270993
     53          1           0        3.075206    4.263830    2.022353
     54          1           0        2.995605    4.622159    0.250987
     55          1           0        4.484777    6.684301    1.522573
     56          1           0        3.308402    6.221290    2.692879
     57          1           0        4.495545    1.052798    6.220086
     58          1           0        4.818962   -0.484884    6.925034
     59          1           0        3.118832   -0.034767    6.634739
     60          1           0        3.910731   -2.499482    7.290129
     61          1           0        2.782060   -3.954057    7.093171
     62          1           0        2.301200   -2.294927    6.647087
     63          1           0        4.607193   -5.397979    0.673033
     64          1           0        6.419149   -4.619921   -1.558430
     65          1           0        6.528664   -6.434697    1.254888
     66          1           0        7.230017   -4.812023    1.577018
     67          1           0        7.444407   -5.527887    0.064223
     68          1           0        4.546719   -6.297323   -1.778987
     69          1           0        4.628037   -5.103182   -3.069436
     70          1           0        2.796936   -5.432123   -0.814320
     71          1           0        2.379283   -5.078563   -2.525241
     72          1           0        2.974551   -3.783169   -1.392846
     73          1           0        5.261640    0.069077   -5.616711
     74          1           0        5.767275   -1.530409   -4.964759
     75          1           0        6.932089   -0.143012   -4.902303
     76          1           0        6.149881    4.071117   -2.109682
     77          1           0        3.938298    7.625927   -3.154539
     78          1           0        3.394900    7.332756   -1.394283
     79          1           0        2.623707    6.630029   -2.828566
     80         12           0       -4.241132   -0.866758   -0.577353
     81          6           0       -6.873997    1.400253    0.321412
     82          6           0       -2.417551    1.858758   -1.515837
     83          6           0       -2.085551   -2.851788   -1.794113
     84          6           0       -6.635150   -3.398304   -0.652482
     85          7           0       -4.695488    1.297777   -0.551867
     86          6           0       -5.704373    2.045734   -0.131102
     87          6           0       -5.415101    3.570794   -0.123806
     88          6           0       -4.254262    3.600678   -1.233061
     89          6           0       -3.726299    2.176517   -1.072756
     90          6           0       -4.779900    3.758531   -2.650143
     91          6           0       -4.892876    4.073469    1.267820
     92          6           0       -4.884192    5.593955    1.440436
     93          1           0       -5.188273    6.146688    2.757438
     94          7           0       -2.340050   -0.560662   -1.057739
     95          6           0       -1.763441    0.613583   -1.389322
     96          6           0       -0.354189    0.303186   -1.675354
     97          6           0       -0.184067   -1.174954   -1.645662
     98          6           0       -1.564432   -1.596603   -1.515719
     99          6           0        0.690863    1.364345   -1.863072
    100          6           0        1.020334   -2.062538   -1.734103
    101          8           0        0.913541   -3.325258   -1.926369
    102          6           0        2.330299   -1.397110   -1.682463
    103          7           0       -4.374652   -2.792980   -1.348179
    104          6           0       -3.276757   -3.449564   -1.762223
    105          6           0       -3.576325   -4.907802   -2.015557
    106          6           0       -5.053479   -5.147255   -1.451410
    107          6           0       -5.401533   -3.702147   -1.032015
    108          6           0       -3.510322   -5.356669   -3.475208
    109          6           0       -5.232532   -6.283335   -0.407408
    110          6           0       -4.526927   -5.918259    0.878763
    111          7           0       -6.330267   -1.047769   -0.056984
    112          6           0       -7.146764   -2.192034   -0.191446
    113          6           0       -8.518972   -1.794347    0.184453
    114          6           0       -8.409184   -0.429817    0.491854
    115          6           0       -7.067569   -0.002193    0.300268
    116          6           0       -9.664912   -2.638447    0.163589
    117          6           0       -9.125317    0.748549    0.924641
    118          8           0      -10.268509    0.974178    1.319542
    119          6           0       -8.189188    2.015369    0.711976
    120          6           0       -8.231064    2.840145    1.969154
    121          8           0       -7.768738    2.393542    3.033768
    122          8           0       -8.608946    4.094200    1.661039
    123          6           0       -8.654700    4.953462    2.874051
    124          1           0       -1.850693    2.622341   -2.049213
    125          1           0       -1.359564   -3.603927   -2.111471
    126          1           0       -7.418691   -4.152873   -0.555729
    127          1           0       -6.245308    4.192131   -0.437595
    128          1           0       -3.483674    4.323860   -0.978982
    129          1           0       -5.857823    3.705758   -2.688235
    130          1           0       -4.341155    2.948920   -3.218539
    131          1           0       -4.395623    4.681316   -3.094135
    132          1           0       -3.816810    3.869893    1.341269
    133          1           0       -5.446358    3.622090    2.068157
    134          1           0       -5.473145    6.100098    0.665911
    135          1           0       -3.865331    5.955438    1.281436
    136          1           0        0.238902    2.355204   -1.994656
    137          1           0        1.184192    1.161594   -2.819825
    138          1           0        1.442039    1.360654   -1.070354
    139          1           0        2.402580   -0.678416   -2.495303
    140          1           0        3.066995   -2.202720   -1.669622
    141          1           0        2.395730   -0.825319   -0.750052
    142          1           0       -2.886274   -5.543951   -1.474969
    143          1           0       -5.756298   -5.419943   -2.252357
    144          1           0       -2.800696   -6.188464   -3.644384
    145          1           0       -3.246244   -4.501860   -4.083568
    146          1           0       -4.461303   -5.663029   -3.907599
    147          1           0       -4.766685   -7.204381   -0.766336
    148          1           0       -6.270868   -6.510938   -0.190533
    149          1           0       -3.490919   -6.210938    0.683532
    150          1           0       -4.943420   -6.475247    1.715616
    151          1           0       -4.538381   -4.834022    1.039874
    152          1           0      -10.214084   -2.440445    1.074473
    153          1           0       -9.384973   -3.687048    0.087187
    154          1           0      -10.156425   -2.277643   -0.743877
    155          1           0       -8.570745    2.563615   -0.150234
    156          1           0       -9.660735    5.381250    2.924791
    157          1           0       -7.810949    5.661379    2.770670
    158          1           0       -8.584296    4.463629    3.838188
 ---------------------------------------------------------------------

 SCF Done:  E(RCAM-B3LYP) =  -4069.79588750     A.U. after   17 cycles

 Excitation energies and oscillator strengths:

 Excited State   1:      Singlet-A      1.6361 eV  757.82 nm  f=0.2917  <S**2>=0.000
     309 -> 315       -0.11718
     310 -> 316       -0.11301
     311 -> 313        0.48623
     312 -> 314       -0.48607
 This state for optimization and/or second-order correction.
 Total Energy, E(TD-HF/TD-DFT) =  -4069.73576309
 Copying the excited state density for this state as the 1-particle RhoCI density.

 Excited State   2:      Singlet-A      1.6936 eV  732.05 nm  f=0.4970  <S**2>=0.000
     309 -> 315       -0.12782
     310 -> 316        0.12248
     311 -> 313        0.48400
     312 -> 314        0.48459

 Excited State   3:      Singlet-A      2.1760 eV  569.77 nm  f=0.0071  <S**2>=0.000
     309 -> 313        0.53254
     310 -> 314       -0.36087
     311 -> 315        0.22159
     312 -> 316        0.14757

 Excited State   4:      Singlet-A      2.1931 eV  565.35 nm  f=0.1619  <S**2>=0.000
     309 -> 313        0.35264
     310 -> 314        0.53037
     311 -> 315        0.15766
     312 -> 316       -0.22573

 Excited State   5:      Singlet-A      2.2395 eV  553.62 nm  f=0.0010  <S**2>=0.000
     312 -> 313        0.70173

 The electronic state is 1-A.
 Alpha  occ. eigenvalues --  -46.88148 -46.87378 -19.26951 -19.26205 -19.19874
 Alpha  occ. eigenvalues --  -19.19011 -19.19001 -19.18543 -19.18403 -19.17791
 Alpha  occ. eigenvalues --  -14.42791 -14.42219 -14.41619 -14.41070 -14.39713
 Alpha  occ. eigenvalues --  -14.39070 -14.38799 -14.38316 -10.39820 -10.38924
 Alpha  occ. eigenvalues --  -10.35635 -10.35194 -10.34787 -10.33976 -10.32288
 Alpha  occ. eigenvalues --  -10.31806 -10.31653 -10.31241 -10.31009 -10.30969
 Alpha  occ. eigenvalues --  -10.30838 -10.30703 -10.30192 -10.30154 -10.30131
 Alpha  occ. eigenvalues --  -10.30021 -10.29991 -10.29836 -10.29679 -10.29371
 Alpha  occ. eigenvalues --  -10.29142 -10.29100 -10.29031 -10.28989 -10.28670
 Alpha  occ. eigenvalues --  -10.28534 -10.28477 -10.28467 -10.28086 -10.28061
 Alpha  occ. eigenvalues --  -10.28042 -10.27915 -10.27845 -10.27769 -10.27716
 Alpha  occ. eigenvalues --  -10.27672 -10.27624 -10.27307 -10.27306 -10.27215
 Alpha  occ. eigenvalues --  -10.27204 -10.27198 -10.27186 -10.27056 -10.27045
 Alpha  occ. eigenvalues --  -10.26822 -10.26542 -10.26526 -10.26510 -10.26175
 Alpha  occ. eigenvalues --  -10.26083 -10.26063 -10.25955 -10.25933 -10.25713
 Alpha  occ. eigenvalues --  -10.25638 -10.25608 -10.25286 -10.25266 -10.25158
 Alpha  occ. eigenvalues --  -10.25016 -10.24884 -10.24570 -10.24549 -10.24431
 Alpha  occ. eigenvalues --  -10.22291  -3.16877  -3.16129  -1.91767  -1.91341
 Alpha  occ. eigenvalues --   -1.91185  -1.91012  -1.90600  -1.90436  -1.17313
 Alpha  occ. eigenvalues --   -1.16494  -1.09037  -1.08413  -1.07403  -1.07398
 Alpha  occ. eigenvalues --   -1.07055  -1.06783  -1.04921  -1.04208  -1.04008
 Alpha  occ. eigenvalues --   -1.03517  -1.03388  -1.02756  -1.02659  -1.01822
 Alpha  occ. eigenvalues --   -0.92345  -0.91712  -0.89607  -0.89427  -0.89240
 Alpha  occ. eigenvalues --   -0.88886  -0.88164  -0.88072  -0.87992  -0.87891
 Alpha  occ. eigenvalues --   -0.87539  -0.87514  -0.87378  -0.86635  -0.85324
 Alpha  occ. eigenvalues --   -0.84742  -0.83791  -0.83668  -0.83026  -0.82712
 Alpha  occ. eigenvalues --   -0.82590  -0.82396  -0.81941  -0.81383  -0.80862
 Alpha  occ. eigenvalues --   -0.80205  -0.79059  -0.78206  -0.77441  -0.77056
 Alpha  occ. eigenvalues --   -0.76797  -0.76678  -0.76197  -0.75507  -0.74763
 Alpha  occ. eigenvalues --   -0.74535  -0.72990  -0.72380  -0.71909  -0.71313
 Alpha  occ. eigenvalues --   -0.69556  -0.69469  -0.69123  -0.68511  -0.67925
 Alpha  occ. eigenvalues --   -0.67557  -0.67341  -0.66977  -0.65639  -0.65180
 Alpha  occ. eigenvalues --   -0.65026  -0.64851  -0.64513  -0.64452  -0.63978
 Alpha  occ. eigenvalues --   -0.63925  -0.62592  -0.62063  -0.60646  -0.60199
 Alpha  occ. eigenvalues --   -0.59980  -0.59519  -0.59222  -0.58750  -0.58727
 Alpha  occ. eigenvalues --   -0.58143  -0.58053  -0.57384  -0.57323  -0.57023
 Alpha  occ. eigenvalues --   -0.56639  -0.56378  -0.55910  -0.55814  -0.55648
 Alpha  occ. eigenvalues --   -0.55536  -0.55345  -0.55048  -0.54552  -0.54308
 Alpha  occ. eigenvalues --   -0.54250  -0.53692  -0.53550  -0.53515  -0.53291
 Alpha  occ. eigenvalues --   -0.53140  -0.53010  -0.52932  -0.52677  -0.52527
 Alpha  occ. eigenvalues --   -0.52247  -0.52164  -0.51966  -0.51888  -0.51684
 Alpha  occ. eigenvalues --   -0.51612  -0.51030  -0.50873  -0.50731  -0.50383
 Alpha  occ. eigenvalues --   -0.50216  -0.49929  -0.49835  -0.49606  -0.49540
 Alpha  occ. eigenvalues --   -0.49419  -0.49355  -0.49097  -0.49017  -0.48913
 Alpha  occ. eigenvalues --   -0.48839  -0.48696  -0.48403  -0.48328  -0.48210
 Alpha  occ. eigenvalues --   -0.48113  -0.47812  -0.47484  -0.47231  -0.47026
 Alpha  occ. eigenvalues --   -0.46875  -0.46719  -0.46490  -0.46417  -0.46279
 Alpha  occ. eigenvalues --   -0.46145  -0.46030  -0.45879  -0.45743  -0.45596
 Alpha  occ. eigenvalues --   -0.45098  -0.44966  -0.44830  -0.44681  -0.44501
 Alpha  occ. eigenvalues --   -0.44336  -0.44317  -0.44263  -0.44046  -0.43944
 Alpha  occ. eigenvalues --   -0.43826  -0.43800  -0.43742  -0.43355  -0.43346
 Alpha  occ. eigenvalues --   -0.43282  -0.43113  -0.42849  -0.42729  -0.42608
 Alpha  occ. eigenvalues --   -0.42392  -0.42296  -0.41921  -0.41774  -0.41718
 Alpha  occ. eigenvalues --   -0.41406  -0.41382  -0.41284  -0.41123  -0.41033
 Alpha  occ. eigenvalues --   -0.40820  -0.40729  -0.40604  -0.40471  -0.40382
 Alpha  occ. eigenvalues --   -0.40262  -0.40075  -0.39634  -0.39208  -0.38762
 Alpha  occ. eigenvalues --   -0.38272  -0.38135  -0.38053  -0.37631  -0.37444
 Alpha  occ. eigenvalues --   -0.37261  -0.37025  -0.36960  -0.36814  -0.36598
 Alpha  occ. eigenvalues --   -0.36100  -0.35993  -0.34565  -0.34413  -0.33981
 Alpha  occ. eigenvalues --   -0.33680  -0.33368  -0.32893  -0.31542  -0.31309
 Alpha  occ. eigenvalues --   -0.30742  -0.30571  -0.30362  -0.29717  -0.29706
 Alpha  occ. eigenvalues --   -0.29573  -0.28978  -0.28875  -0.24377  -0.23754
 Alpha  occ. eigenvalues --   -0.21431  -0.20809
 Alpha virt. eigenvalues --   -0.09099  -0.08485  -0.02054  -0.01468  -0.00352
 Alpha virt. eigenvalues --    0.00130   0.01789   0.02371   0.03036   0.03531
 Alpha virt. eigenvalues --    0.04394   0.04429   0.04985   0.05341   0.05722

 Mulliken charges:
               1
     1  Mg   0.764583
     2  C   -0.005944
     3  C   -0.093629
     4  C   -0.045708
     5  C   -0.017362
     6  N   -0.252871
     7  C   -0.058392
     8  C   -0.012665
     9  C   -0.087218
    10  C    0.049072
    11  C    0.104603
    12  C    0.052446
    13  C   -0.071832
    14  H    0.034240
    15  N   -0.429200
    16  C    0.170509
    17  C   -0.176429
    18  C   -0.002268
    19  C    0.151680
    20  C    0.109791
    21  C    0.013837
    22  O   -0.246774
    23  C    0.061931
    24  N   -0.330195
    25  C    0.049192
    26  C   -0.026633
    27  C   -0.013794
    28  C    0.032699
    29  C    0.077486
    30  C    0.047674
    31  C    0.045204
    32  N   -0.306800
    33  C    0.045358
    34  C   -0.168091
    35  C    0.007803
    36  C    0.074243
    37  C    0.127941
    38  C    0.039349
    39  O   -0.188614
    40  C   -0.004963
    41  C    0.216680
    42  O   -0.262658
    43  O   -0.302653
    44  C    0.157437
    45  H   -0.017070
    46  H   -0.014471
    47  H   -0.041828
    48  H    0.001047
    49  H   -0.003403
    50  H    0.025969
    51  H    0.017407
    52  H    0.017571
    53  H    0.011916
    54  H    0.040486
    55  H    0.019144
    56  H    0.019478
    57  H    0.006300
    58  H    0.028125
    59  H    0.041482
    60  H    0.037349
    61  H    0.037256
    62  H    0.032546
    63  H    0.019565
    64  H    0.006824
    65  H    0.023354
    66  H    0.010225
    67  H    0.005022
    68  H   -0.003272
    69  H   -0.003443
    70  H   -0.012628
    71  H    0.024000
    72  H    0.005250
    73  H    0.045141
    74  H    0.011562
    75  H    0.046449
    76  H    0.036721
    77  H    0.044934
    78  H    0.047619
    79  H    0.051275
    80  Mg   0.836615
    81  C   -0.016703
    82  C   -0.086910
    83  C   -0.047796
    84  C   -0.065363
    85  N   -0.254161
    86  C   -0.051051
    87  C   -0.015034
    88  C   -0.089965
    89  C    0.044263
    90  C    0.114300
    91  C    0.062644
    92  C   -0.077061
    93  H    0.032612
    94  N   -0.423408
    95  C    0.160360
    96  C   -0.181264
    97  C    0.010973
    98  C    0.152785
    99  C    0.105091
   100  C    0.030225
   101  O   -0.256542
   102  C    0.062820
   103  N   -0.350281
   104  C    0.038345
   105  C   -0.019914
   106  C   -0.034440
   107  C    0.088535
   108  C    0.073830
   109  C    0.034982
   110  C   -0.007435
   111  N   -0.323728
   112  C    0.077398
   113  C   -0.164223
   114  C    0.001912
   115  C    0.095232
   116  C    0.131713
   117  C    0.041611
   118  O   -0.189485
   119  C    0.001059
   120  C    0.211167
   121  O   -0.251736
   122  O   -0.305490
   123  C    0.152352
   124  H   -0.013355
   125  H   -0.017843
   126  H   -0.041527
   127  H   -0.001308
   128  H   -0.003405
   129  H    0.021573
   130  H    0.015530
   131  H    0.016861
   132  H    0.013709
   133  H    0.036857
   134  H    0.020862
   135  H    0.019166
   136  H    0.018274
   137  H    0.034963
   138  H    0.045937
   139  H    0.057355
   140  H    0.024801
   141  H    0.043143
   142  H    0.013494
   143  H    0.011840
   144  H    0.023412
   145  H    0.011881
   146  H    0.005625
   147  H    0.005333
   148  H    0.003282
   149  H    0.010798
   150  H    0.017398
   151  H    0.030399
   152  H    0.044987
   153  H    0.007787
   154  H    0.046183
   155  H    0.034661
   156  H    0.043462
   157  H    0.049162
   158  H    0.052911
 Sum of Mulliken charges =  -0.00000

 Dipole moment (field-independent basis, Debye):
    X=              4.7480    Y=              3.1391    Z=              2.0091  Tot=              6.0360
 Quadrupole moment (field-independent basis, Debye-Ang):
   XX=           -550.9522   YY=           -467.9501   ZZ=           -511.5835
   XY=             12.6545   XZ=             40.7964   YZ=             32.6139

 Normal termination of Gaussian 16 at Thu Sep  9 13:37:01 2021.
