 Gaussian 16, Revision A.03,
 Gaussian 16:  ES64L-G16RevA.03 25-Dec-2016

 -----------------------------------
 #p cam-b3lyp/Def2SVP td=(nstates=5)
 -----------------------------------

 --------------------------------
 TDDFT excited states in gaussian
 --------------------------------
 Symbolic Z-matrix:
 Charge =  0 Multiplicity = 1

                         Standard orientation:
 ---------------------------------------------------------------------
 Center     Atomic      Atomic             Coordinates (Angstroms)
 Number     Number       Type             X           Y           Z
 ---------------------------------------------------------------------
      1         12           0        3.901252   -0.328797   -0.590994
      2          6           0        3.824317    3.173922    0.141980
      3          6           0        5.263772   -0.794665    2.502479
      4          6           0        4.399045   -3.358145   -1.385899
      5          6           0        3.613026    0.519879   -3.958832
      6          7           0        4.427639    1.088370    1.026164
      7          6           0        4.292377    2.398641    1.205232
      8          6           0        4.623619    2.861441    2.655566
      9          6           0        5.578650    1.661252    3.090838
     10          6           0        5.035921    0.575713    2.178164
     11          6           0        7.047149    1.897986    2.753245
     12          6           0        3.348688    2.936523    3.561461
     13          6           0        3.530654    3.685447    4.884849
     14          1           0        2.422822    4.475518    5.400450
     15          7           0        4.249059   -1.909922    0.541228
     16          6           0        4.794073   -1.913779    1.781482
     17          6           0        4.844193   -3.331103    2.200245
     18          6           0        4.459925   -4.165736    1.028144
     19          6           0        4.378310   -3.166538   -0.006419
     20          6           0        5.178282   -3.765908    3.594188
     21          6           0        4.216721   -5.632707    0.863889
     22          8           0        4.119901   -6.181457   -0.286795
     23          6           0        4.182551   -6.435376    2.099848
     24          7           0        4.215436   -1.283631   -2.420534
     25          6           0        4.345475   -2.612915   -2.491795
     26          6           0        4.276428   -3.092976   -3.911201
     27          6           0        3.826580   -1.832844   -4.782668
     28          6           0        3.792983   -0.768314   -3.658427
     29          6           0        5.576392   -3.672804   -4.485575
     30          6           0        2.570124   -2.005718   -5.672528
     31          6           0        1.343393   -2.166170   -4.802767
     32          7           0        3.567417    1.491738   -1.724682
     33          6           0        3.505662    1.616654   -3.120124
     34          6           0        3.372774    3.054245   -3.419690
     35          6           0        3.383193    3.671175   -2.170237
     36          6           0        3.540663    2.683976   -1.155873
     37          6           0        3.320004    3.633528   -4.718182
     38          6           0        3.322673    4.936939   -1.457470
     39          8           0        3.100686    6.104620   -1.781100
     40          6           0        3.728105    4.677130    0.060407
     41          6           0        2.708587    5.364541    0.927216
     42          8           0        1.525096    4.969908    0.958506
     43          8           0        3.331415    6.217569    1.754845
     44          6           0        2.379435    6.911263    2.662962
     45          1           0        5.908367   -1.036407    3.349827
     46          1           0        4.457930   -4.402322   -1.700011
     47          1           0        3.432857    0.852388   -4.982761
     48          1           0        5.161869    3.807317    2.719044
     49          1           0        5.434950    1.385080    4.135253
     50          1           0        7.177699    2.797615    2.151959
     51          1           0        7.362881    1.017106    2.193909
     52          1           0        7.655219    1.912182    3.658136
     53          1           0        3.118791    1.941199    3.941644
     54          1           0        2.511320    3.370412    3.013848
     55          1           0        4.451060    4.270039    4.888701
     56          1           0        3.673533    2.950014    5.676634
     57          1           0        5.576152   -2.942519    4.186029
     58          1           0        6.006131   -4.470597    3.518115
     59          1           0        4.332655   -4.244176    4.088665
     60          1           0        5.132421   -6.329218    2.624277
     61          1           0        3.909233   -7.445013    1.795249
     62          1           0        3.418805   -6.029176    2.763657
     63          1           0        3.536941   -3.885208   -4.020537
     64          1           0        4.604365   -1.518471   -5.479012
     65          1           0        5.474364   -4.692791   -4.856953
     66          1           0        6.342457   -3.612701   -3.713033
     67          1           0        6.026609   -3.082945   -5.283565
     68          1           0        2.654912   -2.908071   -6.277107
     69          1           0        2.403382   -1.167561   -6.349242
     70          1           0        1.353626   -3.228378   -4.561021
     71          1           0        0.444444   -1.901327   -5.360404
     72          1           0        1.445047   -1.617809   -3.866042
     73          1           0        2.533198    4.387024   -4.684292
     74          1           0        3.115342    2.881065   -5.479441
     75          1           0        4.326412    4.044352   -4.797067
     76          1           0        4.726207    5.093181    0.193884
     77          1           0        2.528130    7.982450    2.526283
     78          1           0        2.545892    6.500338    3.658872
     79          1           0        1.321527    6.817106    2.415362
     80         12           0       -3.924329   -1.179121    0.485363
     81          6           0       -4.252798    2.165175   -0.774358
     82          6           0       -2.785351    0.188484    3.395163
     83          6           0       -3.199250   -4.109362    1.462785
     84          6           0       -3.984623   -2.281667   -2.820160
     85          7           0       -3.605554    0.918913    1.108982
     86          6           0       -3.823591    2.108095    0.568013
     87          6           0       -3.644272    3.301491    1.544348
     88          6           0       -2.652706    2.603784    2.597377
     89          6           0       -3.057993    1.146457    2.386179
     90          6           0       -1.185355    2.749517    2.230001
     91          6           0       -4.993974    3.727659    2.221641
     92          6           0       -4.952601    5.074890    2.946209
     93          1           0       -6.146074    5.915987    2.920446
     94          7           0       -3.582006   -1.875782    2.311843
     95          6           0       -3.143883   -1.177370    3.380273
     96          6           0       -3.034240   -2.149503    4.478951
     97          6           0       -3.285529   -3.509301    3.928938
     98          6           0       -3.346148   -3.213306    2.511612
     99          6           0       -2.796639   -1.743110    5.904370
    100          6           0       -3.432555   -4.855467    4.571137
    101          8           0       -3.409569   -5.936192    3.882418
    102          6           0       -3.510484   -4.876521    6.039123
    103          7           0       -3.421122   -2.920797   -0.532320
    104          6           0       -3.205109   -4.070730    0.130186
    105          6           0       -3.131555   -5.242139   -0.819948
    106          6           0       -3.585989   -4.670492   -2.242728
    107          6           0       -3.765797   -3.182066   -1.871708
    108          6           0       -1.761152   -5.906038   -0.952645
    109          6           0       -4.757596   -5.401853   -2.953435
    110          6           0       -6.039319   -5.198080   -2.178164
    111          7           0       -4.271389   -0.279661   -1.448184
    112          6           0       -4.223872   -0.918104   -2.706839
    113          6           0       -4.413318    0.127703   -3.732913
    114          6           0       -4.535881    1.314739   -2.995072
    115          6           0       -4.410095    1.031686   -1.608153
    116          6           0       -4.405712   -0.077734   -5.141412
    117          6           0       -4.732448    2.744324   -3.074690
    118          8           0       -4.985625    3.537249   -3.980731
    119          6           0       -4.431554    3.376048   -1.647528
    120          6           0       -5.552056    4.322045   -1.312719
    121          8           0       -6.706433    3.895921   -1.132535
    122          8           0       -5.038538    5.537110   -1.047639
    123          6           0       -6.110314    6.507544   -0.699260
    124          1           0       -2.204718    0.500656    4.263667
    125          1           0       -3.057868   -5.153578    1.751046
    126          1           0       -4.113653   -2.557978   -3.868816
    127          1           0       -3.172101    4.175362    1.111704
    128          1           0       -2.872767    2.917169    3.614587
    129          1           0       -1.056464    3.197943    1.256117
    130          1           0       -0.778187    1.746960    2.241768
    131          1           0       -0.653899    3.299834    3.011693
    132          1           0       -5.193336    3.062992    3.072064
    133          1           0       -5.795432    3.725243    1.508703
    134          1           0       -4.064337    5.659865    2.678355
    135          1           0       -4.838637    4.889631    4.017049
    136          1           0       -2.487129   -0.693191    5.977064
    137          1           0       -1.926811   -2.307743    6.257111
    138          1           0       -3.647519   -1.963352    6.552575
    139          1           0       -2.615301   -4.420154    6.454865
    140          1           0       -3.703103   -5.917294    6.306640
    141          1           0       -4.355928   -4.254448    6.353547
    142          1           0       -3.816592   -6.026070   -0.521120
    143          1           0       -2.770018   -4.714464   -2.979001
    144          1           0       -1.775476   -6.987296   -0.718673
    145          1           0       -1.066121   -5.386356   -0.306577
    146          1           0       -1.290532   -5.802732   -1.928894
    147          1           0       -4.574997   -6.479069   -2.973616
    148          1           0       -4.908140   -5.081468   -3.978949
    149          1           0       -5.982567   -5.966335   -1.401209
    150          1           0       -6.904079   -5.349920   -2.820948
    151          1           0       -6.045697   -4.222875   -1.677597
    152          1           0       -5.225866    0.501088   -5.544899
    153          1           0       -4.502459   -1.132568   -5.389873
    154          1           0       -3.415594    0.313450   -5.390230
    155          1           0       -3.469957    3.886737   -1.711471
    156          1           0       -6.008485    7.355364   -1.383755
    157          1           0       -5.986778    6.714216    0.380448
    158          1           0       -7.135772    6.209151   -0.883265
 ---------------------------------------------------------------------

 SCF Done:  E(RCAM-B3LYP) =  -4069.81350422     A.U. after   19 cycles

 Excitation energies and oscillator strengths:

 Excited State   1:      Singlet-A      1.6418 eV  755.18 nm  f=0.0465  <S**2>=0.000
     309 -> 315       -0.11040
     310 -> 316        0.12222
     311 -> 313       -0.45708
     312 -> 314        0.51423
 This state for optimization and/or second-order correction.
 Total Energy, E(TD-HF/TD-DFT) =  -4069.75316986
 Copying the excited state density for this state as the 1-particle RhoCI density.

 Excited State   2:      Singlet-A      1.7029 eV  728.08 nm  f=0.6276  <S**2>=0.000
     309 -> 315        0.13637
     310 -> 316        0.11840
     311 -> 313        0.51117
     312 -> 314        0.45434

 Excited State   3:      Singlet-A      2.1767 eV  569.59 nm  f=0.0345  <S**2>=0.000
     309 -> 313       -0.28239
     310 -> 314        0.58136
     311 -> 315        0.11465
     312 -> 316       -0.23671

 Excited State   4:      Singlet-A      2.1985 eV  563.95 nm  f=0.1400  <S**2>=0.000
     309 -> 313        0.57395
     310 -> 314        0.27661
     311 -> 315       -0.25492
     312 -> 316       -0.12394

 Excited State   5:      Singlet-A      2.2086 eV  561.37 nm  f=0.0003  <S**2>=0.000
     312 -> 313        0.70618

 The electronic state is 1-A.
 Alpha  occ. eigenvalues --  -46.87957 -46.87329 -19.26750 -19.25895 -19.19590
 Alpha  occ. eigenvalues --  -19.18898 -19.18744 -19.18525 -19.18357 -19.17695
 Alpha  occ. eigenvalues --  -14.42630 -14.42110 -14.41609 -14.41031 -14.39553
 Alpha  occ. eigenvalues --  -14.39039 -14.38746 -14.38270 -10.39577 -10.38663
 Alpha  occ. eigenvalues --  -10.35526 -10.35211 -10.34592 -10.33856 -10.32145
 Alpha  occ. eigenvalues --  -10.31602 -10.31339 -10.31116 -10.30883 -10.30737
 Alpha  occ. eigenvalues --  -10.30654 -10.30620 -10.30343 -10.30094 -10.30073
 Alpha  occ. eigenvalues --  -10.30032 -10.29852 -10.29772 -10.29575 -10.29389
 Alpha  occ. eigenvalues --  -10.29144 -10.29116 -10.29052 -10.29016 -10.28538
 Alpha  occ. eigenvalues --  -10.28369 -10.28246 -10.28098 -10.28062 -10.27934
 Alpha  occ. eigenvalues --  -10.27898 -10.27719 -10.27696 -10.27629 -10.27602
 Alpha  occ. eigenvalues --  -10.27601 -10.27585 -10.27436 -10.27434 -10.27316
 Alpha  occ. eigenvalues --  -10.27302 -10.27248 -10.27196 -10.27146 -10.27110
 Alpha  occ. eigenvalues --  -10.27073 -10.26584 -10.26448 -10.26414 -10.26318
 Alpha  occ. eigenvalues --  -10.26309 -10.26231 -10.26162 -10.25917 -10.25898
 Alpha  occ. eigenvalues --  -10.25645 -10.25631 -10.25552 -10.25037 -10.24985
 Alpha  occ. eigenvalues --  -10.24946 -10.24833 -10.24809 -10.24557 -10.24522
 Alpha  occ. eigenvalues --  -10.24371  -3.16699  -3.16079  -1.91580  -1.91167
 Alpha  occ. eigenvalues --   -1.91009  -1.90962  -1.90549  -1.90388  -1.17103
 Alpha  occ. eigenvalues --   -1.16199  -1.08835  -1.08290  -1.07295  -1.07150
 Alpha  occ. eigenvalues --   -1.06785  -1.06526  -1.04768  -1.04106  -1.03922
 Alpha  occ. eigenvalues --   -1.03386  -1.03319  -1.02723  -1.02569  -1.01781
 Alpha  occ. eigenvalues --   -0.92178  -0.91606  -0.89674  -0.89459  -0.89196
 Alpha  occ. eigenvalues --   -0.88549  -0.88438  -0.88000  -0.87915  -0.87866
 Alpha  occ. eigenvalues --   -0.87505  -0.87389  -0.87313  -0.86898  -0.85237
 Alpha  occ. eigenvalues --   -0.84525  -0.84099  -0.83578  -0.83076  -0.82865
 Alpha  occ. eigenvalues --   -0.82737  -0.82209  -0.81867  -0.81214  -0.80804
 Alpha  occ. eigenvalues --   -0.80088  -0.78927  -0.78370  -0.77412  -0.77195
 Alpha  occ. eigenvalues --   -0.76795  -0.76440  -0.76164  -0.75308  -0.75065
 Alpha  occ. eigenvalues --   -0.74441  -0.72929  -0.72367  -0.71861  -0.71134
 Alpha  occ. eigenvalues --   -0.70052  -0.69470  -0.69105  -0.68379  -0.67828
 Alpha  occ. eigenvalues --   -0.67469  -0.67286  -0.66831  -0.65546  -0.65076
 Alpha  occ. eigenvalues --   -0.64844  -0.64804  -0.64429  -0.64412  -0.64244
 Alpha  occ. eigenvalues --   -0.63887  -0.62605  -0.61895  -0.60568  -0.60082
 Alpha  occ. eigenvalues --   -0.60031  -0.59302  -0.59174  -0.58701  -0.58637
 Alpha  occ. eigenvalues --   -0.58075  -0.57878  -0.57477  -0.57163  -0.56920
 Alpha  occ. eigenvalues --   -0.56507  -0.56300  -0.55894  -0.55682  -0.55561
 Alpha  occ. eigenvalues --   -0.55488  -0.55134  -0.54915  -0.54795  -0.54175
 Alpha  occ. eigenvalues --   -0.54135  -0.53477  -0.53427  -0.53368  -0.53191
 Alpha  occ. eigenvalues --   -0.52935  -0.52899  -0.52781  -0.52590  -0.52560
 Alpha  occ. eigenvalues --   -0.52291  -0.52140  -0.52035  -0.51852  -0.51625
 Alpha  occ. eigenvalues --   -0.51399  -0.51230  -0.50841  -0.50662  -0.50280
 Alpha  occ. eigenvalues --   -0.50189  -0.50069  -0.49719  -0.49635  -0.49557
 Alpha  occ. eigenvalues --   -0.49422  -0.49321  -0.49085  -0.48861  -0.48832
 Alpha  occ. eigenvalues --   -0.48649  -0.48574  -0.48472  -0.48131  -0.48074
 Alpha  occ. eigenvalues --   -0.48021  -0.47891  -0.47468  -0.47198  -0.46987
 Alpha  occ. eigenvalues --   -0.46821  -0.46815  -0.46540  -0.46363  -0.46320
 Alpha  occ. eigenvalues --   -0.46064  -0.46049  -0.45961  -0.45753  -0.45424
 Alpha  occ. eigenvalues --   -0.45357  -0.44862  -0.44793  -0.44691  -0.44332
 Alpha  occ. eigenvalues --   -0.44295  -0.44189  -0.44178  -0.44104  -0.43800
 Alpha  occ. eigenvalues --   -0.43758  -0.43614  -0.43597  -0.43564  -0.43221
 Alpha  occ. eigenvalues --   -0.43165  -0.43075  -0.42911  -0.42817  -0.42537
 Alpha  occ. eigenvalues --   -0.42506  -0.42270  -0.42214  -0.41906  -0.41780
 Alpha  occ. eigenvalues --   -0.41625  -0.41333  -0.41280  -0.41109  -0.41031
 Alpha  occ. eigenvalues --   -0.40977  -0.40735  -0.40556  -0.40545  -0.40448
 Alpha  occ. eigenvalues --   -0.40283  -0.40051  -0.39766  -0.39589  -0.39157
 Alpha  occ. eigenvalues --   -0.38649  -0.38083  -0.38004  -0.37500  -0.37485
 Alpha  occ. eigenvalues --   -0.37250  -0.37112  -0.36920  -0.36761  -0.36437
 Alpha  occ. eigenvalues --   -0.36375  -0.35841  -0.34466  -0.34240  -0.33899
 Alpha  occ. eigenvalues --   -0.33462  -0.33366  -0.32844  -0.31438  -0.31213
 Alpha  occ. eigenvalues --   -0.31079  -0.30609  -0.30226  -0.29587  -0.29583
 Alpha  occ. eigenvalues --   -0.29466  -0.29060  -0.28903  -0.24255  -0.23691
 Alpha  occ. eigenvalues --   -0.21286  -0.20778
 Alpha virt. eigenvalues --   -0.08926  -0.08480  -0.01906  -0.01363  -0.00199
 Alpha virt. eigenvalues --    0.00268   0.02030   0.02382   0.02634   0.03653
 Alpha virt. eigenvalues --    0.04414   0.04579   0.05154   0.05589   0.05730

 Mulliken charges:
               1
     1  Mg   0.838901
     2  C   -0.004465
     3  C   -0.094871
     4  C   -0.045442
     5  C   -0.063057
     6  N   -0.256671
     7  C   -0.053531
     8  C   -0.013779
     9  C   -0.086695
    10  C    0.045987
    11  C    0.104742
    12  C    0.049697
    13  C   -0.070902
    14  H    0.032030
    15  N   -0.433364
    16  C    0.168855
    17  C   -0.176779
    18  C   -0.002957
    19  C    0.148948
    20  C    0.110082
    21  C    0.013261
    22  O   -0.249611
    23  C    0.061920
    24  N   -0.340891
    25  C    0.041382
    26  C   -0.028255
    27  C   -0.023895
    28  C    0.074592
    29  C    0.076058
    30  C    0.034978
    31  C   -0.004442
    32  N   -0.310638
    33  C    0.080393
    34  C   -0.168543
    35  C    0.008377
    36  C    0.082670
    37  C    0.127111
    38  C    0.045577
    39  O   -0.187868
    40  C   -0.006197
    41  C    0.215199
    42  O   -0.258793
    43  O   -0.303461
    44  C    0.157418
    45  H   -0.017605
    46  H   -0.016564
    47  H   -0.040648
    48  H    0.001042
    49  H   -0.004660
    50  H    0.025722
    51  H    0.017190
    52  H    0.016861
    53  H    0.010485
    54  H    0.045731
    55  H    0.019700
    56  H    0.018293
    57  H    0.005165
    58  H    0.027308
    59  H    0.040220
    60  H    0.036829
    61  H    0.036760
    62  H    0.033582
    63  H    0.016138
    64  H    0.009937
    65  H    0.023383
    66  H    0.012727
    67  H    0.005157
    68  H    0.006197
    69  H    0.005605
    70  H    0.007038
    71  H    0.017505
    72  H    0.030819
    73  H    0.049231
    74  H    0.009968
    75  H    0.046046
    76  H    0.035925
    77  H    0.044834
    78  H    0.046225
    79  H    0.051664
    80  Mg   0.836211
    81  C   -0.016553
    82  C   -0.088248
    83  C   -0.046797
    84  C   -0.066016
    85  N   -0.255479
    86  C   -0.046771
    87  C   -0.015398
    88  C   -0.093067
    89  C    0.047086
    90  C    0.117116
    91  C    0.062487
    92  C   -0.076874
    93  H    0.032370
    94  N   -0.423409
    95  C    0.163070
    96  C   -0.176085
    97  C   -0.009114
    98  C    0.152197
    99  C    0.100308
   100  C    0.014193
   101  O   -0.254068
   102  C    0.061627
   103  N   -0.350555
   104  C    0.037774
   105  C   -0.019898
   106  C   -0.034458
   107  C    0.089302
   108  C    0.073618
   109  C    0.034888
   110  C   -0.007493
   111  N   -0.324322
   112  C    0.079091
   113  C   -0.163997
   114  C    0.002982
   115  C    0.095933
   116  C    0.131202
   117  C    0.042346
   118  O   -0.187925
   119  C    0.000820
   120  C    0.210531
   121  O   -0.252490
   122  O   -0.303487
   123  C    0.152724
   124  H   -0.021017
   125  H   -0.016687
   126  H   -0.041924
   127  H    0.006088
   128  H   -0.008570
   129  H    0.039652
   130  H    0.007070
   131  H    0.015399
   132  H    0.012201
   133  H    0.036523
   134  H    0.022558
   135  H    0.017748
   136  H    0.008189
   137  H    0.023030
   138  H    0.038937
   139  H    0.036414
   140  H    0.035384
   141  H    0.034025
   142  H    0.013479
   143  H    0.011846
   144  H    0.024884
   145  H    0.012805
   146  H    0.006651
   147  H    0.005871
   148  H    0.002725
   149  H    0.010677
   150  H    0.017161
   151  H    0.030459
   152  H    0.045756
   153  H    0.007520
   154  H    0.045701
   155  H    0.041900
   156  H    0.043825
   157  H    0.049235
   158  H    0.052224
 Sum of Mulliken charges =  -0.00000

 Dipole moment (field-independent basis, Debye):
    X=              5.6503    Y=             -1.3227    Z=              6.3876  Tot=              8.6300
 Quadrupole moment (field-independent basis, Debye-Ang):
   XX=           -518.7545   YY=           -541.1386   ZZ=           -459.0154
   XY=              3.2704   XZ=              1.4675   YZ=             41.5594

 Normal termination of Gaussian 16 at Thu Sep  9 05:50:28 2021.
