 Gaussian 16, Revision A.03,
 Gaussian 16:  ES64L-G16RevA.03 25-Dec-2016

 -----------------------------------
 #p cam-b3lyp/Def2SVP td=(nstates=5)
 -----------------------------------

 --------------------------------
 TDDFT excited states in gaussian
 --------------------------------
 Symbolic Z-matrix:
 Charge =  0 Multiplicity = 1

                         Standard orientation:
 ---------------------------------------------------------------------
 Center     Atomic      Atomic             Coordinates (Angstroms)
 Number     Number       Type             X           Y           Z
 ---------------------------------------------------------------------
      1         12           0      -15.722686   -0.846103    0.011472
      2          6           0      -15.944142    2.711491    0.338115
      3          6           0      -16.587345   -0.449847   -3.265480
      4          6           0      -15.977573   -4.000635   -0.189972
      5          6           0      -15.996190   -1.033719    3.480716
      6          7           0      -16.180214    0.953228   -1.194232
      7          6           0      -16.171283    2.262596   -0.964783
      8          6           0      -16.351308    3.117164   -2.255008
      9          6           0      -17.095379    2.041961   -3.167309
     10          6           0      -16.563001    0.771353   -2.528520
     11          6           0      -18.613547    2.065891   -3.022070
     12          6           0      -14.981244    3.547864   -2.878831
     13          6           0      -15.064208    4.646464   -3.942574
     14          1           0      -13.993120    5.628341   -4.020250
     15          7           0      -15.730610   -2.032549   -1.568127
     16          6           0      -16.096796   -1.699609   -2.829216
     17          6           0      -15.927988   -2.924965   -3.639579
     18          6           0      -15.615517   -4.045805   -2.709969
     19          6           0      -15.790149   -3.401491   -1.433356
     20          6           0      -16.016677   -2.941331   -5.134776
     21          6           0      -15.232202   -5.474099   -2.936195
     22          8           0      -15.232110   -6.336058   -1.991950
     23          6           0      -14.938372   -5.862976   -4.327410
     24          7           0      -16.173863   -2.326640    1.412215
     25          6           0      -16.160745   -3.621267    1.076430
     26          6           0      -16.232549   -4.500714    2.289425
     27          6           0      -16.052103   -3.534123    3.547556
     28          6           0      -15.986001   -2.180703    2.797787
     29          6           0      -17.524608   -5.313347    2.451357
     30          6           0      -14.917806   -3.881393    4.544147
     31          6           0      -13.573392   -3.688872    3.878876
     32          7           0      -15.755876    0.566670    1.658899
     33          6           0      -15.900226    0.269371    3.021782
     34          6           0      -15.973572    1.555516    3.739081
     35          6           0      -15.882860    2.517932    2.735401
     36          6           0      -15.787002    1.873803    1.468830
     37          6           0      -16.165056    1.718980    5.139455
     38          6           0      -15.869403    3.940647    2.436140
     39          8           0      -15.827736    4.968860    3.113291
     40          6           0      -16.031197    4.123220    0.862508
     41          6           0      -14.987309    5.107248    0.409411
     42          8           0      -13.773605    4.821552    0.461057
     43          8           0      -15.583764    6.125658   -0.229043
     44          6           0      -14.601398    7.123524   -0.730416
     45          1           0      -17.078295   -0.468264   -4.240451
     46          1           0      -15.960016   -5.092404   -0.203027
     47          1           0      -15.996731   -1.013640    4.572068
     48          1           0      -16.979630    3.999462   -2.131780
     49          1           0      -16.779717    2.103594   -4.208597
     50          1           0      -18.926378    2.731619   -2.217790
     51          1           0      -18.900832    1.038168   -2.799030
     52          1           0      -19.089722    2.310718   -3.971856
     53          1           0      -14.590044    2.731257   -3.485606
     54          1           0      -14.281380    3.852388   -2.099869
     55          1           0      -16.035763    5.141259   -3.929609
     56          1           0      -15.013015    4.175751   -4.924414
     57          1           0      -16.420658   -2.006880   -5.522262
     58          1           0      -16.761788   -3.690633   -5.401356
     59          1           0      -15.062587   -3.189972   -5.599772
     60          1           0      -15.813400   -5.668445   -4.947920
     61          1           0      -14.596521   -6.896506   -4.284935
     62          1           0      -14.142050   -5.224905   -4.711709
     63          1           0      -15.429904   -5.237043    2.286657
     64          1           0      -16.948458   -3.497573    4.167142
     65          1           0      -17.359283   -6.388447    2.525731
     66          1           0      -18.179582   -5.075430    1.613684
     67          1           0      -18.143781   -5.023176    3.299793
     68          1           0      -14.981579   -4.927510    4.841667
     69          1           0      -14.941426   -3.276698    5.450810
     70          1           0      -13.429851   -4.627072    3.344078
     71          1           0      -12.795118   -3.543980    4.628880
     72          1           0      -13.607475   -2.892054    3.135636
     73          1           0      -15.471644    2.499216    5.453112
     74          1           0      -15.982436    0.787863    5.675434
     75          1           0      -17.212846    2.017746    5.166473
     76          1           0      -17.042348    4.491483    0.691987
     77          1           0      -14.887979    8.091135   -0.318308
     78          1           0      -14.582300    7.021350   -1.815589
     79          1           0      -13.583536    7.031112   -0.349948
     80         12           0       16.035273   -0.683529    0.127699
     81          6           0       15.049135    2.762577    0.303567
     82          6           0       15.935392   -0.383823   -3.268591
     83          6           0       16.461464   -3.821944   -0.062428
     84          6           0       14.960494   -1.015330    3.426250
     85          7           0       15.542579    1.020602   -1.193457
     86          6           0       15.242399    2.298135   -1.014144
     87          6           0       15.222602    3.143063   -2.316164
     88          6           0       14.943901    1.960354   -3.366120
     89          6           0       15.540516    0.792683   -2.583011
     90          6           0       13.465385    1.684182   -3.583037
     91          6           0       16.597942    3.845441   -2.593885
     92          6           0       16.560353    4.928450   -3.674361
     93          1           0       17.412247    6.103366   -3.512109
     94          7           0       16.650263   -1.806539   -1.388620
     95          6           0       16.551951   -1.522075   -2.704172
     96          6           0       17.130967   -2.675866   -3.409634
     97          6           0       17.428971   -3.736266   -2.408919
     98          6           0       16.826060   -3.158104   -1.224726
     99          6           0       17.423508   -2.666329   -4.881964
    100          6           0       18.128209   -5.058401   -2.504989
    101          8           0       18.064133   -5.924092   -1.561961
    102          6           0       18.812505   -5.347460   -3.773715
    103          7           0       15.559669   -2.251137    1.407830
    104          6           0       15.903389   -3.516252    1.109084
    105          6           0       15.706353   -4.429672    2.295346
    106          6           0       15.386232   -3.466169    3.530968
    107          6           0       15.364671   -2.108786    2.794459
    108          6           0       14.592801   -5.467705    2.157934
    109          6           0       16.287078   -3.610816    4.788041
    110          6           0       17.693272   -3.155690    4.470405
    111          7           0       15.334352    0.649605    1.676741
    112          6           0       14.912119    0.298377    2.977670
    113          6           0       14.417087    1.531840    3.622597
    114          6           0       14.565456    2.518573    2.636271
    115          6           0       15.095384    1.936946    1.452890
    116          6           0       13.870382    1.623274    4.933652
    117          6           0       14.384346    3.917900    2.323545
    118          8           0       14.052230    4.915040    2.963178
    119          6           0       14.571220    4.113990    0.757340
    120          6           0       15.485314    5.288998    0.542141
    121          8           0       16.673144    5.240921    0.907307
    122          8           0       14.870183    6.186682   -0.249163
    123          6           0       15.741484    7.365423   -0.500577
    124          1           0       15.715095   -0.462391   -4.333565
    125          1           0       16.691445   -4.889634   -0.037312
    126          1           0       14.699859   -1.016557    4.486799
    127          1           0       14.430206    3.880117   -2.367379
    128          1           0       15.490707    2.117359   -4.292252
    129          1           0       12.845799    2.251130   -2.904195
    130          1           0       13.336758    0.622791   -3.415844
    131          1           0       13.198786    1.858948   -4.629324
    132          1           0       17.276840    3.127193   -3.071344
    133          1           0       17.007960    4.251290   -1.689570
    134          1           0       15.534823    5.228533   -3.921687
    135          1           0       16.947191    4.504518   -4.604226
    136          1           0       16.945179   -1.814888   -5.381618
    137          1           0       16.930738   -3.545225   -5.311585
    138          1           0       18.492450   -2.718922   -5.099366
    139          1           0       18.094239   -5.305810   -4.589088
    140          1           0       19.327372   -6.297516   -3.618208
    141          1           0       19.548527   -4.557893   -3.962038
    142          1           0       16.610407   -4.986575    2.509000
    143          1           0       14.370749   -3.627991    3.921434
    144          1           0       14.945711   -6.507220    2.295570
    145          1           0       14.132519   -5.347923    1.186164
    146          1           0       13.748673   -5.331398    2.831771
    147          1           0       16.359803   -4.660485    5.083096
    148          1           0       15.920977   -3.059307    5.647567
    149          1           0       18.139192   -4.039251    4.003987
    150          1           0       18.221825   -2.880856    5.380975
    151          1           0       17.688112   -2.354932    3.721799
    152          1           0       14.295076    2.509050    5.387002
    153          1           0       14.089208    0.732418    5.518685
    154          1           0       12.806557    1.707183    4.695952
    155          1           0       13.582609    4.280326    0.327742
    156          1           0       15.176448    8.251403   -0.194877
    157          1           0       16.035531    7.297985   -1.564886
    158          1           0       16.635483    7.465843    0.103686
 ---------------------------------------------------------------------

 SCF Done:  E(RCAM-B3LYP) =  -4069.81175511     A.U. after   19 cycles

 Excitation energies and oscillator strengths:

 Excited State   1:      Singlet-A      1.6753 eV  740.06 nm  f=0.2214  <S**2>=0.000
     310 -> 316        0.16860
     311 -> 313        0.66654
     312 -> 314       -0.16248
     310 <- 316        0.10164
 This state for optimization and/or second-order correction.
 Total Energy, E(TD-HF/TD-DFT) =  -4069.75018810
 Copying the excited state density for this state as the 1-particle RhoCI density.

 Excited State   2:      Singlet-A      1.6801 eV  737.95 nm  f=0.5563  <S**2>=0.000
     309 -> 315        0.17061
     311 -> 313        0.16243
     312 -> 314        0.66617
     309 <- 315        0.10214

 Excited State   3:      Singlet-A      2.1861 eV  567.15 nm  f=0.0949  <S**2>=0.000
     310 -> 313        0.64207
     311 -> 316       -0.27295

 Excited State   4:      Singlet-A      2.1925 eV  565.49 nm  f=0.1052  <S**2>=0.000
     309 -> 314        0.64030
     312 -> 315       -0.27812

 Excited State   5:      Singlet-A      3.0623 eV  404.88 nm  f=0.0000  <S**2>=0.000
     312 -> 313        0.70710

 The electronic state is 1-A.
 Alpha  occ. eigenvalues --  -46.87783 -46.87660 -19.26346 -19.26268 -19.19158
 Alpha  occ. eigenvalues --  -19.19004 -19.18804 -19.18715 -19.18155 -19.18048
 Alpha  occ. eigenvalues --  -14.42497 -14.42437 -14.41436 -14.41359 -14.39390
 Alpha  occ. eigenvalues --  -14.39352 -14.38599 -14.38573 -10.39088 -10.39064
 Alpha  occ. eigenvalues --  -10.35437 -10.35393 -10.34375 -10.34225 -10.31752
 Alpha  occ. eigenvalues --  -10.31662 -10.31392 -10.31308 -10.31023 -10.30896
 Alpha  occ. eigenvalues --  -10.30556 -10.30494 -10.30397 -10.30360 -10.30194
 Alpha  occ. eigenvalues --  -10.30141 -10.29907 -10.29894 -10.29618 -10.29436
 Alpha  occ. eigenvalues --  -10.29400 -10.29242 -10.28736 -10.28718 -10.28654
 Alpha  occ. eigenvalues --  -10.28525 -10.28404 -10.28352 -10.28140 -10.28104
 Alpha  occ. eigenvalues --  -10.27999 -10.27780 -10.27714 -10.27669 -10.27572
 Alpha  occ. eigenvalues --  -10.27517 -10.27488 -10.27483 -10.27471 -10.27468
 Alpha  occ. eigenvalues --  -10.27465 -10.27437 -10.27390 -10.27375 -10.27144
 Alpha  occ. eigenvalues --  -10.27048 -10.26692 -10.26692 -10.26417 -10.26401
 Alpha  occ. eigenvalues --  -10.26222 -10.26170 -10.26137 -10.26025 -10.26006
 Alpha  occ. eigenvalues --  -10.25933 -10.25846 -10.25828 -10.25423 -10.25397
 Alpha  occ. eigenvalues --  -10.24871 -10.24819 -10.24775 -10.24730 -10.24689
 Alpha  occ. eigenvalues --  -10.24673  -3.16526  -3.16410  -1.91408  -1.91292
 Alpha  occ. eigenvalues --   -1.90994  -1.90881  -1.90837  -1.90718  -1.16640
 Alpha  occ. eigenvalues --   -1.16617  -1.08655  -1.08612  -1.07205  -1.06968
 Alpha  occ. eigenvalues --   -1.06943  -1.06626  -1.04568  -1.04495  -1.03747
 Alpha  occ. eigenvalues --   -1.03663  -1.03221  -1.03038  -1.02398  -1.02111
 Alpha  occ. eigenvalues --   -0.91986  -0.91958  -0.89506  -0.89494  -0.89175
 Alpha  occ. eigenvalues --   -0.89151  -0.88274  -0.88220  -0.87856  -0.87791
 Alpha  occ. eigenvalues --   -0.87683  -0.87660  -0.87262  -0.87121  -0.84999
 Alpha  occ. eigenvalues --   -0.84969  -0.83923  -0.83875  -0.82956  -0.82932
 Alpha  occ. eigenvalues --   -0.82652  -0.82636  -0.81594  -0.81571  -0.80583
 Alpha  occ. eigenvalues --   -0.80441  -0.78785  -0.78635  -0.77205  -0.77144
 Alpha  occ. eigenvalues --   -0.76921  -0.76897  -0.75910  -0.75837  -0.74885
 Alpha  occ. eigenvalues --   -0.74802  -0.72761  -0.72698  -0.71659  -0.71580
 Alpha  occ. eigenvalues --   -0.69894  -0.69757  -0.68860  -0.68827  -0.67628
 Alpha  occ. eigenvalues --   -0.67601  -0.67207  -0.67200  -0.65273  -0.65271
 Alpha  occ. eigenvalues --   -0.64840  -0.64769  -0.64653  -0.64607  -0.64256
 Alpha  occ. eigenvalues --   -0.64203  -0.62283  -0.62276  -0.60430  -0.60340
 Alpha  occ. eigenvalues --   -0.59796  -0.59791  -0.58992  -0.58974  -0.58490
 Alpha  occ. eigenvalues --   -0.58424  -0.57570  -0.57552  -0.57295  -0.57236
 Alpha  occ. eigenvalues --   -0.56297  -0.56203  -0.55964  -0.55885  -0.55508
 Alpha  occ. eigenvalues --   -0.55451  -0.55326  -0.55246  -0.54509  -0.54486
 Alpha  occ. eigenvalues --   -0.53912  -0.53882  -0.53286  -0.53227  -0.53209
 Alpha  occ. eigenvalues --   -0.53141  -0.52901  -0.52901  -0.52744  -0.52669
 Alpha  occ. eigenvalues --   -0.52425  -0.52400  -0.51900  -0.51882  -0.51658
 Alpha  occ. eigenvalues --   -0.51604  -0.51200  -0.51182  -0.50561  -0.50476
 Alpha  occ. eigenvalues --   -0.50019  -0.49980  -0.49906  -0.49867  -0.49502
 Alpha  occ. eigenvalues --   -0.49488  -0.49201  -0.49201  -0.49103  -0.49083
 Alpha  occ. eigenvalues --   -0.48579  -0.48557  -0.48449  -0.48432  -0.48375
 Alpha  occ. eigenvalues --   -0.48339  -0.47682  -0.47594  -0.47284  -0.47118
 Alpha  occ. eigenvalues --   -0.46784  -0.46708  -0.46553  -0.46542  -0.46346
 Alpha  occ. eigenvalues --   -0.46270  -0.46149  -0.46084  -0.45820  -0.45807
 Alpha  occ. eigenvalues --   -0.45208  -0.45188  -0.44564  -0.44513  -0.44495
 Alpha  occ. eigenvalues --   -0.44476  -0.44131  -0.44126  -0.44077  -0.44075
 Alpha  occ. eigenvalues --   -0.44006  -0.43939  -0.43551  -0.43480  -0.43385
 Alpha  occ. eigenvalues --   -0.43373  -0.43014  -0.42928  -0.42899  -0.42684
 Alpha  occ. eigenvalues --   -0.42640  -0.42553  -0.41996  -0.41963  -0.41690
 Alpha  occ. eigenvalues --   -0.41668  -0.41521  -0.41458  -0.41128  -0.40989
 Alpha  occ. eigenvalues --   -0.40856  -0.40812  -0.40723  -0.40698  -0.40558
 Alpha  occ. eigenvalues --   -0.40493  -0.40227  -0.40221  -0.39427  -0.39425
 Alpha  occ. eigenvalues --   -0.38456  -0.38350  -0.37735  -0.37653  -0.37307
 Alpha  occ. eigenvalues --   -0.37265  -0.37250  -0.37199  -0.36769  -0.36698
 Alpha  occ. eigenvalues --   -0.36216  -0.36178  -0.34273  -0.34253  -0.33860
 Alpha  occ. eigenvalues --   -0.33755  -0.33175  -0.33173  -0.31333  -0.31274
 Alpha  occ. eigenvalues --   -0.31022  -0.30972  -0.30014  -0.29952  -0.29436
 Alpha  occ. eigenvalues --   -0.29327  -0.29308  -0.29210  -0.24067  -0.24035
 Alpha  occ. eigenvalues --   -0.21116  -0.21114
 Alpha virt. eigenvalues --   -0.08791  -0.08761  -0.01737  -0.01683  -0.00046
 Alpha virt. eigenvalues --   -0.00029   0.02209   0.02214   0.03137   0.03227
 Alpha virt. eigenvalues --    0.04731   0.04731   0.05114   0.05168   0.06184

 Mulliken charges:
               1
     1  Mg   0.838805
     2  C   -0.002949
     3  C   -0.094125
     4  C   -0.045887
     5  C   -0.063956
     6  N   -0.256793
     7  C   -0.052463
     8  C   -0.014013
     9  C   -0.087003
    10  C    0.046327
    11  C    0.104815
    12  C    0.053468
    13  C   -0.071799
    14  H    0.036151
    15  N   -0.433144
    16  C    0.168416
    17  C   -0.177176
    18  C   -0.004019
    19  C    0.148720
    20  C    0.110186
    21  C    0.012276
    22  O   -0.249640
    23  C    0.062482
    24  N   -0.341169
    25  C    0.041253
    26  C   -0.028184
    27  C   -0.023959
    28  C    0.074847
    29  C    0.076174
    30  C    0.035122
    31  C   -0.004502
    32  N   -0.310476
    33  C    0.080425
    34  C   -0.169682
    35  C    0.008363
    36  C    0.082984
    37  C    0.127305
    38  C    0.046145
    39  O   -0.188396
    40  C   -0.005344
    41  C    0.212882
    42  O   -0.257082
    43  O   -0.304808
    44  C    0.157684
    45  H   -0.017626
    46  H   -0.016852
    47  H   -0.041476
    48  H    0.000942
    49  H   -0.004048
    50  H    0.025477
    51  H    0.016438
    52  H    0.016639
    53  H    0.011196
    54  H    0.044148
    55  H    0.017864
    56  H    0.017925
    57  H    0.005862
    58  H    0.026799
    59  H    0.039525
    60  H    0.037332
    61  H    0.035623
    62  H    0.031493
    63  H    0.016548
    64  H    0.009457
    65  H    0.023197
    66  H    0.012535
    67  H    0.004750
    68  H    0.006356
    69  H    0.004749
    70  H    0.008765
    71  H    0.018175
    72  H    0.028985
    73  H    0.047614
    74  H    0.009123
    75  H    0.046006
    76  H    0.035145
    77  H    0.042963
    78  H    0.046381
    79  H    0.053725
    80  Mg   0.837856
    81  C   -0.016807
    82  C   -0.087797
    83  C   -0.045511
    84  C   -0.064867
    85  N   -0.254568
    86  C   -0.049832
    87  C   -0.015116
    88  C   -0.090491
    89  C    0.045751
    90  C    0.114370
    91  C    0.062539
    92  C   -0.077892
    93  H    0.034908
    94  N   -0.423488
    95  C    0.162903
    96  C   -0.174634
    97  C   -0.007814
    98  C    0.152123
    99  C    0.099376
   100  C    0.015557
   101  O   -0.253183
   102  C    0.061198
   103  N   -0.350029
   104  C    0.037505
   105  C   -0.019849
   106  C   -0.034829
   107  C    0.088922
   108  C    0.073646
   109  C    0.034734
   110  C   -0.007682
   111  N   -0.324126
   112  C    0.078451
   113  C   -0.163109
   114  C    0.002272
   115  C    0.096193
   116  C    0.131487
   117  C    0.042415
   118  O   -0.187783
   119  C    0.000895
   120  C    0.211268
   121  O   -0.251020
   122  O   -0.305622
   123  C    0.152025
   124  H   -0.019680
   125  H   -0.015574
   126  H   -0.040408
   127  H   -0.000619
   128  H   -0.004340
   129  H    0.022501
   130  H    0.014426
   131  H    0.016266
   132  H    0.013908
   133  H    0.037682
   134  H    0.020796
   135  H    0.019571
   136  H    0.008750
   137  H    0.026124
   138  H    0.039782
   139  H    0.038243
   140  H    0.036389
   141  H    0.033895
   142  H    0.014399
   143  H    0.012466
   144  H    0.025137
   145  H    0.011639
   146  H    0.005712
   147  H    0.006272
   148  H    0.003682
   149  H    0.010923
   150  H    0.017945
   151  H    0.030096
   152  H    0.046035
   153  H    0.008526
   154  H    0.047027
   155  H    0.035077
   156  H    0.043954
   157  H    0.049472
   158  H    0.053580
 Sum of Mulliken charges =  -0.00000

 Dipole moment (field-independent basis, Debye):
    X=             -2.7130    Y=             -2.4752    Z=             -8.1790  Tot=              8.9657
 Quadrupole moment (field-independent basis, Debye-Ang):
   XX=           -476.8048   YY=           -547.8565   ZZ=           -451.2701
   XY=              2.1892   XZ=             -7.1446   YZ=            -51.7605

 Normal termination of Gaussian 16 at Sun Sep 12 19:22:57 2021.
