 Gaussian 16, Revision A.03,
 Gaussian 16:  ES64L-G16RevA.03 25-Dec-2016

 -----------------------------------
 #p cam-b3lyp/Def2SVP td=(nstates=5)
 -----------------------------------

 --------------------------------
 TDDFT excited states in gaussian
 --------------------------------
 Symbolic Z-matrix:
 Charge =  0 Multiplicity = 1

                         Standard orientation:
 ---------------------------------------------------------------------
 Center     Atomic      Atomic             Coordinates (Angstroms)
 Number     Number       Type             X           Y           Z
 ---------------------------------------------------------------------
      1         12           0      -15.924902    0.732733    0.426245
      2          6           0      -16.239918   -1.838427   -2.044000
      3          6           0      -16.908251   -1.575282    2.739070
      4          6           0      -16.093486    3.086996    2.544180
      5          6           0      -16.078409    3.046435   -2.175462
      6          7           0      -16.474548   -1.404238    0.247666
      7          6           0      -16.496544   -2.286633   -0.746349
      8          6           0      -16.743981   -3.748929   -0.269022
      9          6           0      -17.485772   -3.441963    1.108482
     10          6           0      -16.895548   -2.074107    1.402640
     11          6           0      -18.998383   -3.304452    0.968476
     12          6           0      -15.408446   -4.533015   -0.038187
     13          6           0      -15.558630   -6.049793    0.110750
     14          1           0      -14.519992   -6.912904   -0.431116
     15          7           0      -15.949964    0.680224    2.400952
     16          6           0      -16.367095   -0.347723    3.178521
     17          6           0      -16.189128    0.100359    4.576459
     18          6           0      -15.813423    1.541239    4.548103
     19          6           0      -15.964785    1.837678    3.146464
     20          6           0      -16.326477   -0.811757    5.756683
     21          6           0      -15.395962    2.501635    5.616512
     22          8           0      -15.339457    3.762626    5.413327
     23          6           0      -15.136796    1.928954    6.949895
     24          7           0      -16.286022    2.780927    0.246997
     25          6           0      -16.245932    3.584776    1.315269
     26          6           0      -16.251890    5.029516    0.911995
     27          6           0      -16.058599    5.046865   -0.672963
     28          6           0      -16.057012    3.519249   -0.927240
     29          6           0      -17.513483    5.822145    1.280960
     30          6           0      -14.882392    5.888323   -1.228753
     31          6           0      -13.566848    5.265973   -0.817511
     32          7           0      -15.945332    0.652070   -1.742653
     33          6           0      -16.035935    1.737561   -2.625928
     34          6           0      -16.123383    1.179955   -3.988093
     35          6           0      -16.094083   -0.200506   -3.800173
     36          6           0      -16.021091   -0.487428   -2.407105
     37          6           0      -16.273378    1.930253   -5.187672
     38          6           0      -16.132293   -1.500210   -4.450687
     39          8           0      -16.098584   -1.885933   -5.620120
     40          6           0      -16.351103   -2.613531   -3.333339
     41          6           0      -15.352063   -3.710343   -3.582800
     42          8           0      -14.129447   -3.507491   -3.436420
     43          8           0      -15.998880   -4.877869   -3.720834
     44          6           0      -15.063297   -6.012821   -3.941565
     45          1           0      -17.430280   -2.145151    3.510222
     46          1           0      -16.044298    3.932394    3.233615
     47          1           0      -16.043608    3.708667   -3.042462
     48          1           0      -17.393558   -4.335429   -0.919015
     49          1           0      -17.206511   -4.150737    1.887825
     50          1           0      -19.303990   -3.312160   -0.077691
     51          1           0      -19.247847   -2.349257    1.430928
     52          1           0      -19.512558   -4.065298    1.556282
     53          1           0      -15.013610   -4.287973    0.947774
     54          1           0      -14.692564   -4.317857   -0.832257
     55          1           0      -16.543350   -6.386653   -0.214460
     56          1           0      -15.525982   -6.293597    1.172679
     57          1           0      -16.770277   -1.766062    5.475814
     58          1           0      -17.057622   -0.358647    6.425881
     59          1           0      -15.381319   -0.947535    6.282586
     60          1           0      -16.037116    1.429345    7.308173
     61          1           0      -14.763512    2.749174    7.562062
     62          1           0      -14.372650    1.156342    6.859893
     63          1           0      -15.428484    5.569046    1.378187
     64          1           0      -16.934756    5.442113   -1.187553
     65          1           0      -17.314281    6.702383    1.892682
     66          1           0      -18.202388    5.144123    1.783938
     67          1           0      -18.112645    6.149047    0.431515
     68          1           0      -14.905571    6.894458   -0.811499
     69          1           0      -14.893907    5.979394   -2.314951
     70          1           0      -13.413488    5.661638    0.185864
     71          1           0      -12.768896    5.584640   -1.489028
     72          1           0      -13.648779    4.182291   -0.731446
     73          1           0      -15.593241    1.484429   -5.913359
     74          1           0      -16.045932    2.983815   -5.026805
     75          1           0      -17.328037    1.758824   -5.402528
     76          1           0      -17.377704   -2.963638   -3.436479
     77          1           0      -15.364461   -6.501490   -4.868245
     78          1           0      -15.076943   -6.607786   -3.028200
     79          1           0      -14.031185   -5.748435   -4.174340
     80         12           0       15.788278   -0.687517    0.474942
     81          6           0       16.669328    1.723462   -2.033049
     82          6           0       17.255513    1.375653    2.760804
     83          6           0       15.429658   -2.986305    2.632339
     84          6           0       15.434551   -3.020344   -2.089910
     85          7           0       16.797210    1.269952    0.268481
     86          6           0       17.017930    2.118180   -0.724570
     87          6           0       17.574094    3.497689   -0.280508
     88          6           0       18.235862    3.052766    1.113397
     89          6           0       17.356942    1.843527    1.426298
     90          6           0       19.671878    2.575893    0.972764
     91          6           0       16.438385    4.558594   -0.064456
     92          6           0       16.924820    6.003425    0.068235
     93          1           0       16.097111    7.070336   -0.487708
     94          7           0       15.821770   -0.604713    2.457512
     95          6           0       16.447087    0.314034    3.223121
     96          6           0       16.185587   -0.078264    4.616637
     97          6           0       15.493479   -1.395715    4.611078
     98          6           0       15.575153   -1.730434    3.203458
     99          6           0       16.512689    0.804830    5.785647
    100          6           0       14.873481   -2.223952    5.695431
    101          8           0       14.538704   -3.445874    5.501352
    102          6           0       14.755693   -1.591392    7.017352
    103          7           0       15.683626   -2.758446    0.324545
    104          6           0       15.471495   -3.520704    1.411691
    105          6           0       15.159422   -4.946849    1.025513
    106          6           0       14.967254   -4.929826   -0.562054
    107          6           0       15.304100   -3.448729   -0.841863
    108          6           0       16.218436   -5.983998    1.398613
    109          6           0       13.633487   -5.501858   -1.115683
    110          6           0       12.482101   -4.609182   -0.712195
    111          7           0       15.823239   -0.641813   -1.684864
    112          6           0       15.679009   -1.737700   -2.563667
    113          6           0       15.889301   -1.227475   -3.934027
    114          6           0       16.166210    0.136147   -3.754184
    115          6           0       16.150908    0.449197   -2.368085
    116          6           0       15.861263   -2.006324   -5.125121
    117          6           0       16.478472    1.379740   -4.421028
    118          8           0       16.538434    1.745054   -5.594351
    119          6           0       16.942853    2.436402   -3.328242
    120          6           0       16.210681    3.724591   -3.587104
    121          8           0       14.975977    3.787882   -3.452482
    122          8           0       17.105932    4.717660   -3.737790
    123          6           0       16.427570    6.017727   -3.985747
    124          1           0       17.885945    1.836791    3.521590
    125          1           0       15.193647   -3.795725    3.327045
    126          1           0       15.244662   -3.664559   -2.951077
    127          1           0       18.330302    3.914585   -0.934823
    128          1           0       18.111954    3.820811    1.872428
    129          1           0       19.972716    2.503060   -0.061801
    130          1           0       19.706611    1.603439    1.446237
    131          1           0       20.340785    3.217757    1.553192
    132          1           0       15.999771    4.415787    0.931521
    133          1           0       15.704040    4.494665   -0.843730
    134          1           0       17.967129    6.118596   -0.253121
    135          1           0       16.940317    6.268383    1.128218
    136          1           0       17.164364    1.636766    5.491366
    137          1           0       17.124176    0.211068    6.473690
    138          1           0       15.621932    1.151549    6.313856
    139          1           0       15.742577   -1.295965    7.365559
    140          1           0       14.208142   -2.305638    7.635341
    141          1           0       14.169950   -0.671166    6.913902
    142          1           0       14.238106   -5.279820    1.487468
    143          1           0       15.736109   -5.528715   -1.071991
    144          1           0       15.824954   -6.801040    2.032406
    145          1           0       17.033627   -5.475678    1.896214
    146          1           0       16.720444   -6.455342    0.555393
    147          1           0       13.432587   -6.483606   -0.679829
    148          1           0       13.629280   -5.621266   -2.193980
    149          1           0       12.249735   -4.949144    0.301462
    150          1           0       11.634894   -4.751302   -1.380095
    151          1           0       12.800754   -3.562544   -0.643926
    152          1           0       15.302570   -1.437203   -5.856192
    153          1           0       15.411917   -2.981931   -4.951730
    154          1           0       16.931579   -2.078981   -5.335892
    155          1           0       18.023055    2.553158   -3.423676
    156          1           0       16.833837    6.416966   -4.920225
    157          1           0       16.587412    6.617521   -3.070081
    158          1           0       15.367253    5.995294   -4.208628
 ---------------------------------------------------------------------

 SCF Done:  E(RCAM-B3LYP) =  -4069.81175447     A.U. after   19 cycles

 Excitation energies and oscillator strengths:

 Excited State   1:      Singlet-A      1.6753 eV  740.06 nm  f=0.2143  <S**2>=0.000
     310 -> 316        0.16866
     311 -> 313        0.66679
     312 -> 314       -0.16145
     310 <- 316        0.10168
 This state for optimization and/or second-order correction.
 Total Energy, E(TD-HF/TD-DFT) =  -4069.75018759
 Copying the excited state density for this state as the 1-particle RhoCI density.

 Excited State   2:      Singlet-A      1.6801 eV  737.95 nm  f=0.5632  <S**2>=0.000
     309 -> 315        0.17067
     311 -> 313        0.16141
     312 -> 314        0.66642
     309 <- 315        0.10218

 Excited State   3:      Singlet-A      2.1861 eV  567.15 nm  f=0.0962  <S**2>=0.000
     310 -> 313        0.64217
     311 -> 316       -0.27298

 Excited State   4:      Singlet-A      2.1925 eV  565.49 nm  f=0.1041  <S**2>=0.000
     309 -> 314        0.64040
     312 -> 315       -0.27816

 Excited State   5:      Singlet-A      3.0591 eV  405.30 nm  f=0.0000  <S**2>=0.000
     312 -> 313        0.70711

 The electronic state is 1-A.
 Alpha  occ. eigenvalues --  -46.87754 -46.87661 -19.26346 -19.26239 -19.19157
 Alpha  occ. eigenvalues --  -19.18974 -19.18774 -19.18716 -19.18126 -19.18050
 Alpha  occ. eigenvalues --  -14.42498 -14.42407 -14.41407 -14.41360 -14.39360
 Alpha  occ. eigenvalues --  -14.39353 -14.38600 -14.38544 -10.39087 -10.39034
 Alpha  occ. eigenvalues --  -10.35407 -10.35393 -10.34346 -10.34228 -10.31751
 Alpha  occ. eigenvalues --  -10.31633 -10.31362 -10.31309 -10.31024 -10.30866
 Alpha  occ. eigenvalues --  -10.30527 -10.30465 -10.30398 -10.30361 -10.30165
 Alpha  occ. eigenvalues --  -10.30142 -10.29895 -10.29878 -10.29588 -10.29437
 Alpha  occ. eigenvalues --  -10.29401 -10.29212 -10.28719 -10.28706 -10.28652
 Alpha  occ. eigenvalues --  -10.28494 -10.28405 -10.28322 -10.28141 -10.28075
 Alpha  occ. eigenvalues --  -10.28001 -10.27750 -10.27685 -10.27670 -10.27542
 Alpha  occ. eigenvalues --  -10.27519 -10.27484 -10.27469 -10.27466 -10.27459
 Alpha  occ. eigenvalues --  -10.27440 -10.27408 -10.27377 -10.27361 -10.27115
 Alpha  occ. eigenvalues --  -10.27049 -10.26691 -10.26660 -10.26418 -10.26370
 Alpha  occ. eigenvalues --  -10.26194 -10.26140 -10.26136 -10.26028 -10.25977
 Alpha  occ. eigenvalues --  -10.25934 -10.25850 -10.25800 -10.25401 -10.25397
 Alpha  occ. eigenvalues --  -10.24873 -10.24790 -10.24745 -10.24726 -10.24691
 Alpha  occ. eigenvalues --  -10.24641  -3.16496  -3.16411  -1.91378  -1.91293
 Alpha  occ. eigenvalues --   -1.90965  -1.90882  -1.90807  -1.90718  -1.16640
 Alpha  occ. eigenvalues --   -1.16587  -1.08657  -1.08584  -1.07175  -1.06968
 Alpha  occ. eigenvalues --   -1.06941  -1.06596  -1.04538  -1.04496  -1.03718
 Alpha  occ. eigenvalues --   -1.03664  -1.03191  -1.03039  -1.02368  -1.02112
 Alpha  occ. eigenvalues --   -0.91987  -0.91929  -0.89494  -0.89477  -0.89151
 Alpha  occ. eigenvalues --   -0.89145  -0.88244  -0.88221  -0.87827  -0.87794
 Alpha  occ. eigenvalues --   -0.87684  -0.87630  -0.87232  -0.87121  -0.85000
 Alpha  occ. eigenvalues --   -0.84939  -0.83894  -0.83876  -0.82933  -0.82926
 Alpha  occ. eigenvalues --   -0.82653  -0.82606  -0.81595  -0.81542  -0.80553
 Alpha  occ. eigenvalues --   -0.80442  -0.78755  -0.78636  -0.77176  -0.77145
 Alpha  occ. eigenvalues --   -0.76898  -0.76891  -0.75880  -0.75839  -0.74856
 Alpha  occ. eigenvalues --   -0.74804  -0.72732  -0.72699  -0.71630  -0.71582
 Alpha  occ. eigenvalues --   -0.69864  -0.69757  -0.68830  -0.68827  -0.67602
 Alpha  occ. eigenvalues --   -0.67598  -0.67200  -0.67177  -0.65271  -0.65243
 Alpha  occ. eigenvalues --   -0.64810  -0.64770  -0.64653  -0.64577  -0.64227
 Alpha  occ. eigenvalues --   -0.64204  -0.62277  -0.62253  -0.60400  -0.60341
 Alpha  occ. eigenvalues --   -0.59797  -0.59762  -0.58993  -0.58945  -0.58461
 Alpha  occ. eigenvalues --   -0.58425  -0.57553  -0.57541  -0.57266  -0.57237
 Alpha  occ. eigenvalues --   -0.56267  -0.56204  -0.55934  -0.55885  -0.55478
 Alpha  occ. eigenvalues --   -0.55452  -0.55296  -0.55247  -0.54487  -0.54480
 Alpha  occ. eigenvalues --   -0.53913  -0.53852  -0.53256  -0.53228  -0.53179
 Alpha  occ. eigenvalues --   -0.53142  -0.52901  -0.52871  -0.52714  -0.52669
 Alpha  occ. eigenvalues --   -0.52400  -0.52394  -0.51884  -0.51872  -0.51659
 Alpha  occ. eigenvalues --   -0.51574  -0.51201  -0.51153  -0.50531  -0.50477
 Alpha  occ. eigenvalues --   -0.49989  -0.49981  -0.49877  -0.49868  -0.49488
 Alpha  occ. eigenvalues --   -0.49472  -0.49202  -0.49172  -0.49105  -0.49054
 Alpha  occ. eigenvalues --   -0.48558  -0.48550  -0.48420  -0.48403  -0.48377
 Alpha  occ. eigenvalues --   -0.48340  -0.47652  -0.47595  -0.47255  -0.47119
 Alpha  occ. eigenvalues --   -0.46754  -0.46709  -0.46554  -0.46512  -0.46316
 Alpha  occ. eigenvalues --   -0.46271  -0.46120  -0.46086  -0.45821  -0.45778
 Alpha  occ. eigenvalues --   -0.45210  -0.45160  -0.44534  -0.44514  -0.44476
 Alpha  occ. eigenvalues --   -0.44464  -0.44128  -0.44102  -0.44078  -0.44046
 Alpha  occ. eigenvalues --   -0.43977  -0.43939  -0.43552  -0.43451  -0.43386
 Alpha  occ. eigenvalues --   -0.43343  -0.42984  -0.42929  -0.42900  -0.42655
 Alpha  occ. eigenvalues --   -0.42611  -0.42553  -0.41966  -0.41963  -0.41669
 Alpha  occ. eigenvalues --   -0.41661  -0.41491  -0.41458  -0.41099  -0.40990
 Alpha  occ. eigenvalues --   -0.40826  -0.40781  -0.40723  -0.40699  -0.40529
 Alpha  occ. eigenvalues --   -0.40493  -0.40226  -0.40190  -0.39425  -0.39397
 Alpha  occ. eigenvalues --   -0.38427  -0.38351  -0.37704  -0.37653  -0.37278
 Alpha  occ. eigenvalues --   -0.37266  -0.37220  -0.37199  -0.36769  -0.36669
 Alpha  occ. eigenvalues --   -0.36217  -0.36149  -0.34254  -0.34243  -0.33859
 Alpha  occ. eigenvalues --   -0.33725  -0.33176  -0.33143  -0.31304  -0.31275
 Alpha  occ. eigenvalues --   -0.30993  -0.30973  -0.29985  -0.29955  -0.29407
 Alpha  occ. eigenvalues --   -0.29328  -0.29279  -0.29212  -0.24038  -0.24037
 Alpha  occ. eigenvalues --   -0.21117  -0.21085
 Alpha virt. eigenvalues --   -0.08792  -0.08732  -0.01707  -0.01684  -0.00030
 Alpha virt. eigenvalues --   -0.00016   0.02207   0.02243   0.03169   0.03230
 Alpha virt. eigenvalues --    0.04729   0.04761   0.05143   0.05168   0.06184

 Mulliken charges:
               1
     1  Mg   0.838853
     2  C   -0.002966
     3  C   -0.094110
     4  C   -0.045884
     5  C   -0.063972
     6  N   -0.256791
     7  C   -0.052454
     8  C   -0.014014
     9  C   -0.087024
    10  C    0.046354
    11  C    0.104824
    12  C    0.053459
    13  C   -0.071814
    14  H    0.036193
    15  N   -0.433150
    16  C    0.168415
    17  C   -0.177155
    18  C   -0.004014
    19  C    0.148715
    20  C    0.110177
    21  C    0.012288
    22  O   -0.249653
    23  C    0.062475
    24  N   -0.341175
    25  C    0.041251
    26  C   -0.028162
    27  C   -0.023973
    28  C    0.074864
    29  C    0.076183
    30  C    0.035116
    31  C   -0.004500
    32  N   -0.310482
    33  C    0.080442
    34  C   -0.169689
    35  C    0.008354
    36  C    0.083013
    37  C    0.127302
    38  C    0.046142
    39  O   -0.188421
    40  C   -0.005337
    41  C    0.212868
    42  O   -0.257037
    43  O   -0.304824
    44  C    0.157680
    45  H   -0.017636
    46  H   -0.016864
    47  H   -0.041488
    48  H    0.000922
    49  H   -0.004033
    50  H    0.025455
    51  H    0.016423
    52  H    0.016624
    53  H    0.011236
    54  H    0.044168
    55  H    0.017829
    56  H    0.017945
    57  H    0.005863
    58  H    0.026775
    59  H    0.039574
    60  H    0.037309
    61  H    0.035619
    62  H    0.031544
    63  H    0.016561
    64  H    0.009426
    65  H    0.023177
    66  H    0.012515
    67  H    0.004720
    68  H    0.006336
    69  H    0.004742
    70  H    0.008771
    71  H    0.018215
    72  H    0.029007
    73  H    0.047618
    74  H    0.009124
    75  H    0.045969
    76  H    0.035117
    77  H    0.042929
    78  H    0.046394
    79  H    0.053747
    80  Mg   0.837878
    81  C   -0.016797
    82  C   -0.087796
    83  C   -0.045509
    84  C   -0.064875
    85  N   -0.254575
    86  C   -0.049843
    87  C   -0.015098
    88  C   -0.090503
    89  C    0.045773
    90  C    0.114381
    91  C    0.062530
    92  C   -0.077914
    93  H    0.034970
    94  N   -0.423476
    95  C    0.162933
    96  C   -0.174624
    97  C   -0.007816
    98  C    0.152115
    99  C    0.099367
   100  C    0.015573
   101  O   -0.253195
   102  C    0.061194
   103  N   -0.350053
   104  C    0.037512
   105  C   -0.019833
   106  C   -0.034796
   107  C    0.088908
   108  C    0.073663
   109  C    0.034711
   110  C   -0.007678
   111  N   -0.324130
   112  C    0.078476
   113  C   -0.163097
   114  C    0.002252
   115  C    0.096209
   116  C    0.131466
   117  C    0.042411
   118  O   -0.187825
   119  C    0.000909
   120  C    0.211259
   121  O   -0.250959
   122  O   -0.305653
   123  C    0.152006
   124  H   -0.019673
   125  H   -0.015585
   126  H   -0.040427
   127  H   -0.000652
   128  H   -0.004311
   129  H    0.022447
   130  H    0.014403
   131  H    0.016273
   132  H    0.013933
   133  H    0.037715
   134  H    0.020765
   135  H    0.019590
   136  H    0.008761
   137  H    0.026119
   138  H    0.039816
   139  H    0.038236
   140  H    0.036380
   141  H    0.033927
   142  H    0.014419
   143  H    0.012400
   144  H    0.025128
   145  H    0.011609
   146  H    0.005657
   147  H    0.006259
   148  H    0.003689
   149  H    0.010924
   150  H    0.018037
   151  H    0.030109
   152  H    0.046082
   153  H    0.008550
   154  H    0.046915
   155  H    0.035002
   156  H    0.043925
   157  H    0.049488
   158  H    0.053642
 Sum of Mulliken charges =  -0.00000

 Dipole moment (field-independent basis, Debye):
    X=              0.2197    Y=             -0.3865    Z=              7.4852  Tot=              7.4984
 Quadrupole moment (field-independent basis, Debye-Ang):
   XX=           -373.2854   YY=           -463.1448   ZZ=           -539.6229
   XY=             53.1527   XZ=              3.6512   YZ=             -0.8256

 Normal termination of Gaussian 16 at Sun Sep 12 12:17:25 2021.
