 Gaussian 16, Revision A.03,
 Gaussian 16:  ES64L-G16RevA.03 25-Dec-2016

 -----------------------------------
 #p cam-b3lyp/Def2SVP td=(nstates=5)
 -----------------------------------

 --------------------------------
 TDDFT excited states in gaussian
 --------------------------------
 Symbolic Z-matrix:
 Charge =  0 Multiplicity = 1

                         Standard orientation:
 ---------------------------------------------------------------------
 Center     Atomic      Atomic             Coordinates (Angstroms)
 Number     Number       Type             X           Y           Z
 ---------------------------------------------------------------------
      1         12           0       -7.859316   -0.737014   -0.025846
      2          6           0       -8.057591    2.752823    0.744828
      3          6           0       -8.688863    0.076456   -3.234145
      4          6           0       -8.135589   -3.838705   -0.625685
      5          6           0       -8.168187   -1.357976    3.389511
      6          7           0       -8.291660    1.203778   -0.999012
      7          6           0       -8.275275    2.473666   -0.606220
      8          6           0       -8.436310    3.485530   -1.779921
      9          6           0       -9.179353    2.540297   -2.827021
     10          6           0       -8.662691    1.194794   -2.348895
     11          6           0      -10.698653    2.558769   -2.693269
     12          6           0       -7.057045    3.979630   -2.332392
     13          6           0       -7.121437    5.204196   -3.249804
     14          1           0       -6.042391    6.178800   -3.193636
     15          7           0       -7.860555   -1.714827   -1.742450
     16          6           0       -8.211887   -1.222486   -2.954660
     17          6           0       -8.044233   -2.337355   -3.911551
     18          6           0       -7.749201   -3.569051   -3.127985
     19          6           0       -7.931554   -3.089277   -1.781900
     20          6           0       -8.118384   -2.164403   -5.397599
     21          6           0       -7.374283   -4.960687   -3.529129
     22          8           0       -7.389832   -5.934738   -2.701145
     23          6           0       -7.069724   -5.173651   -4.955639
     24          7           0       -8.335159   -2.378341    1.173009
     25          6           0       -8.328345   -3.620396    0.676786
     26          6           0       -8.418547   -4.645045    1.768527
     27          6           0       -8.243281   -3.846296    3.140035
     28          6           0       -8.159806   -2.409797    2.567520
     29          6           0       -9.718119   -5.460480    1.815338
     30          6           0       -7.121409   -4.326115    4.094810
     31          6           0       -5.769150   -4.062843    3.470964
     32          7           0       -7.898178    0.457118    1.786220
     33          6           0       -8.058075   -0.008312    3.099415
     34          6           0       -8.128913    1.177768    3.972493
     35          6           0       -8.021241    2.258180    3.099017
     36          6           0       -7.917752    1.778001    1.762225
     37          6           0       -8.332893    1.165091    5.380565
     38          6           0       -7.994308    3.707097    2.981672
     39          8           0       -7.951659    4.641382    3.783411
     40          6           0       -8.139316    4.087907    1.442262
     41          6           0       -7.083775    5.112189    1.126053
     42          8           0       -5.872786    4.811851    1.151924
     43          8           0       -7.666381    6.208022    0.615895
     44          6           0       -6.671781    7.252643    0.253002
     45          1           0       -9.170358    0.185269   -4.207933
     46          1           0       -8.125996   -4.920235   -0.776149
     47          1           0       -8.179273   -1.475586    4.474637
     48          1           0       -9.059253    4.350628   -1.551949
     49          1           0       -8.853054    2.729950   -3.849412
     50          1           0      -11.014408    3.120495   -1.814244
     51          1           0      -10.995718    1.513637   -2.604134
     52          1           0      -11.163670    2.925417   -3.608749
     53          1           0       -6.665980    3.242670   -3.033834
     54          1           0       -6.362609    4.177540   -1.515131
     55          1           0       -8.089378    5.701737   -3.183089
     56          1           0       -7.064115    4.860546   -4.282674
     57          1           0       -8.511612   -1.185135   -5.667696
     58          1           0       -8.866380   -2.867710   -5.763071
     59          1           0       -7.161652   -2.360646   -5.881834
     60          1           0       -7.937164   -4.894967   -5.554332
     61          1           0       -6.735974   -6.207191   -5.040825
     62          1           0       -6.264968   -4.499099   -5.249401
     63          1           0       -7.621393   -5.382020    1.679987
     64          1           0       -9.145368   -3.880422    3.751384
     65          1           0       -9.561502   -6.537762    1.755002
     66          1           0      -10.363071   -5.113280    1.008629
     67          1           0      -10.343408   -5.274237    2.688117
     68          1           0       -7.195846   -5.400799    4.257473
     69          1           0       -7.149431   -3.840319    5.070242
     70          1           0       -5.627333   -4.927366    2.823415
     71          1           0       -4.997210   -4.020311    4.240061
     72          1           0       -5.790042   -3.178451    2.833861
     73          1           0       -7.636825    1.893596    5.796183
     74          1           0       -8.162440    0.172318    5.796440
     75          1           0       -9.378656    1.467056    5.435833
     76          1           0       -9.145991    4.483393    1.310660
     77          1           0       -6.955207    8.163032    0.781298
     78          1           0       -6.642808    7.287879   -0.836183
     79          1           0       -5.658409    7.104284    0.627709
     80         12           0        8.021799   -0.801001    0.176351
     81          6           0        7.835120    2.764853   -0.182683
     82          6           0        7.187245   -1.027152   -3.123190
     83          6           0        7.736542   -3.936993    0.565712
     84          6           0        7.711030   -0.331717    3.615665
     85          7           0        7.592485    0.740802   -1.350337
     86          6           0        7.612317    2.064671   -1.386658
     87          6           0        7.460020    2.671477   -2.807275
     88          6           0        6.704451    1.443101   -3.513723
     89          6           0        7.215810    0.303533   -2.634759
     90          6           0        5.192244    1.508811   -3.378686
     91          6           0        8.845147    2.960459   -3.485445
     92          6           0        8.777172    3.834342   -4.739816
     93          1           0        9.866093    4.773677   -4.993537
     94          7           0        8.017286   -2.266170   -1.162238
     95          6           0        7.672011   -2.178095   -2.463898
     96          6           0        7.818298   -3.535557   -3.011679
     97          6           0        8.119453   -4.464581   -1.888765
     98          6           0        7.945080   -3.575912   -0.757420
     99          6           0        7.750747   -3.831413   -4.481818
    100          6           0        8.489101   -5.916209   -1.840398
    101          8           0        8.472774   -6.579007   -0.743463
    102          6           0        8.780270   -6.561856   -3.128747
    103          7           0        7.549842   -1.980296    1.822220
    104          6           0        7.545736   -3.321915    1.733018
    105          6           0        7.450692   -3.959115    3.098788
    106          6           0        7.636250   -2.763491    4.144548
    107          6           0        7.721055   -1.576771    3.159709
    108          6           0        6.147257   -4.699203    3.398322
    109          6           0        8.758710   -2.924768    5.206032
    110          6           0       10.112894   -2.886131    4.535157
    111          7           0        7.995617    0.891436    1.519121
    112          6           0        7.829320    0.865395    2.921169
    113          6           0        7.764879    2.268786    3.378089
    114          6           0        7.875932    3.019706    2.198152
    115          6           0        7.980486    2.145832    1.082397
    116          6           0        7.573753    2.698263    4.721644
    117          6           0        7.917815    4.352864    1.641703
    118          8           0        7.958282    5.489326    2.111336
    119          6           0        7.766097    4.246563    0.063072
    120          6           0        8.825051    5.110945   -0.564586
    121          8           0       10.029494    4.830212   -0.433783
    122          8           0        8.238664    5.995602   -1.391567
    123          6           0        9.249216    6.868368   -2.046474
    124          1           0        6.710599   -1.216520   -4.085395
    125          1           0        7.741405   -5.010585    0.767863
    126          1           0        7.713450   -0.100911    4.683091
    127          1           0        6.846853    3.563299   -2.856962
    128          1           0        7.037566    1.312036   -4.539981
    129          1           0        4.880484    2.310916   -2.726321
    130          1           0        4.891327    0.552043   -2.972383
    131          1           0        4.728115    1.576044   -4.366812
    132          1           0        9.229645    2.030935   -3.924652
    133          1           0        9.531364    3.390622   -2.782107
    134          1           0        7.806483    4.334717   -4.841473
    135          1           0        8.838038    3.186595   -5.617733
    136          1           0        7.353590   -2.978520   -5.045942
    137          1           0        7.000676   -4.618440   -4.615466
    138          1           0        8.703893   -4.179353   -4.885687
    139          1           0        7.914273   -6.474132   -3.780519
    140          1           0        9.110664   -7.572485   -2.881087
    141          1           0        9.597209   -6.017920   -3.615937
    142          1           0        8.245262   -4.680473    3.245120
    143          1           0        6.730633   -2.606372    4.748702
    144          1           0        6.301214   -5.758317    3.678750
    145          1           0        5.505447   -4.625047    2.530496
    146          1           0        5.532526   -4.254366    4.178976
    147          1           0        8.681597   -3.899692    5.693610
    148          1           0        8.727161   -2.171264    5.985926
    149          1           0       10.244731   -3.914610    4.185957
    150          1           0       10.886237   -2.609441    5.248893
    151          1           0       10.095988   -2.237611    3.651535
    152          1           0        8.266173    3.512395    4.889749
    153          1           0        7.736479    1.885089    5.425945
    154          1           0        6.524529    3.002879    4.681653
    155          1           0        6.759968    4.581106   -0.192606
    156          1           0        8.966815    7.903062   -1.828870
    157          1           0        9.263530    6.563089   -3.109645
    158          1           0       10.261525    6.839820   -1.660631
 ---------------------------------------------------------------------

 SCF Done:  E(RCAM-B3LYP) =  -4069.81167867     A.U. after   19 cycles

 Excitation energies and oscillator strengths:

 Excited State   1:      Singlet-A      1.6701 eV  742.37 nm  f=0.0371  <S**2>=0.000
     309 -> 315       -0.10375
     310 -> 316        0.13783
     311 -> 313       -0.41135
     312 -> 314        0.54940
 This state for optimization and/or second-order correction.
 Total Energy, E(TD-HF/TD-DFT) =  -4069.75030316
 Copying the excited state density for this state as the 1-particle RhoCI density.

 Excited State   2:      Singlet-A      1.6849 eV  735.86 nm  f=0.7183  <S**2>=0.000
     309 -> 315        0.14153
     310 -> 316        0.10549
     311 -> 313        0.54861
     312 -> 314        0.41086

 Excited State   3:      Singlet-A      2.1855 eV  567.30 nm  f=0.0612  <S**2>=0.000
     309 -> 313       -0.13574
     310 -> 314        0.62820
     312 -> 316       -0.26666

 Excited State   4:      Singlet-A      2.1926 eV  565.46 nm  f=0.1328  <S**2>=0.000
     309 -> 313        0.62630
     310 -> 314        0.13473
     311 -> 315       -0.27211

 Excited State   5:      Singlet-A      2.7652 eV  448.37 nm  f=0.0000  <S**2>=0.000
     312 -> 313        0.70710

 The electronic state is 1-A.
 Alpha  occ. eigenvalues --  -46.87834 -46.87589 -19.26297 -19.26289 -19.19098
 Alpha  occ. eigenvalues --  -19.19036 -19.18861 -19.18654 -19.18194 -19.17972
 Alpha  occ. eigenvalues --  -14.42487 -14.42428 -14.41486 -14.41287 -14.39441
 Alpha  occ. eigenvalues --  -14.39282 -14.38622 -14.38526 -10.39097 -10.39026
 Alpha  occ. eigenvalues --  -10.35495 -10.35333 -10.34414 -10.34150 -10.31705
 Alpha  occ. eigenvalues --  -10.31684 -10.31440 -10.31238 -10.30958 -10.30948
 Alpha  occ. eigenvalues --  -10.30605 -10.30543 -10.30324 -10.30287 -10.30245
 Alpha  occ. eigenvalues --  -10.30072 -10.29953 -10.29819 -10.29668 -10.29367
 Alpha  occ. eigenvalues --  -10.29330 -10.29294 -10.28787 -10.28660 -10.28619
 Alpha  occ. eigenvalues --  -10.28582 -10.28401 -10.28334 -10.28154 -10.28079
 Alpha  occ. eigenvalues --  -10.27927 -10.27828 -10.27765 -10.27624 -10.27602
 Alpha  occ. eigenvalues --  -10.27535 -10.27533 -10.27481 -10.27446 -10.27438
 Alpha  occ. eigenvalues --  -10.27417 -10.27413 -10.27397 -10.27304 -10.27183
 Alpha  occ. eigenvalues --  -10.26974 -10.26748 -10.26645 -10.26469 -10.26368
 Alpha  occ. eigenvalues --  -10.26268 -10.26215 -10.26072 -10.26055 -10.25957
 Alpha  occ. eigenvalues --  -10.25867 -10.25861 -10.25755 -10.25464 -10.25322
 Alpha  occ. eigenvalues --  -10.24866 -10.24823 -10.24797 -10.24721 -10.24671
 Alpha  occ. eigenvalues --  -10.24618  -3.16577  -3.16339  -1.91459  -1.91221
 Alpha  occ. eigenvalues --   -1.91045  -1.90887  -1.90810  -1.90647  -1.16646
 Alpha  occ. eigenvalues --   -1.16582  -1.08650  -1.08579  -1.07262  -1.06907
 Alpha  occ. eigenvalues --   -1.06882  -1.06658  -1.04618  -1.04426  -1.03797
 Alpha  occ. eigenvalues --   -1.03592  -1.03270  -1.02967  -1.02447  -1.02039
 Alpha  occ. eigenvalues --   -0.92004  -0.91914  -0.89553  -0.89424  -0.89225
 Alpha  occ. eigenvalues --   -0.89090  -0.88320  -0.88150  -0.87902  -0.87714
 Alpha  occ. eigenvalues --   -0.87710  -0.87616  -0.87319  -0.87059  -0.85020
 Alpha  occ. eigenvalues --   -0.84938  -0.83968  -0.83807  -0.83013  -0.82873
 Alpha  occ. eigenvalues --   -0.82685  -0.82592  -0.81611  -0.81530  -0.80629
 Alpha  occ. eigenvalues --   -0.80377  -0.78838  -0.78568  -0.77254  -0.77080
 Alpha  occ. eigenvalues --   -0.76966  -0.76835  -0.75954  -0.75773  -0.74929
 Alpha  occ. eigenvalues --   -0.74733  -0.72809  -0.72626  -0.71706  -0.71511
 Alpha  occ. eigenvalues --   -0.69940  -0.69690  -0.68911  -0.68765  -0.67677
 Alpha  occ. eigenvalues --   -0.67534  -0.67262  -0.67145  -0.65322  -0.65209
 Alpha  occ. eigenvalues --   -0.64885  -0.64701  -0.64653  -0.64589  -0.64303
 Alpha  occ. eigenvalues --   -0.64135  -0.62320  -0.62213  -0.60483  -0.60274
 Alpha  occ. eigenvalues --   -0.59841  -0.59732  -0.59021  -0.58923  -0.58537
 Alpha  occ. eigenvalues --   -0.58356  -0.57610  -0.57482  -0.57342  -0.57167
 Alpha  occ. eigenvalues --   -0.56345  -0.56135  -0.56002  -0.55825  -0.55559
 Alpha  occ. eigenvalues --   -0.55389  -0.55367  -0.55178  -0.54549  -0.54421
 Alpha  occ. eigenvalues --   -0.53932  -0.53852  -0.53336  -0.53260  -0.53160
 Alpha  occ. eigenvalues --   -0.53079  -0.52945  -0.52839  -0.52800  -0.52612
 Alpha  occ. eigenvalues --   -0.52471  -0.52335  -0.51943  -0.51798  -0.51656
 Alpha  occ. eigenvalues --   -0.51600  -0.51226  -0.51131  -0.50623  -0.50420
 Alpha  occ. eigenvalues --   -0.50067  -0.49961  -0.49917  -0.49800  -0.49553
 Alpha  occ. eigenvalues --   -0.49426  -0.49248  -0.49136  -0.49130  -0.49036
 Alpha  occ. eigenvalues --   -0.48622  -0.48499  -0.48491  -0.48478  -0.48305
 Alpha  occ. eigenvalues --   -0.48277  -0.47731  -0.47532  -0.47333  -0.47054
 Alpha  occ. eigenvalues --   -0.46832  -0.46642  -0.46593  -0.46494  -0.46393
 Alpha  occ. eigenvalues --   -0.46202  -0.46192  -0.46013  -0.45847  -0.45750
 Alpha  occ. eigenvalues --   -0.45234  -0.45139  -0.44607  -0.44548  -0.44447
 Alpha  occ. eigenvalues --   -0.44412  -0.44180  -0.44125  -0.44061  -0.44053
 Alpha  occ. eigenvalues --   -0.44013  -0.43876  -0.43520  -0.43489  -0.43422
 Alpha  occ. eigenvalues --   -0.43319  -0.43060  -0.42866  -0.42830  -0.42724
 Alpha  occ. eigenvalues --   -0.42680  -0.42487  -0.42042  -0.41900  -0.41736
 Alpha  occ. eigenvalues --   -0.41598  -0.41571  -0.41398  -0.41175  -0.40921
 Alpha  occ. eigenvalues --   -0.40907  -0.40868  -0.40665  -0.40639  -0.40604
 Alpha  occ. eigenvalues --   -0.40425  -0.40276  -0.40175  -0.39475  -0.39359
 Alpha  occ. eigenvalues --   -0.38503  -0.38283  -0.37787  -0.37599  -0.37355
 Alpha  occ. eigenvalues --   -0.37301  -0.37197  -0.37136  -0.36734  -0.36708
 Alpha  occ. eigenvalues --   -0.36221  -0.36150  -0.34321  -0.34182  -0.33798
 Alpha  occ. eigenvalues --   -0.33790  -0.33221  -0.33105  -0.31390  -0.31213
 Alpha  occ. eigenvalues --   -0.31071  -0.30903  -0.30053  -0.29876  -0.29488
 Alpha  occ. eigenvalues --   -0.29356  -0.29258  -0.29135  -0.24116  -0.23964
 Alpha  occ. eigenvalues --   -0.21164  -0.21046
 Alpha virt. eigenvalues --   -0.08811  -0.08721  -0.01787  -0.01614  -0.00099
 Alpha virt. eigenvalues --    0.00036   0.02169   0.02284   0.03076   0.03290
 Alpha virt. eigenvalues --    0.04681   0.04795   0.05079   0.05230   0.06140

 Mulliken charges:
               1
     1  Mg   0.838567
     2  C   -0.002957
     3  C   -0.094283
     4  C   -0.045859
     5  C   -0.063931
     6  N   -0.256763
     7  C   -0.052464
     8  C   -0.013990
     9  C   -0.086955
    10  C    0.046247
    11  C    0.104810
    12  C    0.053541
    13  C   -0.071790
    14  H    0.036150
    15  N   -0.433110
    16  C    0.168310
    17  C   -0.177310
    18  C   -0.004097
    19  C    0.148648
    20  C    0.110216
    21  C    0.012185
    22  O   -0.249563
    23  C    0.062556
    24  N   -0.341113
    25  C    0.041209
    26  C   -0.028178
    27  C   -0.024005
    28  C    0.074861
    29  C    0.076147
    30  C    0.035116
    31  C   -0.004499
    32  N   -0.310509
    33  C    0.080462
    34  C   -0.169614
    35  C    0.008477
    36  C    0.083008
    37  C    0.127282
    38  C    0.046231
    39  O   -0.188080
    40  C   -0.005369
    41  C    0.212951
    42  O   -0.257063
    43  O   -0.304826
    44  C    0.157561
    45  H   -0.017666
    46  H   -0.016823
    47  H   -0.041386
    48  H    0.001071
    49  H   -0.004191
    50  H    0.025564
    51  H    0.016468
    52  H    0.016647
    53  H    0.010886
    54  H    0.044183
    55  H    0.018032
    56  H    0.017712
    57  H    0.005812
    58  H    0.026845
    59  H    0.039098
    60  H    0.037387
    61  H    0.035587
    62  H    0.031098
    63  H    0.016555
    64  H    0.009552
    65  H    0.023258
    66  H    0.012549
    67  H    0.004820
    68  H    0.006451
    69  H    0.004789
    70  H    0.008802
    71  H    0.018118
    72  H    0.028909
    73  H    0.047770
    74  H    0.009141
    75  H    0.046120
    76  H    0.035230
    77  H    0.043200
    78  H    0.046256
    79  H    0.053949
    80  Mg   0.837949
    81  C   -0.016800
    82  C   -0.087862
    83  C   -0.045469
    84  C   -0.064593
    85  N   -0.254548
    86  C   -0.049656
    87  C   -0.015106
    88  C   -0.090550
    89  C    0.045814
    90  C    0.114394
    91  C    0.062567
    92  C   -0.077737
    93  H    0.034683
    94  N   -0.423477
    95  C    0.162900
    96  C   -0.174752
    97  C   -0.007868
    98  C    0.152059
    99  C    0.099444
   100  C    0.015506
   101  O   -0.253254
   102  C    0.061242
   103  N   -0.349995
   104  C    0.037552
   105  C   -0.019872
   106  C   -0.034842
   107  C    0.088927
   108  C    0.073629
   109  C    0.034739
   110  C   -0.007649
   111  N   -0.324195
   112  C    0.078538
   113  C   -0.162863
   114  C    0.002469
   115  C    0.096239
   116  C    0.131417
   117  C    0.042641
   118  O   -0.187631
   119  C    0.000792
   120  C    0.211224
   121  O   -0.251156
   122  O   -0.305541
   123  C    0.152086
   124  H   -0.019977
   125  H   -0.015639
   126  H   -0.040285
   127  H   -0.000571
   128  H   -0.004688
   129  H    0.022995
   130  H    0.014650
   131  H    0.015739
   132  H    0.013827
   133  H    0.037677
   134  H    0.020713
   135  H    0.019370
   136  H    0.008499
   137  H    0.025961
   138  H    0.039555
   139  H    0.038161
   140  H    0.036257
   141  H    0.033765
   142  H    0.014247
   143  H    0.012695
   144  H    0.024946
   145  H    0.011834
   146  H    0.005836
   147  H    0.006169
   148  H    0.003729
   149  H    0.010838
   150  H    0.017836
   151  H    0.030096
   152  H    0.045929
   153  H    0.008460
   154  H    0.047795
   155  H    0.035494
   156  H    0.043905
   157  H    0.049295
   158  H    0.053496
 Sum of Mulliken charges =  -0.00000

 Dipole moment (field-independent basis, Debye):
    X=             -3.9478    Y=             -2.3054    Z=             -7.6059  Tot=              8.8741
 Quadrupole moment (field-independent basis, Debye-Ang):
   XX=           -517.6352   YY=           -549.1209   ZZ=           -449.8729
   XY=            -13.8872   XZ=              2.5105   YZ=            -46.1026

 Normal termination of Gaussian 16 at Sun Sep 12 05:29:31 2021.
