 Gaussian 16, Revision A.03,
 Gaussian 16:  ES64L-G16RevA.03 25-Dec-2016

 -----------------------------------
 #p cam-b3lyp/Def2SVP td=(nstates=5)
 -----------------------------------

 --------------------------------
 TDDFT excited states in gaussian
 --------------------------------
 Symbolic Z-matrix:
 Charge =  0 Multiplicity = 1

                         Standard orientation:
 ---------------------------------------------------------------------
 Center     Atomic      Atomic             Coordinates (Angstroms)
 Number     Number       Type             X           Y           Z
 ---------------------------------------------------------------------
      1         12           0        4.247917   -1.294222    0.177223
      2          6           0        5.072808    1.453598   -1.963162
      3          6           0        5.815520    0.390712    2.696486
      4          6           0        3.932200   -3.893882    1.965718
      5          6           0        3.774699   -3.202203   -2.700508
      6          7           0        5.273763    0.666607    0.235830
      7          6           0        5.468434    1.649237   -0.638077
      8          6           0        6.064673    2.937663    0.003662
      9          6           0        6.758702    2.284308    1.281726
     10          6           0        5.876145    1.058417    1.437309
     11          6           0        8.192446    1.828626    1.030261
     12          6           0        4.956459    3.964264    0.415588
     13          6           0        5.460252    5.372406    0.745256
     14          1           0        4.634083    6.514295    0.383478
     15          7           0        4.348215   -1.520868    2.137178
     16          6           0        5.017997   -0.730982    3.010539
     17          6           0        4.785834   -1.315062    4.349057
     18          6           0        4.084389   -2.615561    4.162589
     19          6           0        4.117296   -2.742886    2.727987
     20          6           0        5.169701   -0.628932    5.624056
     21          6           0        3.489571   -3.594135    5.125250
     22          8           0        3.134614   -4.769364    4.768293
     23          6           0        3.413966   -3.166646    6.534001
     24          7           0        4.116457   -3.326355   -0.281894
     25          6           0        3.924875   -4.239361    0.676595
     26          6           0        3.581412   -5.578394    0.094389
     27          6           0        3.338354   -5.333377   -1.464662
     28          6           0        3.684137   -3.824975   -1.523214
     29          6           0        4.635119   -6.678995    0.279835
     30          6           0        1.981305   -5.802142   -2.046982
     31          6           0        0.860702   -4.960839   -1.478161
     32          7           0        4.216566   -0.922746   -1.961016
     33          6           0        4.023501   -1.868494   -2.978346
     34          6           0        4.194324   -1.163234   -4.261894
     35          6           0        4.493189    0.148719   -3.899532
     36          6           0        4.533966    0.250308   -2.479564
     37          6           0        4.126793   -1.755694   -5.553739
     38          6           0        4.811826    1.482839   -4.381664
     39          8           0        4.831099    2.023266   -5.488488
     40          6           0        5.319673    2.353201   -3.148623
     41          6           0        4.595818    3.671266   -3.193891
     42          8           0        3.364942    3.732230   -2.997439
     43          8           0        5.491798    4.669698   -3.223807
     44          6           0        4.839428    6.006227   -3.239819
     45          1           0        6.480446    0.716018    3.498976
     46          1           0        3.709880   -4.792787    2.544493
     47          1           0        3.558773   -3.713662   -3.640315
     48          1           0        6.811591    3.445609   -0.606689
     49          1           0        6.677362    2.923783    2.160463
     50          1           0        8.457536    1.910786   -0.023731
     51          1           0        8.227541    0.787472    1.351600
     52          1           0        8.888269    2.365086    1.675877
     53          1           0        4.547460    3.681720    1.385614
     54          1           0        4.184922    4.028028   -0.352521
     55          1           0        6.485310    5.519104    0.403723
     56          1           0        5.519524    5.468833    1.829410
     57          1           0        5.814115    0.229486    5.438603
     58          1           0        5.796516   -1.323382    6.183119
     59          1           0        4.299572   -0.356426    6.221508
     60          1           0        4.416919   -2.937918    6.894997
     61          1           0        2.879991   -3.957295    7.059924
     62          1           0        2.848123   -2.236299    6.590789
     63          1           0        2.670532   -5.976424    0.539692
     64          1           0        4.081390   -5.842028   -2.079354
     65          1           0        4.256369   -7.566857    0.786743
     66          1           0        5.478766   -6.250280    0.819976
     67          1           0        5.114017   -7.012993   -0.640229
     68          1           0        1.783135   -6.834986   -1.762541
     69          1           0        1.936254   -5.743167   -3.134522
     70          1           0        0.651925   -5.445675   -0.525177
     71          1           0       -0.010744   -4.995171   -2.132848
     72          1           0        1.195327   -3.946234   -1.261165
     73          1           0        3.546039   -1.072045   -6.172866
     74          1           0        3.665704   -2.742286   -5.513288
     75          1           0        5.184891   -1.799528   -5.811349
     76          1           0        6.395688    2.472650   -3.271282
     77          1           0        5.215991    6.536746   -4.114453
     78          1           0        5.020633    6.451232   -2.261279
     79          1           0        3.767168    6.016890   -3.438522
     80         12           0       -4.399354    1.133355    0.801780
     81          6           0       -5.085364   -1.457154   -1.585197
     82          6           0       -3.157222    2.980040   -1.783074
     83          6           0       -3.373080    3.246148    2.934934
     84          6           0       -4.619917   -1.294635    3.292148
     85          7           0       -4.201935    0.707971   -1.359774
     86          6           0       -4.553483   -0.285257   -2.162428
     87          6           0       -4.396547    0.024181   -3.675432
     88          6           0       -3.276611    1.170398   -3.571557
     89          6           0       -3.579853    1.681624   -2.164653
     90          6           0       -1.857133    0.628029   -3.587033
     91          6           0       -5.721136    0.571508   -4.314115
     92          6           0       -5.732408    0.602554   -5.844037
     93          1           0       -6.987330    0.323378   -6.536648
     94          7           0       -3.866830    3.031734    0.575577
     95          6           0       -3.406504    3.619311   -0.548761
     96          6           0       -3.138052    5.020403   -0.189548
     97          6           0       -3.321366    5.171387    1.279576
     98          6           0       -3.511412    3.787441    1.665118
     99          6           0       -2.827141    6.076765   -1.209771
    100          6           0       -3.312660    6.362689    2.188933
    101          8           0       -3.255855    6.236703    3.463191
    102          6           0       -3.278321    7.681895    1.540863
    103          7           0       -3.837488    0.964171    2.796278
    104          6           0       -3.481947    2.047690    3.508662
    105          6           0       -3.387297    1.725564    4.980964
    106          6           0       -3.991055    0.253036    5.138248
    107          6           0       -4.259901   -0.070307    3.652124
    108          6           0       -1.982424    1.766158    5.581840
    109          6           0       -5.151041    0.072957    6.155438
    110          6           0       -6.383086    0.800416    5.667333
    111          7           0       -4.960680   -0.950859    0.896681
    112          6           0       -4.957285   -1.784094    2.036765
    113          6           0       -5.305445   -3.145805    1.581844
    114          6           0       -5.465981   -3.013934    0.194285
    115          6           0       -5.214465   -1.669466   -0.191288
    116          6           0       -5.387278   -4.302950    2.406726
    117          6           0       -5.780629   -3.708618   -1.033361
    118          8           0       -6.163094   -4.843360   -1.315865
    119          6           0       -5.424514   -2.758781   -2.257029
    120          6           0       -6.588165   -2.773004   -3.210052
    121          8           0       -7.688351   -2.302449   -2.871285
    122          8           0       -6.154090   -3.138392   -4.430062
    123          6           0       -7.270238   -3.156623   -5.412782
    124          1           0       -2.539632    3.549759   -2.477976
    125          1           0       -3.128171    3.957853    3.726754
    126          1           0       -4.804967   -2.086691    4.020896
    127          1           0       -4.028901   -0.801876   -4.272293
    128          1           0       -3.443876    1.953786   -4.306199
    129          1           0       -1.837613   -0.450894   -3.546213
    130          1           0       -1.372066    1.048440   -2.715823
    131          1           0       -1.313815    1.018491   -4.452301
    132          1           0       -5.802848    1.645678   -4.103788
    133          1           0       -6.571107    0.022844   -3.957548
    134          1           0       -4.915891    0.010038   -6.274362
    135          1           0       -5.524098    1.623872   -6.171950
    136          1           0       -2.597215    5.636182   -2.187743
    137          1           0       -1.891288    6.554559   -0.900331
    138          1           0       -3.606851    6.838326   -1.278617
    139          1           0       -2.393455    7.752791    0.912810
    140          1           0       -3.367255    8.408000    2.351254
    141          1           0       -4.144415    7.767298    0.875130
    142          1           0       -3.983703    2.414316    5.566646
    143          1           0       -3.231714   -0.463945    5.483470
    144          1           0       -1.893432    2.462426    6.437039
    145          1           0       -1.284249    2.033337    4.799730
    146          1           0       -1.596047    0.805531    5.918162
    147          1           0       -4.885684    0.521789    7.115801
    148          1           0       -5.403018   -0.965311    6.343857
    149          1           0       -6.207509    1.829769    5.993943
    150          1           0       -7.278883    0.387815    6.127061
    151          1           0       -6.429144    0.805410    4.572105
    152          1           0       -6.278675   -4.837261    2.106013
    153          1           0       -5.418508   -4.037911    3.461498
    154          1           0       -4.452740   -4.801729    2.136310
    155          1           0       -4.513911   -3.144557   -2.716991
    156          1           0       -7.287547   -4.156158   -5.858089
    157          1           0       -7.082802   -2.305059   -6.093558
    158          1           0       -8.279724   -3.079817   -5.026151
 ---------------------------------------------------------------------

 SCF Done:  E(RCAM-B3LYP) =  -4069.81268209     A.U. after   19 cycles

 Excitation energies and oscillator strengths:

 Excited State   1:      Singlet-A      1.6671 eV  743.69 nm  f=0.2796  <S**2>=0.000
     309 -> 315        0.10508
     310 -> 316        0.13466
     311 -> 313        0.41753
     312 -> 314        0.54443
 This state for optimization and/or second-order correction.
 Total Energy, E(TD-HF/TD-DFT) =  -4069.75141574
 Copying the excited state density for this state as the 1-particle RhoCI density.

 Excited State   2:      Singlet-A      1.6806 eV  737.74 nm  f=0.3926  <S**2>=0.000
     309 -> 315        0.13924
     310 -> 316       -0.10612
     311 -> 313        0.54379
     312 -> 314       -0.41731

 Excited State   3:      Singlet-A      2.1852 eV  567.38 nm  f=0.0986  <S**2>=0.000
     310 -> 314        0.64170
     312 -> 316       -0.27063

 Excited State   4:      Singlet-A      2.1922 eV  565.56 nm  f=0.0982  <S**2>=0.000
     309 -> 313        0.64007
     311 -> 315       -0.27699

 Excited State   5:      Singlet-A      2.3355 eV  530.86 nm  f=0.0000  <S**2>=0.000
     312 -> 313        0.70707

 The electronic state is 1-A.
 Alpha  occ. eigenvalues --  -46.87926 -46.87428 -19.26579 -19.26184 -19.19336
 Alpha  occ. eigenvalues --  -19.18985 -19.18941 -19.18553 -19.18376 -19.17857
 Alpha  occ. eigenvalues --  -14.42580 -14.42233 -14.41567 -14.41143 -14.39532
 Alpha  occ. eigenvalues --  -14.39118 -14.38733 -14.38374 -10.39379 -10.38914
 Alpha  occ. eigenvalues --  -10.35573 -10.35233 -10.34597 -10.34035 -10.31995
 Alpha  occ. eigenvalues --  -10.31605 -10.31549 -10.31043 -10.31013 -10.30753
 Alpha  occ. eigenvalues --  -10.30718 -10.30646 -10.30304 -10.30193 -10.30112
 Alpha  occ. eigenvalues --  -10.30042 -10.29928 -10.29777 -10.29714 -10.29380
 Alpha  occ. eigenvalues --  -10.29195 -10.29185 -10.28889 -10.28683 -10.28512
 Alpha  occ. eigenvalues --  -10.28391 -10.28379 -10.28244 -10.28166 -10.27943
 Alpha  occ. eigenvalues --  -10.27854 -10.27766 -10.27724 -10.27718 -10.27592
 Alpha  occ. eigenvalues --  -10.27551 -10.27551 -10.27507 -10.27394 -10.27368
 Alpha  occ. eigenvalues --  -10.27352 -10.27282 -10.27250 -10.27247 -10.27157
 Alpha  occ. eigenvalues --  -10.26857 -10.26851 -10.26537 -10.26408 -10.26352
 Alpha  occ. eigenvalues --  -10.26275 -10.26182 -10.26137 -10.26037 -10.26027
 Alpha  occ. eigenvalues --  -10.25714 -10.25646 -10.25481 -10.25403 -10.25398
 Alpha  occ. eigenvalues --  -10.24995 -10.24910 -10.24663 -10.24646 -10.24629
 Alpha  occ. eigenvalues --  -10.24489  -3.16668  -3.16178  -1.91550  -1.91136
 Alpha  occ. eigenvalues --   -1.91060  -1.90979  -1.90649  -1.90486  -1.16929
 Alpha  occ. eigenvalues --   -1.16475  -1.08846  -1.08471  -1.07340  -1.06951
 Alpha  occ. eigenvalues --   -1.06810  -1.06771  -1.04716  -1.04232  -1.03883
 Alpha  occ. eigenvalues --   -1.03430  -1.03368  -1.02822  -1.02543  -1.01886
 Alpha  occ. eigenvalues --   -0.92135  -0.91759  -0.89611  -0.89320  -0.89316
 Alpha  occ. eigenvalues --   -0.88794  -0.88368  -0.88071  -0.88031  -0.87800
 Alpha  occ. eigenvalues --   -0.87569  -0.87421  -0.87404  -0.86895  -0.85118
 Alpha  occ. eigenvalues --   -0.84705  -0.84019  -0.83747  -0.83078  -0.82791
 Alpha  occ. eigenvalues --   -0.82754  -0.82387  -0.81785  -0.81391  -0.80757
 Alpha  occ. eigenvalues --   -0.80225  -0.78933  -0.78398  -0.77338  -0.77082
 Alpha  occ. eigenvalues --   -0.76908  -0.76650  -0.76082  -0.75543  -0.74997
 Alpha  occ. eigenvalues --   -0.74650  -0.72909  -0.72464  -0.71801  -0.71339
 Alpha  occ. eigenvalues --   -0.69956  -0.69618  -0.69011  -0.68549  -0.67786
 Alpha  occ. eigenvalues --   -0.67389  -0.67358  -0.66949  -0.65432  -0.65012
 Alpha  occ. eigenvalues --   -0.64997  -0.64759  -0.64547  -0.64419  -0.64363
 Alpha  occ. eigenvalues --   -0.64028  -0.62507  -0.62088  -0.60562  -0.60138
 Alpha  occ. eigenvalues --   -0.59942  -0.59488  -0.59124  -0.58771  -0.58650
 Alpha  occ. eigenvalues --   -0.58213  -0.57799  -0.57437  -0.57355  -0.57055
 Alpha  occ. eigenvalues --   -0.56467  -0.56197  -0.55969  -0.55678  -0.55667
 Alpha  occ. eigenvalues --   -0.55474  -0.55237  -0.55092  -0.54680  -0.54333
 Alpha  occ. eigenvalues --   -0.54034  -0.53581  -0.53434  -0.53374  -0.53093
 Alpha  occ. eigenvalues --   -0.53021  -0.52913  -0.52888  -0.52664  -0.52485
 Alpha  occ. eigenvalues --   -0.52412  -0.52266  -0.52092  -0.51767  -0.51675
 Alpha  occ. eigenvalues --   -0.51387  -0.51344  -0.50987  -0.50688  -0.50259
 Alpha  occ. eigenvalues --   -0.50111  -0.50037  -0.49774  -0.49661  -0.49648
 Alpha  occ. eigenvalues --   -0.49379  -0.49244  -0.49234  -0.48954  -0.48796
 Alpha  occ. eigenvalues --   -0.48771  -0.48603  -0.48563  -0.48307  -0.48228
 Alpha  occ. eigenvalues --   -0.48132  -0.47826  -0.47428  -0.47352  -0.46918
 Alpha  occ. eigenvalues --   -0.46900  -0.46700  -0.46500  -0.46479  -0.46305
 Alpha  occ. eigenvalues --   -0.46255  -0.46055  -0.46010  -0.45910  -0.45608
 Alpha  occ. eigenvalues --   -0.45291  -0.45066  -0.44757  -0.44624  -0.44312
 Alpha  occ. eigenvalues --   -0.44283  -0.44207  -0.44203  -0.44172  -0.43898
 Alpha  occ. eigenvalues --   -0.43838  -0.43714  -0.43692  -0.43504  -0.43355
 Alpha  occ. eigenvalues --   -0.43169  -0.43139  -0.42948  -0.42747  -0.42734
 Alpha  occ. eigenvalues --   -0.42690  -0.42381  -0.42113  -0.41849  -0.41771
 Alpha  occ. eigenvalues --   -0.41663  -0.41453  -0.41269  -0.41199  -0.40986
 Alpha  occ. eigenvalues --   -0.40944  -0.40728  -0.40655  -0.40521  -0.40453
 Alpha  occ. eigenvalues --   -0.40368  -0.40270  -0.39955  -0.39476  -0.39290
 Alpha  occ. eigenvalues --   -0.38551  -0.38184  -0.37891  -0.37418  -0.37411
 Alpha  occ. eigenvalues --   -0.37387  -0.37067  -0.36952  -0.36923  -0.36603
 Alpha  occ. eigenvalues --   -0.36344  -0.36024  -0.34425  -0.34059  -0.34024
 Alpha  occ. eigenvalues --   -0.33677  -0.33331  -0.32943  -0.31469  -0.31172
 Alpha  occ. eigenvalues --   -0.31112  -0.30741  -0.30238  -0.29764  -0.29592
 Alpha  occ. eigenvalues --   -0.29478  -0.29105  -0.28989  -0.24216  -0.23799
 Alpha  occ. eigenvalues --   -0.21260  -0.20879
 Alpha virt. eigenvalues --   -0.08913  -0.08560  -0.01873  -0.01464  -0.00198
 Alpha virt. eigenvalues --    0.00201   0.02032   0.02398   0.02844   0.03499
 Alpha virt. eigenvalues --    0.04586   0.04819   0.05013   0.05349   0.06024

 Mulliken charges:
               1
     1  Mg   0.839044
     2  C   -0.003631
     3  C   -0.093785
     4  C   -0.045554
     5  C   -0.064001
     6  N   -0.256938
     7  C   -0.052361
     8  C   -0.014201
     9  C   -0.087134
    10  C    0.046630
    11  C    0.104709
    12  C    0.053370
    13  C   -0.071639
    14  H    0.034923
    15  N   -0.433257
    16  C    0.168837
    17  C   -0.176892
    18  C   -0.003801
    19  C    0.149094
    20  C    0.110089
    21  C    0.012233
    22  O   -0.249008
    23  C    0.062521
    24  N   -0.341277
    25  C    0.041641
    26  C   -0.028385
    27  C   -0.024092
    28  C    0.075055
    29  C    0.076035
    30  C    0.034963
    31  C   -0.004693
    32  N   -0.310092
    33  C    0.079839
    34  C   -0.170930
    35  C    0.007627
    36  C    0.082224
    37  C    0.127678
    38  C    0.044607
    39  O   -0.189784
    40  C   -0.004879
    41  C    0.213117
    42  O   -0.259927
    43  O   -0.303949
    44  C    0.158371
    45  H   -0.017208
    46  H   -0.016267
    47  H   -0.041352
    48  H    0.000748
    49  H   -0.003504
    50  H    0.025435
    51  H    0.016645
    52  H    0.017050
    53  H    0.012452
    54  H    0.042680
    55  H    0.017953
    56  H    0.019136
    57  H    0.006361
    58  H    0.027192
    59  H    0.039816
    60  H    0.037791
    61  H    0.035753
    62  H    0.030870
    63  H    0.017343
    64  H    0.009611
    65  H    0.023875
    66  H    0.012325
    67  H    0.005049
    68  H    0.007792
    69  H    0.004470
    70  H    0.009943
    71  H    0.019506
    72  H    0.027487
    73  H    0.045695
    74  H    0.009434
    75  H    0.046446
    76  H    0.035600
    77  H    0.043208
    78  H    0.047210
    79  H    0.051021
    80  Mg   0.837461
    81  C   -0.016807
    82  C   -0.086174
    83  C   -0.046218
    84  C   -0.064882
    85  N   -0.254793
    86  C   -0.049558
    87  C   -0.015200
    88  C   -0.090117
    89  C    0.044410
    90  C    0.113211
    91  C    0.062437
    92  C   -0.077550
    93  H    0.033435
    94  N   -0.423754
    95  C    0.162184
    96  C   -0.172282
    97  C   -0.008824
    98  C    0.152915
    99  C    0.099067
   100  C    0.015184
   101  O   -0.254570
   102  C    0.061390
   103  N   -0.350094
   104  C    0.037515
   105  C   -0.019567
   106  C   -0.034817
   107  C    0.088614
   108  C    0.074420
   109  C    0.034962
   110  C   -0.007528
   111  N   -0.323967
   112  C    0.077938
   113  C   -0.163392
   114  C    0.001945
   115  C    0.095974
   116  C    0.131643
   117  C    0.041745
   118  O   -0.189180
   119  C    0.001245
   120  C    0.211310
   121  O   -0.251118
   122  O   -0.305777
   123  C    0.152164
   124  H   -0.013099
   125  H   -0.016974
   126  H   -0.040917
   127  H   -0.001320
   128  H   -0.003632
   129  H    0.019454
   130  H    0.019166
   131  H    0.022709
   132  H    0.013771
   133  H    0.036773
   134  H    0.021128
   135  H    0.020275
   136  H    0.011672
   137  H    0.027046
   138  H    0.038600
   139  H    0.038240
   140  H    0.035217
   141  H    0.034027
   142  H    0.013888
   143  H    0.011978
   144  H    0.023587
   145  H    0.011292
   146  H    0.003645
   147  H    0.005059
   148  H    0.003705
   149  H    0.010445
   150  H    0.017576
   151  H    0.030732
   152  H    0.045254
   153  H    0.008198
   154  H    0.047071
   155  H    0.034057
   156  H    0.043140
   157  H    0.049953
   158  H    0.053325
 Sum of Mulliken charges =  -0.00000

 Dipole moment (field-independent basis, Debye):
    X=              5.4741    Y=              3.2929    Z=              1.7184  Tot=              6.6153
 Quadrupole moment (field-independent basis, Debye-Ang):
   XX=           -520.4633   YY=           -509.3718   ZZ=           -489.9890
   XY=             -9.8278   XZ=             28.7861   YZ=              3.2098

 Normal termination of Gaussian 16 at Fri Sep  3 18:58:58 2021.
