 Gaussian 16, Revision A.03,
 Gaussian 16:  ES64L-G16RevA.03 25-Dec-2016

 -----------------------------------
 #p cam-b3lyp/Def2SVP td=(nstates=5)
 -----------------------------------

 --------------------------------
 TDDFT excited states in gaussian
 --------------------------------
 Symbolic Z-matrix:
 Charge =  0 Multiplicity = 1

                         Standard orientation:
 ---------------------------------------------------------------------
 Center     Atomic      Atomic             Coordinates (Angstroms)
 Number     Number       Type             X           Y           Z
 ---------------------------------------------------------------------
      1         12           0       15.767116   -0.639301    0.374132
      2          6           0       16.066417    2.308206   -1.634557
      3          6           0       16.722443    1.261754    3.041792
      4          6           0       15.950510   -3.310467    2.073504
      5          6           0       15.949530   -2.488525   -2.574216
      6          7           0       16.297944    1.502268    0.554544
      7          6           0       16.314998    2.537332   -0.279436
      8          6           0       16.547726    3.902346    0.434670
      9          6           0       17.288040    3.377620    1.745622
     10          6           0       16.709321    1.975011    1.806428
     11          6           0       18.802255    3.277948    1.591611
     12          6           0       15.204448    4.626072    0.786174
     13          6           0       15.340441    6.098411    1.185018
     14          1           0       14.295699    7.030605    0.788942
     15          7           0       15.785650   -0.914529    2.330342
     16          6           0       16.191075   -0.026166    3.269346
     17          6           0       16.012888   -0.701180    4.572912
     18          6           0       15.650328   -2.120553    4.304536
     19          6           0       15.808661   -2.179350    2.873854
     20          6           0       16.138358    0.003880    5.888548
     21          6           0       15.238304   -3.248193    5.197171
     22          8           0       15.193837   -4.458512    4.787630
     23          6           0       14.969880   -2.906580    6.605820
     24          7           0       16.147306   -2.626364   -0.140332
     25          6           0       16.111220   -3.596427    0.779809
     26          6           0       16.131490   -4.954267    0.142786
     27          6           0       15.943222   -4.710366   -1.424000
     28          6           0       15.928588   -3.161802   -1.421685
     29          6           0       17.399068   -5.786429    0.381037
     30          6           0       14.776388   -5.457966   -2.116829
     31          6           0       13.454010   -4.923460   -1.614117
     32          7           0       15.793462   -0.200186   -1.751316
     33          6           0       15.896592   -1.123506   -2.801801
     34          6           0       15.983165   -0.347174   -4.052353
     35          6           0       15.940795    0.982767   -3.638461
     36          6           0       15.860941    1.034258   -2.217453
     37          6           0       16.143620   -0.887033   -5.358967
     38          6           0       15.969234    2.372571   -4.064481
     39          8           0       15.935619    2.946446   -5.153990
     40          6           0       16.174534    3.287152   -2.777150
     41          6           0       15.166376    4.401689   -2.845968
     42          8           0       13.945203    4.167101   -2.740747
     43          8           0       15.803020    5.581350   -2.785741
     44          6           0       14.857884    6.729272   -2.819620
     45          1           0       17.236928    1.700334    3.899051
     46          1           0       15.906862   -4.258804    2.613123
     47          1           0       15.923381   -2.998205   -3.539097
     48          1           0       17.193958    4.593892   -0.106231
     49          1           0       16.999988    3.945077    2.630348
     50          1           0       19.110985    3.461477    0.562570
     51          1           0       19.058937    2.261461    1.890546
     52          1           0       19.307719    3.935173    2.299663
     53          1           0       14.808826    4.217723    1.716118
     54          1           0       14.492980    4.539451   -0.035797
     55          1           0       16.323063    6.492780    0.924566
     56          1           0       15.302333    6.162593    2.272505
     57          1           0       16.574362    0.995235    5.771671
     58          1           0       16.871520   -0.547685    6.476730
     59          1           0       15.190403    0.042675    6.425398
     60          1           0       15.864540   -2.465685    7.045985
     61          1           0       14.602161   -3.820013    7.071945
     62          1           0       14.199052   -2.136195    6.641607
     63          1           0       15.311575   -5.570501    0.509423
     64          1           0       16.824493   -5.007491   -1.992993
     65          1           0       17.205967   -6.757509    0.837568
     66          1           0       18.080263   -5.195352    0.992504
     67          1           0       18.003765   -5.962998   -0.508109
     68          1           0       14.807393   -6.519101   -1.871929
     69          1           0       14.792055   -5.367688   -3.203041
     70          1           0       13.301163   -5.481197   -0.690862
     71          1           0       12.661037   -5.133154   -2.332750
     72          1           0       13.525866   -3.868371   -1.349336
     73          1           0       15.461702   -0.332864   -6.003834
     74          1           0       15.925226   -1.954563   -5.375899
     75          1           0       17.197337   -0.673500   -5.537682
     76          1           0       17.198235    3.658139   -2.816218
     77          1           0       15.157451    7.367259   -3.651165
     78          1           0       14.863346    7.164756   -1.820256
     79          1           0       13.828926    6.498435   -3.097645
     80         12           0      -15.954171    0.489804    0.514679
     81          6           0      -15.513372   -1.587368   -2.378432
     82          6           0      -16.224622   -2.375185    2.345867
     83          6           0      -16.791558    2.275333    3.000259
     84          6           0      -16.783287    3.091293   -1.651089
     85          7           0      -15.862918   -1.645186   -0.056042
     86          6           0      -15.629547   -2.314075   -1.175179
     87          6           0      -15.434266   -3.841925   -0.982514
     88          6           0      -16.238085   -4.015027    0.396904
     89          6           0      -16.073354   -2.602786    0.954673
     90          6           0      -17.721295   -4.280743    0.199874
     91          6           0      -13.924064   -4.235756   -0.820604
     92          6           0      -13.633935   -5.733678   -0.938090
     93          1           0      -12.383747   -6.153405   -1.565228
     94          7           0      -15.954693    0.071191    2.454604
     95          6           0      -16.049167   -1.148810    3.023768
     96          6           0      -16.024306   -0.918055    4.476457
     97          6           0      -16.073462    0.549375    4.719229
     98          6           0      -16.301109    1.031979    3.371874
     99          6           0      -15.879646   -2.029893    5.474616
    100          6           0      -15.950396    1.380013    5.960634
    101          8           0      -16.261843    2.623264    5.972556
    102          6           0      -15.543673    0.673824    7.184303
    103          7           0      -16.885436    2.342075    0.670226
    104          6           0      -17.084375    2.917332    1.869146
    105          6           0      -17.515275    4.356805    1.718731
    106          6           0      -17.329927    4.700943    0.167990
    107          6           0      -16.889278    3.313582   -0.348198
    108          6           0      -18.950724    4.669105    2.141042
    109          6           0      -16.449546    5.932621   -0.179238
    110          6           0      -15.009984    5.659377    0.192767
    111          7           0      -15.948553    0.794538   -1.624287
    112          6           0      -16.359154    1.951476   -2.322129
    113          6           0      -16.281371    1.640605   -3.764258
    114          6           0      -15.849513    0.306329   -3.805287
    115          6           0      -15.690146   -0.186375   -2.481902
    116          6           0      -16.634404    2.521312   -4.825325
    117          6           0      -15.502414   -0.800700   -4.667110
    118          8           0      -15.366778   -0.947111   -5.881154
    119          6           0      -15.390878   -2.115413   -3.780855
    120          6           0      -14.116255   -2.821029   -4.154985
    121          8           0      -13.012382   -2.297465   -3.922740
    122          8           0      -14.403006   -4.082909   -4.523519
    123          6           0      -13.169371   -4.826695   -4.893318
    124          1           0      -16.549620   -3.204376    2.974926
    125          1           0      -16.990595    2.968235    3.821079
    126          1           0      -16.931134    3.880086   -2.391781
    127          1           0      -15.881662   -4.457843   -1.753378
    128          1           0      -15.755608   -4.740382    1.046857
    129          1           0      -18.012402   -4.191662   -0.836213
    130          1           0      -18.234900   -3.542676    0.801964
    131          1           0      -17.989324   -5.253516    0.622017
    132          1           0      -13.619466   -4.066445    0.220208
    133          1           0      -13.312357   -3.693636   -1.515274
    134          1           0      -14.481222   -6.285562   -1.362918
    135          1           0      -13.523092   -6.145610    0.067912
    136          1           0      -16.033340   -3.011138    5.008850
    137          1           0      -16.708903   -1.932928    6.183699
    138          1           0      -14.937205   -1.982429    6.024363
    139          1           0      -16.257872   -0.117604    7.398837
    140          1           0      -15.424359    1.449389    7.943338
    141          1           0      -14.579124    0.186638    7.002890
    142          1           0      -16.881670    5.013173    2.302531
    143          1           0      -18.291087    4.925994   -0.317143
    144          1           0      -19.016251    5.455289    2.916734
    145          1           0      -19.411400    3.753585    2.487662
    146          1           0      -19.614810    4.970199    1.332623
    147          1           0      -16.762638    6.799514    0.407813
    148          1           0      -16.498175    6.217275   -1.224996
    149          1           0      -14.982234    5.894565    1.260949
    150          1           0      -14.339494    6.304828   -0.371033
    151          1           0      -14.770328    4.595334    0.083173
    152          1           0      -15.862949    2.426989   -5.577954
    153          1           0      -16.726836    3.547592   -4.476080
    154          1           0      -17.599518    2.098420   -5.116866
    155          1           0      -16.271718   -2.724836   -3.986508
    156          1           0      -13.319519   -5.210510   -5.907139
    157          1           0      -13.017687   -5.571884   -4.089922
    158          1           0      -12.257227   -4.254657   -5.016660
 ---------------------------------------------------------------------

 SCF Done:  E(RCAM-B3LYP) =  -4069.81176299     A.U. after   19 cycles

 Excitation energies and oscillator strengths:

 Excited State   1:      Singlet-A      1.6753 eV  740.06 nm  f=0.2126  <S**2>=0.000
     310 -> 316       -0.16854
     311 -> 313        0.66636
     312 -> 314        0.16321
     310 <- 316       -0.10161
 This state for optimization and/or second-order correction.
 Total Energy, E(TD-HF/TD-DFT) =  -4069.75019590
 Copying the excited state density for this state as the 1-particle RhoCI density.

 Excited State   2:      Singlet-A      1.6801 eV  737.95 nm  f=0.5648  <S**2>=0.000
     309 -> 315        0.17055
     311 -> 313       -0.16316
     312 -> 314        0.66599
     309 <- 315        0.10211

 Excited State   3:      Singlet-A      2.1861 eV  567.15 nm  f=0.0959  <S**2>=0.000
     310 -> 313        0.64213
     311 -> 316        0.27295

 Excited State   4:      Singlet-A      2.1925 eV  565.50 nm  f=0.1044  <S**2>=0.000
     309 -> 314        0.64036
     312 -> 315       -0.27812

 Excited State   5:      Singlet-A      3.0602 eV  405.15 nm  f=0.0000  <S**2>=0.000
     312 -> 313        0.70711

 The electronic state is 1-A.
 Alpha  occ. eigenvalues --  -46.87760 -46.87660 -19.26341 -19.26241 -19.19153
 Alpha  occ. eigenvalues --  -19.18977 -19.18782 -19.18716 -19.18131 -19.18049
 Alpha  occ. eigenvalues --  -14.42497 -14.42413 -14.41413 -14.41360 -14.39366
 Alpha  occ. eigenvalues --  -14.39352 -14.38599 -14.38550 -10.39084 -10.39037
 Alpha  occ. eigenvalues --  -10.35415 -10.35393 -10.34351 -10.34226 -10.31746
 Alpha  occ. eigenvalues --  -10.31634 -10.31368 -10.31308 -10.31023 -10.30872
 Alpha  occ. eigenvalues --  -10.30533 -10.30471 -10.30398 -10.30360 -10.30172
 Alpha  occ. eigenvalues --  -10.30142 -10.29895 -10.29885 -10.29594 -10.29437
 Alpha  occ. eigenvalues --  -10.29401 -10.29218 -10.28717 -10.28710 -10.28647
 Alpha  occ. eigenvalues --  -10.28496 -10.28404 -10.28328 -10.28139 -10.28079
 Alpha  occ. eigenvalues --  -10.28001 -10.27756 -10.27691 -10.27669 -10.27548
 Alpha  occ. eigenvalues --  -10.27520 -10.27483 -10.27468 -10.27467 -10.27465
 Alpha  occ. eigenvalues --  -10.27447 -10.27416 -10.27378 -10.27366 -10.27119
 Alpha  occ. eigenvalues --  -10.27047 -10.26688 -10.26664 -10.26418 -10.26379
 Alpha  occ. eigenvalues --  -10.26199 -10.26149 -10.26139 -10.26026 -10.25983
 Alpha  occ. eigenvalues --  -10.25935 -10.25850 -10.25806 -10.25405 -10.25402
 Alpha  occ. eigenvalues --  -10.24872 -10.24796 -10.24752 -10.24730 -10.24690
 Alpha  occ. eigenvalues --  -10.24650  -3.16503  -3.16410  -1.91384  -1.91292
 Alpha  occ. eigenvalues --   -1.90971  -1.90881  -1.90813  -1.90718  -1.16635
 Alpha  occ. eigenvalues --   -1.16590  -1.08656  -1.08588  -1.07183  -1.06969
 Alpha  occ. eigenvalues --   -1.06938  -1.06599  -1.04544  -1.04495  -1.03724
 Alpha  occ. eigenvalues --   -1.03663  -1.03197  -1.03039  -1.02375  -1.02112
 Alpha  occ. eigenvalues --   -0.91986  -0.91935  -0.89495  -0.89484  -0.89150
 Alpha  occ. eigenvalues --   -0.89150  -0.88252  -0.88221  -0.87833  -0.87793
 Alpha  occ. eigenvalues --   -0.87684  -0.87636  -0.87239  -0.87121  -0.84998
 Alpha  occ. eigenvalues --   -0.84944  -0.83901  -0.83877  -0.82933  -0.82933
 Alpha  occ. eigenvalues --   -0.82651  -0.82611  -0.81593  -0.81546  -0.80559
 Alpha  occ. eigenvalues --   -0.80441  -0.78761  -0.78636  -0.77182  -0.77144
 Alpha  occ. eigenvalues --   -0.76896  -0.76896  -0.75885  -0.75837  -0.74863
 Alpha  occ. eigenvalues --   -0.74804  -0.72738  -0.72699  -0.71636  -0.71581
 Alpha  occ. eigenvalues --   -0.69872  -0.69758  -0.68836  -0.68826  -0.67605
 Alpha  occ. eigenvalues --   -0.67601  -0.67198  -0.67182  -0.65270  -0.65248
 Alpha  occ. eigenvalues --   -0.64816  -0.64769  -0.64652  -0.64583  -0.64234
 Alpha  occ. eigenvalues --   -0.64204  -0.62274  -0.62258  -0.60407  -0.60340
 Alpha  occ. eigenvalues --   -0.59795  -0.59767  -0.58993  -0.58951  -0.58467
 Alpha  occ. eigenvalues --   -0.58425  -0.57551  -0.57545  -0.57272  -0.57237
 Alpha  occ. eigenvalues --   -0.56273  -0.56204  -0.55938  -0.55882  -0.55484
 Alpha  occ. eigenvalues --   -0.55451  -0.55303  -0.55247  -0.54486  -0.54485
 Alpha  occ. eigenvalues --   -0.53911  -0.53857  -0.53263  -0.53228  -0.53185
 Alpha  occ. eigenvalues --   -0.53140  -0.52900  -0.52876  -0.52720  -0.52668
 Alpha  occ. eigenvalues --   -0.52402  -0.52401  -0.51884  -0.51877  -0.51657
 Alpha  occ. eigenvalues --   -0.51579  -0.51200  -0.51158  -0.50538  -0.50476
 Alpha  occ. eigenvalues --   -0.49997  -0.49980  -0.49883  -0.49869  -0.49487
 Alpha  occ. eigenvalues --   -0.49478  -0.49201  -0.49177  -0.49103  -0.49058
 Alpha  occ. eigenvalues --   -0.48556  -0.48555  -0.48427  -0.48409  -0.48377
 Alpha  occ. eigenvalues --   -0.48339  -0.47658  -0.47594  -0.47261  -0.47119
 Alpha  occ. eigenvalues --   -0.46760  -0.46709  -0.46552  -0.46517  -0.46322
 Alpha  occ. eigenvalues --   -0.46270  -0.46125  -0.46085  -0.45820  -0.45783
 Alpha  occ. eigenvalues --   -0.45210  -0.45167  -0.44540  -0.44513  -0.44475
 Alpha  occ. eigenvalues --   -0.44471  -0.44127  -0.44108  -0.44078  -0.44051
 Alpha  occ. eigenvalues --   -0.43982  -0.43938  -0.43550  -0.43455  -0.43385
 Alpha  occ. eigenvalues --   -0.43349  -0.42990  -0.42927  -0.42899  -0.42660
 Alpha  occ. eigenvalues --   -0.42617  -0.42554  -0.41972  -0.41963  -0.41668
 Alpha  occ. eigenvalues --   -0.41667  -0.41496  -0.41457  -0.41105  -0.40990
 Alpha  occ. eigenvalues --   -0.40832  -0.40788  -0.40722  -0.40698  -0.40536
 Alpha  occ. eigenvalues --   -0.40494  -0.40224  -0.40195  -0.39426  -0.39406
 Alpha  occ. eigenvalues --   -0.38433  -0.38351  -0.37709  -0.37651  -0.37285
 Alpha  occ. eigenvalues --   -0.37266  -0.37225  -0.37198  -0.36766  -0.36673
 Alpha  occ. eigenvalues --   -0.36216  -0.36154  -0.34253  -0.34249  -0.33856
 Alpha  occ. eigenvalues --   -0.33728  -0.33175  -0.33149  -0.31311  -0.31275
 Alpha  occ. eigenvalues --   -0.30999  -0.30973  -0.29990  -0.29953  -0.29413
 Alpha  occ. eigenvalues --   -0.29328  -0.29285  -0.29211  -0.24044  -0.24036
 Alpha  occ. eigenvalues --   -0.21117  -0.21091
 Alpha virt. eigenvalues --   -0.08792  -0.08738  -0.01714  -0.01684  -0.00029
 Alpha virt. eigenvalues --   -0.00022   0.02208   0.02238   0.03161   0.03230
 Alpha virt. eigenvalues --    0.04731   0.04755   0.05140   0.05171   0.06188

 Mulliken charges:
               1
     1  Mg   0.838740
     2  C   -0.002938
     3  C   -0.094094
     4  C   -0.045888
     5  C   -0.063975
     6  N   -0.256772
     7  C   -0.052460
     8  C   -0.014000
     9  C   -0.086986
    10  C    0.046304
    11  C    0.104821
    12  C    0.053460
    13  C   -0.071832
    14  H    0.036232
    15  N   -0.433112
    16  C    0.168413
    17  C   -0.177169
    18  C   -0.004030
    19  C    0.148738
    20  C    0.110192
    21  C    0.012286
    22  O   -0.249680
    23  C    0.062474
    24  N   -0.341122
    25  C    0.041240
    26  C   -0.028166
    27  C   -0.023983
    28  C    0.074861
    29  C    0.076195
    30  C    0.035141
    31  C   -0.004505
    32  N   -0.310477
    33  C    0.080430
    34  C   -0.169683
    35  C    0.008372
    36  C    0.082995
    37  C    0.127300
    38  C    0.046144
    39  O   -0.188389
    40  C   -0.005356
    41  C    0.212895
    42  O   -0.257030
    43  O   -0.304829
    44  C    0.157667
    45  H   -0.017631
    46  H   -0.016888
    47  H   -0.041495
    48  H    0.000929
    49  H   -0.004024
    50  H    0.025461
    51  H    0.016415
    52  H    0.016632
    53  H    0.011223
    54  H    0.044176
    55  H    0.017835
    56  H    0.017943
    57  H    0.005874
    58  H    0.026768
    59  H    0.039558
    60  H    0.037319
    61  H    0.035590
    62  H    0.031537
    63  H    0.016536
    64  H    0.009428
    65  H    0.023157
    66  H    0.012525
    67  H    0.004721
    68  H    0.006310
    69  H    0.004742
    70  H    0.008748
    71  H    0.018192
    72  H    0.029029
    73  H    0.047633
    74  H    0.009113
    75  H    0.045978
    76  H    0.035127
    77  H    0.042950
    78  H    0.046398
    79  H    0.053769
    80  Mg   0.837885
    81  C   -0.016794
    82  C   -0.087774
    83  C   -0.045504
    84  C   -0.064901
    85  N   -0.254566
    86  C   -0.049847
    87  C   -0.015106
    88  C   -0.090511
    89  C    0.045761
    90  C    0.114380
    91  C    0.062517
    92  C   -0.077936
    93  H    0.035025
    94  N   -0.423469
    95  C    0.162901
    96  C   -0.174614
    97  C   -0.007824
    98  C    0.152116
    99  C    0.099359
   100  C    0.015574
   101  O   -0.253201
   102  C    0.061193
   103  N   -0.350061
   104  C    0.037516
   105  C   -0.019831
   106  C   -0.034813
   107  C    0.088931
   108  C    0.073662
   109  C    0.034724
   110  C   -0.007677
   111  N   -0.324121
   112  C    0.078484
   113  C   -0.163117
   114  C    0.002254
   115  C    0.096203
   116  C    0.131482
   117  C    0.042418
   118  O   -0.187811
   119  C    0.000926
   120  C    0.211270
   121  O   -0.250939
   122  O   -0.305667
   123  C    0.151995
   124  H   -0.019665
   125  H   -0.015596
   126  H   -0.040446
   127  H   -0.000645
   128  H   -0.004300
   129  H    0.022451
   130  H    0.014395
   131  H    0.016281
   132  H    0.013933
   133  H    0.037733
   134  H    0.020764
   135  H    0.019592
   136  H    0.008772
   137  H    0.026118
   138  H    0.039814
   139  H    0.038239
   140  H    0.036372
   141  H    0.033923
   142  H    0.014404
   143  H    0.012397
   144  H    0.025124
   145  H    0.011619
   146  H    0.005653
   147  H    0.006246
   148  H    0.003670
   149  H    0.010919
   150  H    0.017987
   151  H    0.030129
   152  H    0.046077
   153  H    0.008523
   154  H    0.046918
   155  H    0.035006
   156  H    0.043940
   157  H    0.049494
   158  H    0.053668
 Sum of Mulliken charges =  -0.00000

 Dipole moment (field-independent basis, Debye):
    X=              0.5692    Y=             -1.8327    Z=              7.2697  Tot=              7.5187
 Quadrupole moment (field-independent basis, Debye-Ang):
   XX=           -403.6784   YY=           -462.6328   ZZ=           -536.7505
   XY=             52.4388   XZ=             20.5642   YZ=             14.8741

 Normal termination of Gaussian 16 at Sun Sep 12 13:20:58 2021.
