 Gaussian 16, Revision A.03,
 Gaussian 16:  ES64L-G16RevA.03 25-Dec-2016

 -----------------------------------
 #p cam-b3lyp/Def2SVP td=(nstates=5)
 -----------------------------------

 --------------------------------
 TDDFT excited states in gaussian
 --------------------------------
 Symbolic Z-matrix:
 Charge =  0 Multiplicity = 1

                         Standard orientation:
 ---------------------------------------------------------------------
 Center     Atomic      Atomic             Coordinates (Angstroms)
 Number     Number       Type             X           Y           Z
 ---------------------------------------------------------------------
      1         12           0       -5.105726   -0.632516   -0.315021
      2          6           0       -5.547082    2.892956    0.119108
      3          6           0       -6.034575   -0.197489   -3.569411
      4          6           0       -5.163590   -3.789733   -0.607007
      5          6           0       -5.323443   -0.937152    3.149868
      6          7           0       -5.690902    1.168220   -1.462002
      7          6           0       -5.761726    2.468349   -1.194011
      8          6           0       -6.011427    3.346659   -2.456388
      9          6           0       -6.697534    2.253205   -3.392131
     10          6           0       -6.078108    1.001017   -2.796934
     11          6           0       -8.212252    2.176592   -3.230080
     12          6           0       -4.679174    3.881215   -3.081753
     13          6           0       -4.844578    5.002583   -4.111573
     14          1           0       -3.838623    6.052252   -4.171564
     15          7           0       -5.058537   -1.770991   -1.928866
     16          6           0       -5.460740   -1.425690   -3.175576
     17          6           0       -5.225110   -2.613972   -4.023601
     18          6           0       -4.830949   -3.739098   -3.130952
     19          6           0       -5.029902   -3.144271   -1.834042
     20          6           0       -5.331282   -2.592769   -5.517598
     21          6           0       -4.361147   -5.133077   -3.403420
     22          8           0       -4.294868   -6.020188   -2.485153
     23          6           0       -4.060790   -5.462220   -4.808587
     24          7           0       -5.445048   -2.178499    1.046020
     25          6           0       -5.354480   -3.459456    0.671947
     26          6           0       -5.355482   -4.376328    1.859079
     27          6           0       -5.220658   -3.436953    3.143272
     28          6           0       -5.249453   -2.060991    2.433224
     29          6           0       -6.591574   -5.273611    2.010648
     30          6           0       -4.054337   -3.740196    4.117006
     31          6           0       -2.733172   -3.443670    3.443438
     32          7           0       -5.207376    0.727170    1.373756
     33          6           0       -5.315626    0.382103    2.728704
     34          6           0       -5.460991    1.639767    3.484493
     35          6           0       -5.443736    2.634564    2.508826
     36          6           0       -5.323278    2.034637    1.222797
     37          6           0       -5.644878    1.750271    4.891052
     38          6           0       -5.523806    4.063311    2.251674
     39          8           0       -5.538625    5.072124    2.958477
     40          6           0       -5.716463    4.280596    0.685949
     41          6           0       -4.742483    5.341520    0.251076
     42          8           0       -3.512622    5.132010    0.281310
     43          8           0       -5.409938    6.338049   -0.350568
     44          6           0       -4.498829    7.410269   -0.832627
     45          1           0       -6.535539   -0.218862   -4.539215
     46          1           0       -5.077355   -4.877357   -0.652554
     47          1           0       -5.311601   -0.948654    4.241281
     48          1           0       -6.692570    4.183403   -2.300416
     49          1           0       -6.399435    2.364763   -4.434443
     50          1           0       -8.556377    2.797646   -2.403164
     51          1           0       -8.431315    1.126709   -3.034506
     52          1           0       -8.714765    2.418033   -4.167077
     53          1           0       -4.244853    3.108919   -3.716564
     54          1           0       -3.990228    4.206908   -2.301622
     55          1           0       -5.845175    5.434178   -4.073620
     56          1           0       -4.776073    4.564600   -5.107403
     57          1           0       -5.798225   -1.675030   -5.872933
     58          1           0       -6.030912   -3.379817   -5.798283
     59          1           0       -4.369295   -2.766870   -5.999887
     60          1           0       -4.954039   -5.305754   -5.413710
     61          1           0       -3.653912   -6.472781   -4.800362
     62          1           0       -3.311178   -4.764100   -5.182296
     63          1           0       -4.508080   -5.059877    1.825970
     64          1           0       -6.109714   -3.475227    3.773183
     65          1           0       -6.357834   -6.337758    2.051405
     66          1           0       -7.270677   -5.053638    1.187409
     67          1           0       -7.217161   -5.047905    2.873848
     68          1           0       -4.048260   -4.796402    4.384099
     69          1           0       -4.104719   -3.164637    5.041368
     70          1           0       -2.537427   -4.355050    2.879610
     71          1           0       -1.956271   -3.271412    4.189067
     72          1           0       -2.826749   -2.629500    2.724511
     73          1           0       -4.998204    2.563539    5.220257
     74          1           0       -5.397191    0.817531    5.397263
     75          1           0       -6.709010    1.981072    4.938063
     76          1           0       -6.750886    4.588751    0.537184
     77          1           0       -4.840708    8.345457   -0.389033
     78          1           0       -4.486896    7.340875   -1.920491
     79          1           0       -3.472487    7.371661   -0.465927
     80         12           0        5.443592    0.085084   -0.386906
     81          6           0        4.499546   -0.373717    3.044905
     82          6           0        5.369942   -3.310160   -0.705473
     83          6           0        6.706785    0.428264   -3.277236
     84          6           0        6.538098    3.276723    0.485564
     85          7           0        4.979569   -1.526626    1.055071
     86          6           0        4.573790   -1.578267    2.314847
     87          6           0        4.151108   -2.991927    2.796995
     88          6           0        5.001712   -3.866471    1.752711
     89          6           0        5.098084   -2.857398    0.610276
     90          6           0        6.408823   -4.178295    2.234520
     91          6           0        2.610632   -3.242712    2.635562
     92          6           0        2.079909   -4.477381    3.367452
     93          1           0        0.742342   -4.419423    3.950588
     94          7           0        5.498646   -1.171648   -1.921883
     95          6           0        5.433770   -2.518763   -1.873356
     96          6           0        5.536409   -2.976982   -3.267508
     97          6           0        5.832664   -1.799285   -4.127738
     98          6           0        6.049526   -0.782981   -3.117703
     99          6           0        5.279779   -4.397913   -3.678004
    100          6           0        5.920475   -1.620647   -5.613189
    101          8           0        6.425261   -0.564716   -6.135726
    102          6           0        5.484002   -2.757351   -6.437140
    103          7           0        6.664640    1.542436   -1.228045
    104          6           0        7.026619    1.478872   -2.521441
    105          6           0        7.670106    2.768637   -2.971802
    106          6           0        7.445370    3.802526   -1.772575
    107          6           0        6.759001    2.864785   -0.755266
    108          6           0        9.160401    2.688701   -3.301940
    109          6           0        6.751521    5.147216   -2.123366
    110          6           0        5.312866    4.898702   -2.515672
    111          7           0        5.353060    1.333001    1.374500
    112          6           0        5.897608    2.626276    1.532507
    113          6           0        5.681783    3.020605    2.939761
    114          6           0        5.042107    1.911309    3.513156
    115          6           0        4.889435    0.889346    2.537562
    116          6           0        6.103163    4.242908    3.535180
    117          6           0        4.470834    1.368370    4.724579
    118          8           0        4.238290    1.809944    5.849159
    119          6           0        4.207699   -0.184066    4.507600
    120          6           0        2.816514   -0.491251    4.990041
    121          8           0        1.826261   -0.010967    4.410947
    122          8           0        2.876001   -1.468065    5.913447
    123          6           0        1.519419   -1.815540    6.414201
    124          1           0        5.597915   -4.366008   -0.854088
    125          1           0        7.063947    0.641435   -4.287422
    126          1           0        6.762696    4.294583    0.811440
    127          1           0        4.446252   -3.233089    3.811143
    128          1           0        4.451785   -4.749055    1.436509
    129          1           0        6.645215   -3.658652    3.151159
    130          1           0        7.069466   -3.860782    1.438426
    131          1           0        6.544994   -5.259696    2.325890
    132          1           0        2.402214   -3.535092    1.598345
    133          1           0        2.050537   -2.377645    2.933203
    134          1           0        2.800814   -4.865548    4.097229
    135          1           0        1.968062   -5.288401    2.643742
    136          1           0        5.246597   -5.067683   -2.809841
    137          1           0        6.156483   -4.730471   -4.244267
    138          1           0        4.392909   -4.501052   -4.306878
    139          1           0        6.075627   -3.634248   -6.185183
    140          1           0        5.536720   -2.407030   -7.469792
    141          1           0        4.444990   -2.995072   -6.183025
    142          1           0        7.186223    3.152099   -3.861705
    143          1           0        8.397926    4.114350   -1.319538
    144          1           0        9.397975    3.019876   -4.330514
    145          1           0        9.490772    1.670574   -3.144426
    146          1           0        9.812130    3.249056   -2.633776
    147          1           0        7.234087    5.607905   -2.988846
    148          1           0        6.779388    5.871188   -1.315852
    149          1           0        5.389397    4.620608   -3.571090
    150          1           0        4.719386    5.801680   -2.387460
    151          1           0        4.901164    4.037397   -1.976862
    152          1           0        5.281124    4.591192    4.146276
    153          1           0        6.378751    4.977902    2.781783
    154          1           0        6.968945    3.894227    4.104502
    155          1           0        4.966211   -0.727041    5.072763
    156          1           0        1.543316   -1.707240    7.502957
    157          1           0        1.301860   -2.823195    6.012886
    158          1           0        0.703631   -1.151488    6.153482
 ---------------------------------------------------------------------

 SCF Done:  E(RCAM-B3LYP) =  -4069.81123755     A.U. after   19 cycles

 Excitation energies and oscillator strengths:

 Excited State   1:      Singlet-A      1.6562 eV  748.62 nm  f=0.0054  <S**2>=0.000
     309 -> 315       -0.11342
     310 -> 316        0.12464
     311 -> 314       -0.46151
     312 -> 313        0.50896
 This state for optimization and/or second-order correction.
 Total Energy, E(TD-HF/TD-DFT) =  -4069.75037480
 Copying the excited state density for this state as the 1-particle RhoCI density.

 Excited State   2:      Singlet-A      1.6964 eV  730.86 nm  f=0.7160  <S**2>=0.000
     309 -> 315        0.13278
     310 -> 316        0.11996
     311 -> 314        0.50692
     312 -> 313        0.45981

 Excited State   3:      Singlet-A      2.1826 eV  568.06 nm  f=0.0297  <S**2>=0.000
     309 -> 314        0.30564
     310 -> 313        0.56668
     311 -> 315       -0.12776
     312 -> 316       -0.23791

 Excited State   4:      Singlet-A      2.1927 eV  565.45 nm  f=0.1558  <S**2>=0.000
     309 -> 314        0.56321
     310 -> 313       -0.30305
     311 -> 315       -0.24616
     312 -> 316        0.13257

 Excited State   5:      Singlet-A      2.5753 eV  481.43 nm  f=0.0000  <S**2>=0.000
     311 -> 313        0.70689

 The electronic state is 1-A.
 Alpha  occ. eigenvalues --  -46.87640 -46.87516 -19.26249 -19.26074 -19.19010
 Alpha  occ. eigenvalues --  -19.18785 -19.18754 -19.18626 -19.17975 -19.17895
 Alpha  occ. eigenvalues --  -14.42359 -14.42299 -14.41314 -14.41220 -14.39260
 Alpha  occ. eigenvalues --  -14.39215 -14.38448 -14.38412 -10.38945 -10.38854
 Alpha  occ. eigenvalues --  -10.35393 -10.35307 -10.34193 -10.34073 -10.31727
 Alpha  occ. eigenvalues --  -10.31483 -10.31236 -10.31160 -10.30896 -10.30771
 Alpha  occ. eigenvalues --  -10.30399 -10.30356 -10.30256 -10.30209 -10.30103
 Alpha  occ. eigenvalues --  -10.30016 -10.29782 -10.29753 -10.29479 -10.29305
 Alpha  occ. eigenvalues --  -10.29261 -10.29119 -10.28597 -10.28591 -10.28550
 Alpha  occ. eigenvalues --  -10.28384 -10.28265 -10.28209 -10.28008 -10.27968
 Alpha  occ. eigenvalues --  -10.27858 -10.27634 -10.27579 -10.27530 -10.27448
 Alpha  occ. eigenvalues --  -10.27447 -10.27396 -10.27391 -10.27384 -10.27357
 Alpha  occ. eigenvalues --  -10.27347 -10.27334 -10.27261 -10.27248 -10.26971
 Alpha  occ. eigenvalues --  -10.26912 -10.26554 -10.26539 -10.26408 -10.26372
 Alpha  occ. eigenvalues --  -10.26183 -10.26100 -10.26007 -10.25909 -10.25881
 Alpha  occ. eigenvalues --  -10.25793 -10.25673 -10.25625 -10.25392 -10.25303
 Alpha  occ. eigenvalues --  -10.24724 -10.24698 -10.24660 -10.24658 -10.24578
 Alpha  occ. eigenvalues --  -10.24556  -3.16382  -3.16266  -1.91263  -1.91148
 Alpha  occ. eigenvalues --   -1.90851  -1.90737  -1.90692  -1.90573  -1.16532
 Alpha  occ. eigenvalues --   -1.16419  -1.08500  -1.08424  -1.07162  -1.06882
 Alpha  occ. eigenvalues --   -1.06800  -1.06412  -1.04429  -1.04356  -1.03624
 Alpha  occ. eigenvalues --   -1.03525  -1.03083  -1.02899  -1.02261  -1.01969
 Alpha  occ. eigenvalues --   -0.91846  -0.91807  -0.89425  -0.89360  -0.89037
 Alpha  occ. eigenvalues --   -0.89019  -0.88197  -0.88092  -0.87689  -0.87638
 Alpha  occ. eigenvalues --   -0.87547  -0.87529  -0.87166  -0.87008  -0.84871
 Alpha  occ. eigenvalues --   -0.84841  -0.83859  -0.83750  -0.82905  -0.82838
 Alpha  occ. eigenvalues --   -0.82537  -0.82520  -0.81483  -0.81417  -0.80451
 Alpha  occ. eigenvalues --   -0.80324  -0.78665  -0.78506  -0.77096  -0.77014
 Alpha  occ. eigenvalues --   -0.76795  -0.76780  -0.75769  -0.75719  -0.74798
 Alpha  occ. eigenvalues --   -0.74685  -0.72627  -0.72558  -0.71538  -0.71454
 Alpha  occ. eigenvalues --   -0.69847  -0.69626  -0.68736  -0.68702  -0.67504
 Alpha  occ. eigenvalues --   -0.67473  -0.67085  -0.67080  -0.65142  -0.65136
 Alpha  occ. eigenvalues --   -0.64708  -0.64639  -0.64532  -0.64486  -0.64164
 Alpha  occ. eigenvalues --   -0.64075  -0.62165  -0.62127  -0.60336  -0.60221
 Alpha  occ. eigenvalues --   -0.59662  -0.59652  -0.58858  -0.58847  -0.58361
 Alpha  occ. eigenvalues --   -0.58292  -0.57415  -0.57403  -0.57184  -0.57110
 Alpha  occ. eigenvalues --   -0.56166  -0.56071  -0.55804  -0.55780  -0.55403
 Alpha  occ. eigenvalues --   -0.55343  -0.55228  -0.55122  -0.54390  -0.54365
 Alpha  occ. eigenvalues --   -0.53782  -0.53745  -0.53187  -0.53108  -0.53088
 Alpha  occ. eigenvalues --   -0.53021  -0.52777  -0.52770  -0.52657  -0.52571
 Alpha  occ. eigenvalues --   -0.52375  -0.52266  -0.51720  -0.51717  -0.51539
 Alpha  occ. eigenvalues --   -0.51474  -0.51069  -0.51047  -0.50505  -0.50380
 Alpha  occ. eigenvalues --   -0.49968  -0.49858  -0.49820  -0.49747  -0.49390
 Alpha  occ. eigenvalues --   -0.49374  -0.49075  -0.49065  -0.48972  -0.48949
 Alpha  occ. eigenvalues --   -0.48438  -0.48429  -0.48372  -0.48315  -0.48255
 Alpha  occ. eigenvalues --   -0.48233  -0.47575  -0.47477  -0.47175  -0.47003
 Alpha  occ. eigenvalues --   -0.46669  -0.46575  -0.46432  -0.46408  -0.46227
 Alpha  occ. eigenvalues --   -0.46140  -0.46010  -0.45954  -0.45690  -0.45641
 Alpha  occ. eigenvalues --   -0.45118  -0.45083  -0.44429  -0.44401  -0.44387
 Alpha  occ. eigenvalues --   -0.44344  -0.44046  -0.44002  -0.43959  -0.43952
 Alpha  occ. eigenvalues --   -0.43866  -0.43827  -0.43443  -0.43330  -0.43262
 Alpha  occ. eigenvalues --   -0.43258  -0.42886  -0.42817  -0.42767  -0.42608
 Alpha  occ. eigenvalues --   -0.42485  -0.42425  -0.41899  -0.41827  -0.41557
 Alpha  occ. eigenvalues --   -0.41530  -0.41395  -0.41332  -0.41009  -0.40861
 Alpha  occ. eigenvalues --   -0.40763  -0.40741  -0.40623  -0.40581  -0.40469
 Alpha  occ. eigenvalues --   -0.40365  -0.40107  -0.40090  -0.39403  -0.39289
 Alpha  occ. eigenvalues --   -0.38379  -0.38222  -0.37603  -0.37517  -0.37212
 Alpha  occ. eigenvalues --   -0.37132  -0.37107  -0.37062  -0.36646  -0.36537
 Alpha  occ. eigenvalues --   -0.36087  -0.36035  -0.34131  -0.34111  -0.33710
 Alpha  occ. eigenvalues --   -0.33550  -0.33034  -0.33030  -0.31284  -0.31184
 Alpha  occ. eigenvalues --   -0.30893  -0.30838  -0.29830  -0.29799  -0.29314
 Alpha  occ. eigenvalues --   -0.29197  -0.29142  -0.29059  -0.23929  -0.23895
 Alpha  occ. eigenvalues --   -0.20980  -0.20978
 Alpha virt. eigenvalues --   -0.08654  -0.08628  -0.01617  -0.01551   0.00061
 Alpha virt. eigenvalues --    0.00090   0.02352   0.02369   0.03261   0.03485
 Alpha virt. eigenvalues --    0.04670   0.04870   0.05299   0.05314   0.05720

 Mulliken charges:
               1
     1  Mg   0.840487
     2  C   -0.002433
     3  C   -0.094105
     4  C   -0.046390
     5  C   -0.063225
     6  N   -0.256642
     7  C   -0.052161
     8  C   -0.014099
     9  C   -0.086948
    10  C    0.046135
    11  C    0.104910
    12  C    0.053477
    13  C   -0.071669
    14  H    0.036188
    15  N   -0.432848
    16  C    0.168043
    17  C   -0.177584
    18  C   -0.004757
    19  C    0.148485
    20  C    0.110291
    21  C    0.011403
    22  O   -0.251008
    23  C    0.062847
    24  N   -0.341125
    25  C    0.041064
    26  C   -0.027994
    27  C   -0.023807
    28  C    0.074879
    29  C    0.076346
    30  C    0.035121
    31  C   -0.006976
    32  N   -0.311134
    33  C    0.082332
    34  C   -0.167182
    35  C    0.008955
    36  C    0.084636
    37  C    0.126991
    38  C    0.047553
    39  O   -0.187476
    40  C   -0.005950
    41  C    0.212755
    42  O   -0.255311
    43  O   -0.305198
    44  C    0.157676
    45  H   -0.018049
    46  H   -0.017984
    47  H   -0.041672
    48  H    0.000871
    49  H   -0.004231
    50  H    0.025358
    51  H    0.016212
    52  H    0.016305
    53  H    0.011256
    54  H    0.044899
    55  H    0.017595
    56  H    0.017731
    57  H    0.005886
    58  H    0.026202
    59  H    0.038670
    60  H    0.037614
    61  H    0.034162
    62  H    0.030744
    63  H    0.015407
    64  H    0.009345
    65  H    0.022304
    66  H    0.012729
    67  H    0.004543
    68  H    0.004884
    69  H    0.004088
    70  H    0.007924
    71  H    0.017170
    72  H    0.033720
    73  H    0.050040
    74  H    0.008876
    75  H    0.045361
    76  H    0.034753
    77  H    0.042659
    78  H    0.045939
    79  H    0.054232
    80  Mg   0.838709
    81  C   -0.016459
    82  C   -0.087559
    83  C   -0.045728
    84  C   -0.064722
    85  N   -0.254510
    86  C   -0.049603
    87  C   -0.015297
    88  C   -0.090543
    89  C    0.045632
    90  C    0.114439
    91  C    0.062770
    92  C   -0.081073
    93  H    0.036595
    94  N   -0.423316
    95  C    0.162676
    96  C   -0.174942
    97  C   -0.008304
    98  C    0.152016
    99  C    0.099516
   100  C    0.015065
   101  O   -0.253761
   102  C    0.061490
   103  N   -0.350118
   104  C    0.037452
   105  C   -0.019656
   106  C   -0.034902
   107  C    0.089205
   108  C    0.073829
   109  C    0.034732
   110  C   -0.007626
   111  N   -0.324457
   112  C    0.079271
   113  C   -0.161901
   114  C    0.002604
   115  C    0.097242
   116  C    0.131182
   117  C    0.043566
   118  O   -0.187353
   119  C    0.000391
   120  C    0.211067
   121  O   -0.249030
   122  O   -0.305795
   123  C    0.151719
   124  H   -0.019899
   125  H   -0.016107
   126  H   -0.040248
   127  H   -0.001052
   128  H   -0.004055
   129  H    0.022219
   130  H    0.014285
   131  H    0.016021
   132  H    0.014814
   133  H    0.038030
   134  H    0.020215
   135  H    0.020461
   136  H    0.009041
   137  H    0.025636
   138  H    0.039176
   139  H    0.038321
   140  H    0.035530
   141  H    0.033170
   142  H    0.014040
   143  H    0.012187
   144  H    0.024647
   145  H    0.011483
   146  H    0.005460
   147  H    0.005630
   148  H    0.003915
   149  H    0.010054
   150  H    0.018493
   151  H    0.031184
   152  H    0.047445
   153  H    0.008670
   154  H    0.046447
   155  H    0.034612
   156  H    0.043623
   157  H    0.048152
   158  H    0.053788
 Sum of Mulliken charges =  -0.00000

 Dipole moment (field-independent basis, Debye):
    X=             -0.7464    Y=             -4.6442    Z=             -5.1040  Tot=              6.9409
 Quadrupole moment (field-independent basis, Debye-Ang):
   XX=           -482.7114   YY=           -493.7124   ZZ=           -507.6709
   XY=             -3.0439   XZ=             22.0815   YZ=            -38.0497

 Normal termination of Gaussian 16 at Fri Sep 10 14:56:17 2021.
