 Gaussian 16, Revision A.03,
 Gaussian 16:  ES64L-G16RevA.03 25-Dec-2016

 -----------------------------------
 #p cam-b3lyp/Def2SVP td=(nstates=5)
 -----------------------------------

 --------------------------------
 TDDFT excited states in gaussian
 --------------------------------
 Symbolic Z-matrix:
 Charge =  0 Multiplicity = 1

                         Standard orientation:
 ---------------------------------------------------------------------
 Center     Atomic      Atomic             Coordinates (Angstroms)
 Number     Number       Type             X           Y           Z
 ---------------------------------------------------------------------
      1         12           0        4.703757   -0.239886    0.048166
      2          6           0        4.557554    2.954371   -1.560424
      3          6           0        5.462499    1.414495    2.934409
      4          6           0        5.283699   -3.057537    1.382756
      5          6           0        5.058398   -1.653164   -3.117673
      6          7           0        4.948464    1.912770    0.502962
      7          6           0        4.806714    3.039074   -0.188786
      8          6           0        4.872832    4.319889    0.695812
      9          6           0        5.708646    3.736280    1.921705
     10          6           0        5.323872    2.272121    1.802909
     11          6           0        7.218359    3.863271    1.745236
     12          6           0        3.454106    4.803769    1.148370
     13          6           0        3.402288    6.217413    1.735121
     14          1           0        2.233083    7.042568    1.471628
     15          7           0        4.807106   -0.759045    1.951490
     16          6           0        5.113455    0.048004    2.995572
     17          6           0        5.059123   -0.806729    4.201043
     18          6           0        4.882623   -2.215790    3.752167
     19          6           0        5.012031   -2.068329    2.324972
     20          6           0        5.121850   -0.266065    5.596570
     21          6           0        4.646852   -3.494083    4.492783
     22          8           0        4.754135   -4.636541    3.928998
     23          6           0        4.370102   -3.375784    5.935855
     24          7           0        5.332793   -2.074427   -0.724109
     25          6           0        5.449144   -3.150519    0.061685
     26          6           0        5.634630   -4.399915   -0.747355
     27          6           0        5.376905   -3.984548   -2.267487
     28          6           0        5.155900   -2.465488   -2.062831
     29          6           0        7.007372   -5.076335   -0.628849
     30          6           0        4.303483   -4.788076   -3.043712
     31          6           0        2.934436   -4.506682   -2.466107
     32          7           0        4.618836    0.468099   -2.001857
     33          6           0        4.818253   -0.290080   -3.164643
     34          6           0        4.769610    0.644969   -4.303671
     35          6           0        4.560444    1.892624   -3.719332
     36          6           0        4.509525    1.749859   -2.303239
     37          6           0        4.968351    0.304176   -5.670710
     38          6           0        4.392720    3.316571   -3.960373
     39          8           0        4.255981    4.015754   -4.965330
     40          6           0        4.505893    4.077523   -2.566110
     41          6           0        3.356688    5.044733   -2.481602
     42          8           0        2.180691    4.635324   -2.399244
     43          8           0        3.831577    6.282163   -2.272344
     44          6           0        2.741220    7.286221   -2.149286
     45          1           0        5.934880    1.804943    3.837929
     46          1           0        5.380270   -4.064431    1.794188
     47          1           0        5.076668   -2.033483   -4.140647
     48          1           0        5.407496    5.156301    0.245287
     49          1           0        5.369395    4.141094    2.874993
     50          1           0        7.474360    4.217579    0.746812
     51          1           0        7.615634    2.861027    1.907016
     52          1           0        7.648955    4.486464    2.529451
     53          1           0        3.139560    4.229551    2.019803
     54          1           0        2.740486    4.727875    0.327205
     55          1           0        4.316795    6.771419    1.521430
     56          1           0        3.382807    6.135614    2.821919
     57          1           0        5.418702    0.781940    5.607078
     58          1           0        5.936324   -0.784167    6.102448
     59          1           0        4.190731   -0.425329    6.140613
     60          1           0        5.208542   -2.877984    6.423463
     61          1           0        4.139127   -4.382848    6.281287
     62          1           0        3.504520   -2.727962    6.077433
     63          1           0        4.913541   -5.163482   -0.458525
     64          1           0        6.275622   -4.083976   -2.876663
     65          1           0        6.956856   -6.115145   -0.301699
     66          1           0        7.618516   -4.481914    0.049722
     67          1           0        7.608091   -5.053670   -1.537716
     68          1           0        4.481790   -5.857814   -2.939730
     69          1           0        4.280159   -4.557736   -4.108912
     70          1           0        2.880182   -5.193913   -1.622543
     71          1           0        2.159031   -4.727801   -3.200317
     72          1           0        2.871423   -3.494419   -2.066308
     73          1           0        4.202903    0.839061   -6.232810
     74          1           0        4.893957   -0.771997   -5.825373
     75          1           0        5.979435    0.679656   -5.827491
     76          1           0        5.469681    4.585685   -2.563665
     77          1           0        2.932396    8.060388   -2.892488
     78          1           0        2.713202    7.586418   -1.101668
     79          1           0        1.745703    6.955765   -2.447756
     80         12           0       -4.244175   -1.142677    0.202399
     81          6           0       -6.814225    1.360290    0.107130
     82          6           0       -2.009446    1.384485    0.706405
     83          6           0       -1.913525   -3.265509   -0.156881
     84          6           0       -6.464772   -3.286014   -1.416467
     85          7           0       -4.500402    1.048065    0.367494
     86          6           0       -5.531045    1.879946    0.377043
     87          6           0       -5.176732    3.338456    0.772985
     88          6           0       -3.622575    3.326540    0.368825
     89          6           0       -3.341656    1.833113    0.521889
     90          6           0       -3.374459    3.713220   -1.079703
     91          6           0       -5.369228    3.604855    2.307256
     92          6           0       -5.340041    5.080227    2.712423
     93          1           0       -6.210656    5.521042    3.798790
     94          7           0       -2.335340   -1.057276    0.738707
     95          6           0       -1.589847    0.053024    0.919678
     96          6           0       -0.246673   -0.419981    1.288867
     97          6           0       -0.216567   -1.901417    1.150423
     98          6           0       -1.509310   -2.135327    0.538719
     99          6           0        0.827590    0.496857    1.797572
    100          6           0        0.811511   -2.935136    1.497821
    101          8           0        0.724686   -4.140890    1.071846
    102          6           0        1.971173   -2.471583    2.273573
    103          7           0       -4.117247   -2.933240   -0.846477
    104          6           0       -3.006150   -3.688562   -0.792881
    105          6           0       -3.244269   -5.052616   -1.395429
    106          6           0       -4.821034   -5.141723   -1.647321
    107          6           0       -5.228004   -3.717373   -1.210311
    108          6           0       -2.503477   -5.341766   -2.700811
    109          6           0       -5.567197   -6.349672   -1.017423
    110          6           0       -5.558293   -6.232878    0.489780
    111          7           0       -6.327299   -1.082861   -0.367750
    112          6           0       -7.050958   -2.078093   -1.060514
    113          6           0       -8.399854   -1.534413   -1.319976
    114          6           0       -8.359691   -0.241700   -0.776142
    115          6           0       -7.070024    0.010409   -0.235126
    116          6           0       -9.444505   -2.200352   -2.020932
    117          6           0       -9.111731    0.970841   -0.546170
    118          8           0      -10.282903    1.310756   -0.709141
    119          6           0       -8.105548    2.108167   -0.076617
    120          6           0       -8.699986    2.786127    1.127344
    121          8           0       -8.850696    2.163421    2.193233
    122          8           0       -8.789970    4.107364    0.889414
    123          6           0       -9.363731    4.824704    2.059060
    124          1           0       -1.202281    2.114554    0.640248
    125          1           0       -1.179681   -4.072937   -0.211775
    126          1           0       -7.245812   -3.928183   -1.829128
    127          1           0       -5.701228    4.101895    0.210996
    128          1           0       -3.026782    3.900783    1.073550
    129          1           0       -4.296298    3.818025   -1.632300
    130          1           0       -2.771330    2.917707   -1.497364
    131          1           0       -2.758631    4.615826   -1.128747
    132          1           0       -4.484210    3.244223    2.847095
    133          1           0       -6.273694    3.150433    2.662326
    134          1           0       -5.437292    5.747283    1.847239
    135          1           0       -4.351455    5.309312    3.117687
    136          1           0        0.568406    1.550111    1.633606
    137          1           0        1.710695    0.333645    1.170395
    138          1           0        1.091990    0.299123    2.838556
    139          1           0        2.482209   -1.684727    1.723865
    140          1           0        2.548892   -3.369710    2.500455
    141          1           0        1.611380   -2.021676    3.205631
    142          1           0       -2.953686   -5.835935   -0.706169
    143          1           0       -5.058683   -5.221786   -2.718276
    144          1           0       -1.861968   -6.241659   -2.648505
    145          1           0       -1.916377   -4.470816   -2.960231
    146          1           0       -3.139624   -5.460681   -3.576233
    147          1           0       -5.050886   -7.281846   -1.259548
    148          1           0       -6.591718   -6.450710   -1.359710
    149          1           0       -4.582738   -6.645714    0.763530
    150          1           0       -6.368963   -6.814619    0.923879
    151          1           0       -5.571446   -5.182524    0.803210
    152          1           0      -10.354008   -2.028829   -1.460686
    153          1           0       -9.237008   -3.263023   -2.127957
    154          1           0       -9.402106   -1.675329   -2.978967
    155          1           0       -7.976681    2.797016   -0.912353
    156          1           0      -10.233056    5.382217    1.696931
    157          1           0       -8.530379    5.413190    2.486799
    158          1           0       -9.808866    4.226046    2.845136
 ---------------------------------------------------------------------

 SCF Done:  E(RCAM-B3LYP) =  -4069.81013275     A.U. after   19 cycles

 Excitation energies and oscillator strengths:

 Excited State   1:      Singlet-A      1.6393 eV  756.33 nm  f=0.3064  <S**2>=0.000
     309 -> 315        0.13065
     310 -> 316       -0.10122
     311 -> 313        0.54206
     312 -> 314       -0.42265
 This state for optimization and/or second-order correction.
 Total Energy, E(TD-HF/TD-DFT) =  -4069.74989025
 Copying the excited state density for this state as the 1-particle RhoCI density.

 Excited State   2:      Singlet-A      1.6835 eV  736.48 nm  f=0.4804  <S**2>=0.000
     309 -> 315        0.11138
     310 -> 316        0.13796
     311 -> 313        0.42073
     312 -> 314        0.53997

 Excited State   3:      Singlet-A      2.1752 eV  569.99 nm  f=0.0009  <S**2>=0.000
     309 -> 313        0.44287
     310 -> 314        0.45106
     311 -> 315       -0.18562
     312 -> 313        0.14140
     312 -> 316       -0.18516

 Excited State   4:      Singlet-A      2.1896 eV  566.25 nm  f=0.1410  <S**2>=0.000
     309 -> 313       -0.37441
     310 -> 314        0.44612
     311 -> 315        0.17057
     312 -> 313       -0.28687
     312 -> 316       -0.19249

 Excited State   5:      Singlet-A      2.2152 eV  559.70 nm  f=0.0274  <S**2>=0.000
     309 -> 313       -0.27076
     310 -> 314        0.10219
     311 -> 315        0.11811
     312 -> 313        0.62889

 The electronic state is 1-A.
 Alpha  occ. eigenvalues --  -46.88244 -46.87401 -19.26744 -19.26182 -19.19509
 Alpha  occ. eigenvalues --  -19.19267 -19.18985 -19.18521 -19.18357 -19.17829
 Alpha  occ. eigenvalues --  -14.42857 -14.42219 -14.41756 -14.41112 -14.39843
 Alpha  occ. eigenvalues --  -14.39084 -14.38955 -14.38352 -10.39554 -10.38909
 Alpha  occ. eigenvalues --  -10.35817 -10.34914 -10.34746 -10.34007 -10.32140
 Alpha  occ. eigenvalues --  -10.31800 -10.31620 -10.31317 -10.31009 -10.31004
 Alpha  occ. eigenvalues --  -10.30784 -10.30751 -10.30467 -10.30201 -10.30137
 Alpha  occ. eigenvalues --  -10.30102 -10.30045 -10.29898 -10.29662 -10.29600
 Alpha  occ. eigenvalues --  -10.29211 -10.29180 -10.29153 -10.29088 -10.28738
 Alpha  occ. eigenvalues --  -10.28530 -10.28509 -10.28430 -10.28149 -10.28130
 Alpha  occ. eigenvalues --  -10.28118 -10.27977 -10.27871 -10.27784 -10.27769
 Alpha  occ. eigenvalues --  -10.27753 -10.27549 -10.27510 -10.27436 -10.27402
 Alpha  occ. eigenvalues --  -10.27337 -10.27332 -10.27308 -10.27230 -10.27199
 Alpha  occ. eigenvalues --  -10.27194 -10.26827 -10.26740 -10.26582 -10.26491
 Alpha  occ. eigenvalues --  -10.26284 -10.26090 -10.25980 -10.25954 -10.25696
 Alpha  occ. eigenvalues --  -10.25648 -10.25509 -10.25461 -10.25454 -10.25269
 Alpha  occ. eigenvalues --  -10.25182 -10.25031 -10.24629 -10.24577 -10.24440
 Alpha  occ. eigenvalues --  -10.24124  -3.16979  -3.16151  -1.91868  -1.91443
 Alpha  occ. eigenvalues --   -1.91287  -1.91033  -1.90622  -1.90459  -1.17096
 Alpha  occ. eigenvalues --   -1.16473  -1.08983  -1.08442  -1.07638  -1.07121
 Alpha  occ. eigenvalues --   -1.06769  -1.06567  -1.04983  -1.04217  -1.04119
 Alpha  occ. eigenvalues --   -1.03598  -1.03399  -1.02790  -1.02751  -1.01861
 Alpha  occ. eigenvalues --   -0.92336  -0.91739  -0.89709  -0.89590  -0.89276
 Alpha  occ. eigenvalues --   -0.88832  -0.88396  -0.88186  -0.88031  -0.88016
 Alpha  occ. eigenvalues --   -0.87673  -0.87562  -0.87417  -0.86835  -0.85404
 Alpha  occ. eigenvalues --   -0.84711  -0.84012  -0.83686  -0.83235  -0.82973
 Alpha  occ. eigenvalues --   -0.82583  -0.82289  -0.81946  -0.81377  -0.80950
 Alpha  occ. eigenvalues --   -0.80178  -0.79163  -0.78370  -0.77541  -0.77216
 Alpha  occ. eigenvalues --   -0.76902  -0.76662  -0.76285  -0.75562  -0.75038
 Alpha  occ. eigenvalues --   -0.74603  -0.73084  -0.72451  -0.71977  -0.71314
 Alpha  occ. eigenvalues --   -0.69844  -0.69568  -0.69249  -0.68545  -0.67984
 Alpha  occ. eigenvalues --   -0.67680  -0.67344  -0.66920  -0.65695  -0.65197
 Alpha  occ. eigenvalues --   -0.65006  -0.64947  -0.64526  -0.64404  -0.64369
 Alpha  occ. eigenvalues --   -0.63986  -0.62649  -0.62072  -0.60779  -0.60221
 Alpha  occ. eigenvalues --   -0.60103  -0.59503  -0.59298  -0.58822  -0.58745
 Alpha  occ. eigenvalues --   -0.58188  -0.57971  -0.57544  -0.57339  -0.57032
 Alpha  occ. eigenvalues --   -0.56656  -0.56389  -0.55960  -0.55884  -0.55679
 Alpha  occ. eigenvalues --   -0.55541  -0.55222  -0.55048  -0.54710  -0.54335
 Alpha  occ. eigenvalues --   -0.54289  -0.53714  -0.53589  -0.53582  -0.53282
 Alpha  occ. eigenvalues --   -0.53199  -0.52944  -0.52818  -0.52664  -0.52469
 Alpha  occ. eigenvalues --   -0.52337  -0.52216  -0.52168  -0.52044  -0.51672
 Alpha  occ. eigenvalues --   -0.51493  -0.51384  -0.50984  -0.50946  -0.50453
 Alpha  occ. eigenvalues --   -0.50138  -0.50056  -0.49894  -0.49726  -0.49602
 Alpha  occ. eigenvalues --   -0.49485  -0.49444  -0.49219  -0.48963  -0.48929
 Alpha  occ. eigenvalues --   -0.48849  -0.48709  -0.48557  -0.48300  -0.48187
 Alpha  occ. eigenvalues --   -0.48104  -0.47824  -0.47530  -0.47270  -0.47094
 Alpha  occ. eigenvalues --   -0.46966  -0.46898  -0.46615  -0.46470  -0.46372
 Alpha  occ. eigenvalues --   -0.46263  -0.46160  -0.46033  -0.45863  -0.45602
 Alpha  occ. eigenvalues --   -0.45342  -0.44998  -0.44924  -0.44804  -0.44492
 Alpha  occ. eigenvalues --   -0.44398  -0.44296  -0.44247  -0.44151  -0.43858
 Alpha  occ. eigenvalues --   -0.43848  -0.43823  -0.43682  -0.43561  -0.43353
 Alpha  occ. eigenvalues --   -0.43333  -0.43133  -0.43098  -0.42734  -0.42731
 Alpha  occ. eigenvalues --   -0.42668  -0.42336  -0.42131  -0.42017  -0.41801
 Alpha  occ. eigenvalues --   -0.41750  -0.41472  -0.41415  -0.41211  -0.41187
 Alpha  occ. eigenvalues --   -0.41098  -0.40753  -0.40694  -0.40606  -0.40458
 Alpha  occ. eigenvalues --   -0.40323  -0.40260  -0.39954  -0.39273  -0.39221
 Alpha  occ. eigenvalues --   -0.38619  -0.38200  -0.38141  -0.37710  -0.37468
 Alpha  occ. eigenvalues --   -0.37404  -0.37095  -0.37033  -0.36931  -0.36591
 Alpha  occ. eigenvalues --   -0.36428  -0.35997  -0.34633  -0.34226  -0.34002
 Alpha  occ. eigenvalues --   -0.33670  -0.33500  -0.32913  -0.31715  -0.31370
 Alpha  occ. eigenvalues --   -0.30855  -0.30681  -0.30383  -0.29891  -0.29735
 Alpha  occ. eigenvalues --   -0.29679  -0.29075  -0.28968  -0.24450  -0.23772
 Alpha  occ. eigenvalues --   -0.21433  -0.20863
 Alpha virt. eigenvalues --   -0.09143  -0.08541  -0.02172  -0.01422  -0.00501
 Alpha virt. eigenvalues --    0.00275   0.01869   0.02442   0.02599   0.03460
 Alpha virt. eigenvalues --    0.04305   0.04623   0.04993   0.05354   0.05563

 Mulliken charges:
               1
     1  Mg   0.802671
     2  C    0.000095
     3  C   -0.096697
     4  C   -0.032090
     5  C   -0.062694
     6  N   -0.254094
     7  C   -0.057899
     8  C   -0.012370
     9  C   -0.086455
    10  C    0.042772
    11  C    0.104525
    12  C    0.051084
    13  C   -0.071456
    14  H    0.034452
    15  N   -0.439592
    16  C    0.171273
    17  C   -0.184443
    18  C    0.010094
    19  C    0.117380
    20  C    0.111632
    21  C    0.013801
    22  O   -0.248193
    23  C    0.066495
    24  N   -0.339224
    25  C    0.042578
    26  C   -0.027927
    27  C   -0.024566
    28  C    0.081678
    29  C    0.076169
    30  C    0.033963
    31  C   -0.004458
    32  N   -0.305701
    33  C    0.082730
    34  C   -0.168867
    35  C    0.009123
    36  C    0.078026
    37  C    0.127108
    38  C    0.046546
    39  O   -0.187472
    40  C   -0.007374
    41  C    0.213660
    42  O   -0.260023
    43  O   -0.303973
    44  C    0.157555
    45  H   -0.017989
    46  H   -0.014504
    47  H   -0.039937
    48  H    0.001788
    49  H   -0.004360
    50  H    0.025965
    51  H    0.017751
    52  H    0.017358
    53  H    0.010159
    54  H    0.040980
    55  H    0.019937
    56  H    0.018599
    57  H    0.005953
    58  H    0.028145
    59  H    0.038383
    60  H    0.037766
    61  H    0.038733
    62  H    0.028325
    63  H    0.024434
    64  H    0.008925
    65  H    0.024660
    66  H    0.011661
    67  H    0.004630
    68  H    0.006237
    69  H    0.002208
    70  H    0.020657
    71  H    0.015754
    72  H    0.029087
    73  H    0.048074
    74  H    0.010555
    75  H    0.046591
    76  H    0.036052
    77  H    0.044524
    78  H    0.046148
    79  H    0.052261
    80  Mg   0.837907
    81  C   -0.017005
    82  C   -0.089899
    83  C   -0.045825
    84  C   -0.065094
    85  N   -0.254622
    86  C   -0.049387
    87  C   -0.015243
    88  C   -0.089958
    89  C    0.044514
    90  C    0.113868
    91  C    0.062813
    92  C   -0.076996
    93  H    0.033195
    94  N   -0.423969
    95  C    0.165242
    96  C   -0.188667
    97  C   -0.003778
    98  C    0.152551
    99  C    0.119111
   100  C    0.022779
   101  O   -0.252302
   102  C    0.036294
   103  N   -0.349844
   104  C    0.037684
   105  C   -0.019828
   106  C   -0.034719
   107  C    0.088794
   108  C    0.073437
   109  C    0.034921
   110  C   -0.007574
   111  N   -0.323936
   112  C    0.078204
   113  C   -0.163578
   114  C    0.002126
   115  C    0.096024
   116  C    0.131552
   117  C    0.042019
   118  O   -0.188771
   119  C    0.001045
   120  C    0.211158
   121  O   -0.251534
   122  O   -0.305427
   123  C    0.152307
   124  H   -0.011837
   125  H   -0.015558
   126  H   -0.041172
   127  H   -0.000847
   128  H   -0.005493
   129  H    0.020703
   130  H    0.020162
   131  H    0.019692
   132  H    0.012974
   133  H    0.037032
   134  H    0.021020
   135  H    0.018585
   136  H    0.011141
   137  H    0.023023
   138  H    0.039460
   139  H    0.049531
   140  H    0.055681
   141  H    0.024654
   142  H    0.014138
   143  H    0.012037
   144  H    0.023635
   145  H    0.012261
   146  H    0.005320
   147  H    0.005543
   148  H    0.003345
   149  H    0.010876
   150  H    0.017377
   151  H    0.030379
   152  H    0.045374
   153  H    0.007995
   154  H    0.046814
   155  H    0.035337
   156  H    0.043528
   157  H    0.049241
   158  H    0.053107
 Sum of Mulliken charges =  -0.00000

 Dipole moment (field-independent basis, Debye):
    X=              6.4492    Y=              2.3524    Z=              3.4892  Tot=              7.7007
 Quadrupole moment (field-independent basis, Debye-Ang):
   XX=           -552.5541   YY=           -480.1513   ZZ=           -502.8073
   XY=             16.1209   XZ=             22.4296   YZ=             50.5158

 Normal termination of Gaussian 16 at Fri Sep 10 07:00:21 2021.
