 Gaussian 16, Revision A.03,
 Gaussian 16:  ES64L-G16RevA.03 25-Dec-2016

 -----------------------------------
 #p cam-b3lyp/Def2SVP td=(nstates=5)
 -----------------------------------

 --------------------------------
 TDDFT excited states in gaussian
 --------------------------------
 Symbolic Z-matrix:
 Charge =  0 Multiplicity = 1

                         Standard orientation:
 ---------------------------------------------------------------------
 Center     Atomic      Atomic             Coordinates (Angstroms)
 Number     Number       Type             X           Y           Z
 ---------------------------------------------------------------------
      1         12           0        4.051193    0.377509    1.206095
      2          6           0        4.705696   -2.618974   -0.639150
      3          6           0        5.691365    2.075685   -1.257459
      4          6           0        3.885004    2.966399    3.030005
      5          6           0        3.492804   -1.637177    3.994446
      6          7           0        5.028735   -0.297244   -0.661996
      7          6           0        5.157561   -1.465224   -1.283606
      8          6           0        5.750279   -1.339131   -2.718932
      9          6           0        6.519408    0.047527   -2.552744
     10          6           0        5.676345    0.662192   -1.449406
     11          6           0        7.950943   -0.106313   -2.049213
     12          6           0        4.636853   -1.248763   -3.816132
     13          6           0        5.119686   -1.451572   -5.255262
     14          1           0        4.248942   -2.140895   -6.195468
     15          7           0        4.248408    2.287339    0.740796
     16          6           0        4.937966    2.798500   -0.307303
     17          6           0        4.783271    4.266532   -0.219931
     18          6           0        4.107014    4.576823    1.070220
     19          6           0        4.076248    3.274400    1.685138
     20          6           0        5.208655    5.204892   -1.307257
     21          6           0        3.582637    5.847583    1.660417
     22          8           0        3.241270    5.936726    2.889276
     23          6           0        3.561970    7.024556    0.773090
     24          7           0        3.949919    0.654538    3.272646
     25          6           0        3.826359    1.877631    3.799674
     26          6           0        3.490115    1.811518    5.259985
     27          6           0        3.168557    0.278591    5.570615
     28          6           0        3.472976   -0.314346    4.172751
     29          6           0        4.578816    2.309404    6.220637
     30          6           0        1.798138   -0.034419    6.222071
     31          6           0        0.684338    0.267518    5.244635
     32          7           0        3.910857   -1.752957    1.596563
     33          6           0        3.694578   -2.370340    2.837021
     34          6           0        3.787517   -3.825401    2.617411
     35          6           0        4.069665   -3.953663    1.258814
     36          6           0        4.173981   -2.659950    0.672540
     37          6           0        3.674870   -4.828433    3.620243
     38          6           0        4.331649   -4.882106    0.171056
     39          8           0        4.285653   -6.106767    0.046219
     40          6           0        4.874223   -4.053078   -1.075600
     41          6           0        4.115942   -4.511843   -2.291270
     42          8           0        2.894409   -4.284156   -2.406948
     43          8           0        4.984017   -4.931030   -3.224688
     44          6           0        4.298017   -5.372490   -4.468341
     45          1           0        6.384521    2.680809   -1.845081
     46          1           0        3.712699    3.830358    3.675237
     47          1           0        3.246325   -2.330395    4.800766
     48          1           0        6.454860   -2.125449   -2.990395
     49          1           0        6.462955    0.654976   -3.455817
     50          1           0        8.164470   -1.136396   -1.764156
     51          1           0        8.027293    0.551888   -1.183514
     52          1           0        8.662302    0.277378   -2.781009
     53          1           0        4.280775   -0.220759   -3.883041
     54          1           0        3.828998   -1.950175   -3.604670
     55          1           0        6.123678   -1.876017   -5.282746
     56          1           0        5.226953   -0.471793   -5.720801
     57          1           0        5.821811    4.701385   -2.053626
     58          1           0        5.878201    5.935355   -0.853561
     59          1           0        4.360697    5.716576   -1.762755
     60          1           0        4.574548    7.231444    0.426058
     61          1           0        3.073247    7.818015    1.337380
     62          1           0        2.976039    6.786792   -0.115224
     63          1           0        2.611332    2.413860    5.486588
     64          1           0        3.894770   -0.161189    6.254634
     65          1           0        4.246674    3.110405    6.881533
     66          1           0        5.435603    2.623621    5.625260
     67          1           0        5.022617    1.537070    6.848298
     68          1           0        1.639622    0.598574    7.094504
     69          1           0        1.700984   -1.071682    6.542847
     70          1           0        0.532522    1.338772    5.371910
     71          1           0       -0.215519   -0.288536    5.509722
     72          1           0        1.002944    0.103627    4.215016
     73          1           0        3.048794   -5.613884    3.197084
     74          1           0        3.241265   -4.426269    4.535587
     75          1           0        4.720585   -5.110281    3.742299
     76          1           0        5.939989   -4.265664   -1.153530
     77          1           0        4.619879   -6.394858   -4.666839
     78          1           0        4.513308   -4.618243   -5.225418
     79          1           0        3.217736   -5.506146   -4.401494
     80         12           0       -3.594164    0.568378   -0.925819
     81          6           0       -6.293561   -1.532457    0.159928
     82          6           0       -5.917937    2.994177   -1.517578
     83          6           0       -1.308538    2.281865   -2.306856
     84          6           0       -1.691390   -2.322978   -1.332307
     85          7           0       -5.791011    0.606518   -0.671483
     86          6           0       -6.700597   -0.228896   -0.192876
     87          6           0       -8.111642    0.391920   -0.010933
     88          6           0       -7.991782    1.580221   -1.084457
     89          6           0       -6.476363    1.769971   -1.070859
     90          6           0       -8.409072    1.168888   -2.486610
     91          6           0       -8.337554    0.948125    1.438757
     92          6           0       -9.790689    1.287043    1.778325
     93          1           0      -10.259715    1.053149    3.141332
     94          7           0       -3.509828    2.509995   -1.327789
     95          6           0       -4.550812    3.348181   -1.515022
     96          6           0       -3.960647    4.664658   -1.802690
     97          6           0       -2.487316    4.499938   -1.932645
     98          6           0       -2.377879    3.055858   -1.880269
     99          6           0       -4.771332    5.927205   -1.849210
    100          6           0       -1.364130    5.479329   -2.092177
    101          8           0       -0.184901    5.103160   -2.424953
    102          6           0       -1.706988    6.900740   -1.938755
    103          7           0       -1.837670    0.045188   -1.907328
    104          6           0       -0.995763    0.987320   -2.367208
    105          6           0        0.322966    0.382699   -2.786480
    106          6           0        0.278594   -1.135111   -2.284645
    107          6           0       -1.156906   -1.171770   -1.715994
    108          6           0        0.622874    0.414448   -4.284959
    109          6           0        1.445693   -1.610542   -1.376612
    110          6           0        1.383720   -0.901530   -0.042880
    111          7           0       -3.838119   -1.530386   -0.474430
    112          6           0       -2.928271   -2.573988   -0.752213
    113          6           0       -3.585391   -3.839108   -0.364805
    114          6           0       -4.850739   -3.442658    0.093687
    115          6           0       -4.981069   -2.032146   -0.020138
    116          6           0       -3.029176   -5.141963   -0.503788
    117          6           0       -6.109772   -3.897743    0.638147
    118          8           0       -6.546453   -4.979015    1.030446
    119          6           0       -7.146875   -2.694329    0.587152
    120          6           0       -7.826233   -2.609558    1.926488
    121          8           0       -7.179753   -2.307892    2.945141
    122          8           0       -9.158090   -2.684212    1.750506
    123          6           0       -9.876259   -2.593501    3.049669
    124          1           0       -6.584054    3.740789   -1.950868
    125          1           0       -0.448289    2.836078   -2.689352
    126          1           0       -1.127833   -3.258426   -1.336605
    127          1           0       -8.933559   -0.263771   -0.272290
    128          1           0       -8.491858    2.479876   -0.735308
    129          1           0       -8.605757    0.109214   -2.553859
    130          1           0       -7.583905    1.442186   -3.131173
    131          1           0       -9.261543    1.768999   -2.817502
    132          1           0       -7.889354    1.947310    1.512797
    133          1           0       -7.943425    0.271708    2.172081
    134          1           0      -10.493711    0.861912    1.051719
    135          1           0       -9.926618    2.367027    1.682517
    136          1           0       -5.846900    5.713696   -1.880463
    137          1           0       -4.561525    6.406658   -2.811483
    138          1           0       -4.516437    6.621296   -1.045504
    139          1           0       -2.470225    7.168607   -2.665511
    140          1           0       -0.758636    7.438230   -1.998825
    141          1           0       -2.150353    7.048685   -0.947714
    142          1           0        1.150794    0.888140   -2.304454
    143          1           0        0.301501   -1.843267   -3.125975
    144          1           0        1.571794    0.928165   -4.529378
    145          1           0       -0.207818    0.889954   -4.789311
    146          1           0        0.660075   -0.559874   -4.769220
    147          1           0        2.406421   -1.345338   -1.824749
    148          1           0        1.453478   -2.682376   -1.208955
    149          1           0        1.881596    0.051229   -0.246521
    150          1           0        1.914915   -1.469722    0.718058
    151          1           0        0.347428   -0.678797    0.236649
    152          1           0       -3.251742   -5.674727    0.411162
    153          1           0       -1.957961   -5.099223   -0.689345
    154          1           0       -3.583030   -5.498410   -1.376407
    155          1           0       -7.852771   -2.904077   -0.217392
    156          1           0      -10.513056   -3.480326    3.125313
    157          1           0      -10.381684   -1.609499    3.043554
    158          1           0       -9.286900   -2.678469    3.955147
 ---------------------------------------------------------------------

 SCF Done:  E(RCAM-B3LYP) =  -4069.81427395     A.U. after   19 cycles

 Excitation energies and oscillator strengths:

 Excited State   1:      Singlet-A      1.6272 eV  761.95 nm  f=0.0028  <S**2>=0.000
     309 -> 315       -0.11281
     310 -> 316        0.11589
     311 -> 313       -0.47501
     312 -> 314        0.49833
 This state for optimization and/or second-order correction.
 Total Energy, E(TD-HF/TD-DFT) =  -4069.75447553
 Copying the excited state density for this state as the 1-particle RhoCI density.

 Excited State   2:      Singlet-A      1.7089 eV  725.54 nm  f=0.6686  <S**2>=0.000
     309 -> 315        0.13363
     310 -> 316        0.12435
     311 -> 313        0.49509
     312 -> 314        0.47183

 Excited State   3:      Singlet-A      2.1734 eV  570.47 nm  f=0.0571  <S**2>=0.000
     309 -> 313        0.47654
     310 -> 314        0.43235
     311 -> 315       -0.20049
     312 -> 316       -0.17256

 Excited State   4:      Singlet-A      2.1844 eV  567.60 nm  f=0.1368  <S**2>=0.000
     309 -> 313       -0.42527
     310 -> 314        0.47732
     311 -> 315        0.18712
     312 -> 316       -0.20417

 Excited State   5:      Singlet-A      2.2474 eV  551.68 nm  f=0.0007  <S**2>=0.000
     312 -> 313        0.70212

 The electronic state is 1-A.
 Alpha  occ. eigenvalues --  -46.87624 -46.87287 -19.26864 -19.26136 -19.19847
 Alpha  occ. eigenvalues --  -19.18933 -19.18647 -19.18589 -19.18295 -19.17757
 Alpha  occ. eigenvalues --  -14.42449 -14.42141 -14.41343 -14.40928 -14.39275
 Alpha  occ. eigenvalues --  -14.39001 -14.38345 -14.38223 -10.39764 -10.38854
 Alpha  occ. eigenvalues --  -10.35268 -10.35265 -10.34545 -10.33932 -10.32136
 Alpha  occ. eigenvalues --  -10.31576 -10.31495 -10.30938 -10.30936 -10.30730
 Alpha  occ. eigenvalues --  -10.30596 -10.30479 -10.30072 -10.30013 -10.29964
 Alpha  occ. eigenvalues --  -10.29905 -10.29634 -10.29609 -10.29438 -10.29136
 Alpha  occ. eigenvalues --  -10.29073 -10.29037 -10.28945 -10.28831 -10.28465
 Alpha  occ. eigenvalues --  -10.28458 -10.28297 -10.28235 -10.28090 -10.27861
 Alpha  occ. eigenvalues --  -10.27734 -10.27720 -10.27656 -10.27508 -10.27494
 Alpha  occ. eigenvalues --  -10.27436 -10.27352 -10.27340 -10.27311 -10.27219
 Alpha  occ. eigenvalues --  -10.27191 -10.27137 -10.27133 -10.27072 -10.26804
 Alpha  occ. eigenvalues --  -10.26767 -10.26574 -10.26466 -10.26365 -10.26312
 Alpha  occ. eigenvalues --  -10.26068 -10.25968 -10.25934 -10.25780 -10.25774
 Alpha  occ. eigenvalues --  -10.25377 -10.25342 -10.25298 -10.25067 -10.24852
 Alpha  occ. eigenvalues --  -10.24734 -10.24535 -10.24487 -10.24410 -10.24318
 Alpha  occ. eigenvalues --  -10.24147  -3.16318  -3.16038  -1.91192  -1.90921
 Alpha  occ. eigenvalues --   -1.90796  -1.90637  -1.90508  -1.90346  -1.17240
 Alpha  occ. eigenvalues --   -1.16426  -1.08809  -1.08369  -1.07397  -1.07042
 Alpha  occ. eigenvalues --   -1.06848  -1.06717  -1.04617  -1.04151  -1.03708
 Alpha  occ. eigenvalues --   -1.03285  -1.03197  -1.02628  -1.02383  -1.01723
 Alpha  occ. eigenvalues --   -0.92075  -0.91642  -0.89452  -0.89321  -0.88966
 Alpha  occ. eigenvalues --   -0.88810  -0.88201  -0.87880  -0.87693  -0.87595
 Alpha  occ. eigenvalues --   -0.87389  -0.87296  -0.87110  -0.86851  -0.85086
 Alpha  occ. eigenvalues --   -0.84695  -0.83874  -0.83362  -0.82842  -0.82688
 Alpha  occ. eigenvalues --   -0.82638  -0.82334  -0.81772  -0.81278  -0.80647
 Alpha  occ. eigenvalues --   -0.80127  -0.78698  -0.78306  -0.77233  -0.77043
 Alpha  occ. eigenvalues --   -0.76809  -0.76548  -0.76020  -0.75529  -0.74855
 Alpha  occ. eigenvalues --   -0.74428  -0.72754  -0.72300  -0.71700  -0.71222
 Alpha  occ. eigenvalues --   -0.69765  -0.69159  -0.68940  -0.68515  -0.67672
 Alpha  occ. eigenvalues --   -0.67280  -0.67255  -0.66955  -0.65436  -0.64981
 Alpha  occ. eigenvalues --   -0.64948  -0.64671  -0.64382  -0.64287  -0.64196
 Alpha  occ. eigenvalues --   -0.63621  -0.62534  -0.61919  -0.60313  -0.60004
 Alpha  occ. eigenvalues --   -0.59894  -0.59485  -0.59025  -0.58598  -0.58565
 Alpha  occ. eigenvalues --   -0.58047  -0.57879  -0.57281  -0.57249  -0.56818
 Alpha  occ. eigenvalues --   -0.56451  -0.56167  -0.55845  -0.55617  -0.55540
 Alpha  occ. eigenvalues --   -0.55403  -0.55191  -0.54953  -0.54673  -0.54261
 Alpha  occ. eigenvalues --   -0.53985  -0.53631  -0.53343  -0.53231  -0.53093
 Alpha  occ. eigenvalues --   -0.52937  -0.52824  -0.52633  -0.52557  -0.52461
 Alpha  occ. eigenvalues --   -0.52283  -0.52102  -0.51751  -0.51585  -0.51451
 Alpha  occ. eigenvalues --   -0.51389  -0.51244  -0.50863  -0.50330  -0.50281
 Alpha  occ. eigenvalues --   -0.50059  -0.49849  -0.49700  -0.49649  -0.49401
 Alpha  occ. eigenvalues --   -0.49273  -0.49235  -0.49165  -0.48918  -0.48820
 Alpha  occ. eigenvalues --   -0.48614  -0.48453  -0.48321  -0.48268  -0.48136
 Alpha  occ. eigenvalues --   -0.48014  -0.47690  -0.47281  -0.47240  -0.46857
 Alpha  occ. eigenvalues --   -0.46787  -0.46688  -0.46500  -0.46331  -0.46183
 Alpha  occ. eigenvalues --   -0.46163  -0.46019  -0.45790  -0.45668  -0.45445
 Alpha  occ. eigenvalues --   -0.45143  -0.44946  -0.44532  -0.44491  -0.44252
 Alpha  occ. eigenvalues --   -0.44232  -0.44090  -0.44055  -0.43953  -0.43867
 Alpha  occ. eigenvalues --   -0.43689  -0.43662  -0.43588  -0.43467  -0.43243
 Alpha  occ. eigenvalues --   -0.43077  -0.43049  -0.42892  -0.42641  -0.42567
 Alpha  occ. eigenvalues --   -0.42522  -0.42093  -0.41998  -0.41814  -0.41580
 Alpha  occ. eigenvalues --   -0.41391  -0.41308  -0.41185  -0.41072  -0.40934
 Alpha  occ. eigenvalues --   -0.40764  -0.40647  -0.40545  -0.40484  -0.40429
 Alpha  occ. eigenvalues --   -0.40221  -0.40011  -0.39716  -0.39267  -0.38924
 Alpha  occ. eigenvalues --   -0.38377  -0.37929  -0.37828  -0.37392  -0.37305
 Alpha  occ. eigenvalues --   -0.37245  -0.37147  -0.36892  -0.36711  -0.36479
 Alpha  occ. eigenvalues --   -0.36230  -0.35695  -0.34393  -0.34065  -0.33862
 Alpha  occ. eigenvalues --   -0.33604  -0.33191  -0.32788  -0.31202  -0.31140
 Alpha  occ. eigenvalues --   -0.31014  -0.30603  -0.30162  -0.29658  -0.29305
 Alpha  occ. eigenvalues --   -0.29182  -0.29017  -0.28859  -0.24038  -0.23653
 Alpha  occ. eigenvalues --   -0.21116  -0.20734
 Alpha virt. eigenvalues --   -0.08743  -0.08442  -0.01743  -0.01311  -0.00015
 Alpha virt. eigenvalues --    0.00220   0.02129   0.02563   0.03306   0.04468
 Alpha virt. eigenvalues --    0.04578   0.05062   0.05100   0.05418   0.06106

 Mulliken charges:
               1
     1  Mg   0.736631
     2  C    0.003230
     3  C   -0.091808
     4  C   -0.044168
     5  C   -0.059179
     6  N   -0.248730
     7  C   -0.068265
     8  C   -0.022246
     9  C   -0.082577
    10  C    0.045652
    11  C    0.105266
    12  C    0.038184
    13  C   -0.065589
    14  H    0.035493
    15  N   -0.424085
    16  C    0.168556
    17  C   -0.170919
    18  C   -0.000901
    19  C    0.151246
    20  C    0.108542
    21  C    0.015518
    22  O   -0.250270
    23  C    0.057533
    24  N   -0.335832
    25  C    0.045257
    26  C   -0.028100
    27  C   -0.022518
    28  C    0.072341
    29  C    0.076420
    30  C    0.034912
    31  C   -0.006366
    32  N   -0.313462
    33  C    0.078733
    34  C   -0.171026
    35  C    0.015874
    36  C    0.057918
    37  C    0.128143
    38  C    0.042705
    39  O   -0.188575
    40  C   -0.007236
    41  C    0.221942
    42  O   -0.257893
    43  O   -0.302658
    44  C    0.156292
    45  H   -0.018137
    46  H   -0.016976
    47  H   -0.042178
    48  H   -0.002059
    49  H   -0.003918
    50  H    0.025515
    51  H    0.017802
    52  H    0.016983
    53  H    0.013241
    54  H    0.055455
    55  H    0.019027
    56  H    0.019524
    57  H    0.004863
    58  H    0.025582
    59  H    0.050239
    60  H    0.035874
    61  H    0.033455
    62  H    0.042739
    63  H    0.017183
    64  H    0.009087
    65  H    0.023287
    66  H    0.012241
    67  H    0.004921
    68  H    0.006237
    69  H    0.005331
    70  H    0.008130
    71  H    0.021230
    72  H    0.030854
    73  H    0.046164
    74  H    0.010420
    75  H    0.045605
    76  H    0.036037
    77  H    0.045482
    78  H    0.048153
    79  H    0.052588
    80  Mg   0.836694
    81  C   -0.018022
    82  C   -0.088666
    83  C   -0.046663
    84  C   -0.068268
    85  N   -0.254737
    86  C   -0.049688
    87  C   -0.015160
    88  C   -0.090285
    89  C    0.045353
    90  C    0.114673
    91  C    0.062650
    92  C   -0.077408
    93  H    0.033944
    94  N   -0.423092
    95  C    0.162299
    96  C   -0.175497
    97  C   -0.009246
    98  C    0.152330
    99  C    0.099521
   100  C    0.015500
   101  O   -0.258835
   102  C    0.061933
   103  N   -0.349671
   104  C    0.035747
   105  C   -0.018602
   106  C   -0.031906
   107  C    0.086185
   108  C    0.074434
   109  C    0.028848
   110  C   -0.042622
   111  N   -0.324224
   112  C    0.078862
   113  C   -0.161528
   114  C    0.001616
   115  C    0.096731
   116  C    0.129568
   117  C    0.042351
   118  O   -0.188310
   119  C    0.001031
   120  C    0.211153
   121  O   -0.251554
   122  O   -0.305616
   123  C    0.152283
   124  H   -0.021102
   125  H   -0.018140
   126  H   -0.027661
   127  H   -0.001187
   128  H   -0.005110
   129  H    0.022028
   130  H    0.014265
   131  H    0.015264
   132  H    0.013973
   133  H    0.037386
   134  H    0.020515
   135  H    0.019282
   136  H    0.008293
   137  H    0.024387
   138  H    0.038861
   139  H    0.038383
   140  H    0.031042
   141  H    0.035674
   142  H    0.015872
   143  H    0.017439
   144  H    0.020497
   145  H    0.008798
   146  H    0.006576
   147  H    0.014348
   148  H    0.029875
   149  H    0.027586
   150  H    0.090736
   151  H    0.025433
   152  H    0.045161
   153  H    0.017305
   154  H    0.045979
   155  H    0.034361
   156  H    0.043480
   157  H    0.049227
   158  H    0.053110
 Sum of Mulliken charges =  -0.00000

 Dipole moment (field-independent basis, Debye):
    X=              1.3474    Y=              6.3979    Z=             -3.7982  Tot=              7.5614
 Quadrupole moment (field-independent basis, Debye-Ang):
   XX=           -455.0102   YY=           -538.5176   ZZ=           -484.4893
   XY=            -27.2241   XZ=             -8.2343   YZ=             -3.2397

 Normal termination of Gaussian 16 at Wed Sep  8 15:12:21 2021.
