 Gaussian 16, Revision A.03,
 Gaussian 16:  ES64L-G16RevA.03 25-Dec-2016

 -----------------------------------
 #p cam-b3lyp/Def2SVP td=(nstates=5)
 -----------------------------------

 --------------------------------
 TDDFT excited states in gaussian
 --------------------------------
 Symbolic Z-matrix:
 Charge =  0 Multiplicity = 1

                         Standard orientation:
 ---------------------------------------------------------------------
 Center     Atomic      Atomic             Coordinates (Angstroms)
 Number     Number       Type             X           Y           Z
 ---------------------------------------------------------------------
      1         12           0        3.513198    1.650013    0.459732
      2          6           0        5.084977   -1.088331   -1.226446
      3          6           0        3.698057    3.372467   -2.480004
      4          6           0        2.547011    4.227302    2.034752
      5          6           0        4.475936    0.162493    3.460745
      6          7           0        4.310377    1.103037   -1.531742
      7          6           0        4.831872    0.001441   -2.062496
      8          6           0        5.014619    0.086740   -3.607391
      9          6           0        5.088204    1.671584   -3.765045
     10          6           0        4.288176    2.075044   -2.539036
     11          6           0        6.501005    2.231766   -3.635843
     12          6           0        3.793280   -0.510181   -4.384403
     13          6           0        4.028581   -0.763550   -5.876311
     14          1           0        3.401815   -1.920532   -6.497523
     15          7           0        2.730467    3.338305   -0.203483
     16          6           0        2.897637    3.880133   -1.433833
     17          6           0        2.114952    5.134755   -1.436439
     18          6           0        1.633922    5.373855   -0.047361
     19          6           0        2.315271    4.323040    0.664629
     20          6           0        1.851128    5.937404   -2.673331
     21          6           0        0.715482    6.394797    0.546168
     22          8           0        0.614356    6.566309    1.809074
     23          6           0       -0.006242    7.260511   -0.403935
     24          7           0        3.697173    2.249473    2.450821
     25          6           0        3.137106    3.384058    2.884442
     26          6           0        3.155282    3.464303    4.382163
     27          6           0        3.629318    2.028700    4.896057
     28          6           0        3.893914    1.362237    3.523437
     29          6           0        4.062425    4.546705    4.983422
     30          6           0        2.703361    1.301228    5.902936
     31          6           0        1.408925    0.914852    5.223049
     32          7           0        4.430969   -0.224565    1.055297
     33          6           0        4.760935   -0.625359    2.358048
     34          6           0        5.458541   -1.919708    2.248172
     35          6           0        5.500867   -2.175629    0.879027
     36          6           0        4.893005   -1.096217    0.176413
     37          6           0        6.007656   -2.664822    3.328780
     38          6           0        5.940122   -3.098175   -0.155294
     39          8           0        6.430669   -4.228153   -0.158038
     40          6           0        5.797180   -2.373952   -1.566285
     41          6           0        5.110910   -3.331982   -2.501443
     42          8           0        3.922110   -3.664248   -2.317815
     43          8           0        5.876880   -3.518920   -3.587208
     44          6           0        5.240315   -4.436651   -4.569404
     45          1           0        3.914401    4.087445   -3.276209
     46          1           0        2.129890    5.045408    2.625641
     47          1           0        4.730428   -0.401467    4.359988
     48          1           0        5.931877   -0.367665   -3.982329
     49          1           0        4.590215    2.013880   -4.671997
     50          1           0        7.208229    1.461828   -3.327705
     51          1           0        6.435953    3.013790   -2.879074
     52          1           0        6.805737    2.730242   -4.556406
     53          1           0        3.004866    0.239958   -4.445701
     54          1           0        3.448315   -1.430790   -3.912382
     55          1           0        5.089558   -0.724533   -6.124739
     56          1           0        3.588687    0.061654   -6.436428
     57          1           0        2.469347    5.604614   -3.506158
     58          1           0        2.190504    6.953293   -2.472076
     59          1           0        0.793558    5.948653   -2.937437
     60          1           0        0.714820    7.802128   -1.016528
     61          1           0       -0.682473    7.867879    0.196619
     62          1           0       -0.579570    6.633601   -1.087475
     63          1           0        2.161055    3.673813    4.774647
     64          1           0        4.592304    2.074016    5.405252
     65          1           0        3.537679    5.244930    5.635977
     66          1           0        4.551472    5.070649    4.162686
     67          1           0        4.919310    4.167704    5.539770
     68          1           0        2.446554    1.963702    6.728845
     69          1           0        3.150240    0.401507    6.326081
     70          1           0        0.816111    1.826228    5.292304
     71          1           0        0.928355    0.094938    5.757843
     72          1           0        1.562420    0.705653    4.164200
     73          1           0        5.736903   -3.705429    3.150459
     74          1           0        5.624155   -2.314297    4.286727
     75          1           0        7.069149   -2.453110    3.201237
     76          1           0        6.806284   -2.130700   -1.897432
     77          1           0        5.945325   -5.247004   -4.755211
     78          1           0        4.940508   -3.822172   -5.418484
     79          1           0        4.373242   -4.995369   -4.215342
     80         12           0       -3.644131   -1.797210    0.356647
     81          6           0       -4.702400    0.934620   -1.716098
     82          6           0       -3.750928    0.359990    2.996667
     83          6           0       -2.285563   -4.052846    2.126905
     84          6           0       -2.537253   -3.385425   -2.541295
     85          7           0       -4.174209    0.345657    0.495964
     86          6           0       -4.620381    1.264539   -0.347201
     87          6           0       -5.076160    2.587320    0.325171
     88          6           0       -4.204059    2.486488    1.669845
     89          6           0       -4.058623    0.968424    1.753586
     90          6           0       -2.817044    3.092438    1.534454
     91          6           0       -6.613800    2.600228    0.637398
     92          6           0       -7.183194    3.971328    1.008384
     93          1           0       -8.537738    4.302886    0.575094
     94          7           0       -3.556416   -2.003318    2.328546
     95          6           0       -3.639977   -1.024214    3.253564
     96          6           0       -3.499000   -1.689879    4.557859
     97          6           0       -3.160591   -3.119550    4.320693
     98          6           0       -2.962960   -3.109012    2.885102
     99          6           0       -3.760569   -0.991206    5.860486
    100          6           0       -3.023406   -4.298111    5.236313
    101          8           0       -2.488870   -5.395621    4.845700
    102          6           0       -3.447975   -4.098710    6.629681
    103          7           0       -2.378511   -3.380662   -0.105108
    104          6           0       -1.976513   -4.243871    0.844209
    105          6           0       -1.302666   -5.450029    0.234702
    106          6           0       -1.552134   -5.331305   -1.340492
    107          6           0       -2.282360   -3.970916   -1.379230
    108          6           0        0.196230   -5.581507    0.503835
    109          6           0       -2.217309   -6.547468   -2.041328
    110          6           0       -3.645839   -6.697038   -1.569822
    111          7           0       -3.774598   -1.425070   -1.767628
    112          6           0       -3.218900   -2.204425   -2.805843
    113          6           0       -3.474235   -1.488115   -4.072380
    114          6           0       -4.145883   -0.321219   -3.677756
    115          6           0       -4.280526   -0.301278   -2.263205
    116          6           0       -3.056408   -1.910579   -5.365853
    117          6           0       -4.762191    0.903341   -4.135284
    118          8           0       -5.024665    1.385002   -5.236568
    119          6           0       -5.038084    1.831768   -2.875002
    120          6           0       -6.447684    2.346654   -2.977090
    121          8           0       -7.412845    1.566326   -2.898688
    122          8           0       -6.429996    3.691279   -2.931929
    123          6           0       -7.806108    4.248592   -3.018689
    124          1           0       -3.531840    1.003530    3.849155
    125          1           0       -1.893838   -4.909377    2.680418
    126          1           0       -2.310154   -3.862013   -3.497315
    127          1           0       -4.816440    3.486913   -0.219849
    128          1           0       -4.754879    2.864620    2.527156
    129          1           0       -2.603253    3.386236    0.517536
    130          1           0       -2.127464    2.324316    1.859283
    131          1           0       -2.697634    3.921617    2.237697
    132          1           0       -6.792912    2.061917    1.577023
    133          1           0       -7.171988    2.186203   -0.179693
    134          1           0       -6.490823    4.785532    0.762142
    135          1           0       -7.282347    4.023356    2.095346
    136          1           0       -3.829816    0.095475    5.727282
    137          1           0       -2.870644   -1.132333    6.483371
    138          1           0       -4.628277   -1.393676    6.387519
    139          1           0       -2.875868   -3.284756    7.068568
    140          1           0       -3.358036   -5.077197    7.105456
    141          1           0       -4.497465   -3.783816    6.633972
    142          1           0       -1.753128   -6.367267    0.593693
    143          1           0       -0.610544   -5.198392   -1.893281
    144          1           0        0.470528   -6.537801    0.987909
    145          1           0        0.508416   -4.743664    1.113010
    146          1           0        0.833516   -5.479819   -0.372936
    147          1           0       -1.701674   -7.471132   -1.767234
    148          1           0       -2.205853   -6.481395   -3.124148
    149          1           0       -3.539402   -7.249348   -0.631351
    150          1           0       -4.231526   -7.259172   -2.294392
    151          1           0       -4.085378   -5.721798   -1.330322
    152          1           0       -3.892919   -1.746911   -6.032145
    153          1           0       -2.747702   -2.953872   -5.362909
    154          1           0       -2.213657   -1.233598   -5.529364
    155          1           0       -4.304867    2.638942   -2.895956
    156          1           0       -7.815399    4.947083   -3.861133
    157          1           0       -8.023649    4.664604   -2.017015
    158          1           0       -8.604683    3.570908   -3.297035
 ---------------------------------------------------------------------

 SCF Done:  E(RCAM-B3LYP) =  -4069.81307638     A.U. after   19 cycles

 Excitation energies and oscillator strengths:

 Excited State   1:      Singlet-A      1.6545 eV  749.38 nm  f=0.1718  <S**2>=0.000
     309 -> 315        0.10587
     310 -> 316        0.13118
     311 -> 313       -0.43348
     312 -> 314        0.53299
 This state for optimization and/or second-order correction.
 Total Energy, E(TD-HF/TD-DFT) =  -4069.75227526
 Copying the excited state density for this state as the 1-particle RhoCI density.

 Excited State   2:      Singlet-A      1.6856 eV  735.56 nm  f=0.4828  <S**2>=0.000
     309 -> 315       -0.13679
     310 -> 316        0.11079
     311 -> 313        0.53102
     312 -> 314        0.43198

 Excited State   3:      Singlet-A      2.1799 eV  568.75 nm  f=0.0685  <S**2>=0.000
     309 -> 313        0.27730
     310 -> 314        0.58207
     311 -> 315        0.11487
     312 -> 316       -0.24110

 Excited State   4:      Singlet-A      2.1938 eV  565.17 nm  f=0.1220  <S**2>=0.000
     309 -> 313        0.57759
     310 -> 314       -0.27427
     311 -> 315        0.25195
     312 -> 316        0.12079

 Excited State   5:      Singlet-A      2.2223 eV  557.91 nm  f=0.0000  <S**2>=0.000
     312 -> 313        0.70700

 The electronic state is 1-A.
 Alpha  occ. eigenvalues --  -46.87951 -46.87382 -19.26516 -19.26287 -19.19297
 Alpha  occ. eigenvalues --  -19.19064 -19.19051 -19.18501 -19.18337 -19.17906
 Alpha  occ. eigenvalues --  -14.42596 -14.42221 -14.41617 -14.41029 -14.39563
 Alpha  occ. eigenvalues --  -14.39088 -14.38740 -14.38342 -10.39336 -10.38991
 Alpha  occ. eigenvalues --  -10.35681 -10.35182 -10.34559 -10.34086 -10.31903
 Alpha  occ. eigenvalues --  -10.31720 -10.31539 -10.31060 -10.31053 -10.30771
 Alpha  occ. eigenvalues --  -10.30714 -10.30682 -10.30383 -10.30134 -10.30123
 Alpha  occ. eigenvalues --  -10.30103 -10.29793 -10.29774 -10.29540 -10.29410
 Alpha  occ. eigenvalues --  -10.29174 -10.29158 -10.28869 -10.28629 -10.28523
 Alpha  occ. eigenvalues --  -10.28499 -10.28495 -10.28221 -10.28166 -10.27945
 Alpha  occ. eigenvalues --  -10.27863 -10.27848 -10.27771 -10.27750 -10.27720
 Alpha  occ. eigenvalues --  -10.27681 -10.27566 -10.27566 -10.27392 -10.27341
 Alpha  occ. eigenvalues --  -10.27298 -10.27240 -10.27230 -10.26948 -10.26920
 Alpha  occ. eigenvalues --  -10.26815 -10.26775 -10.26627 -10.26505 -10.26451
 Alpha  occ. eigenvalues --  -10.26328 -10.26260 -10.26178 -10.25950 -10.25702
 Alpha  occ. eigenvalues --  -10.25695 -10.25647 -10.25626 -10.25611 -10.25017
 Alpha  occ. eigenvalues --  -10.24987 -10.24971 -10.24655 -10.24438 -10.24373
 Alpha  occ. eigenvalues --  -10.24365  -3.16693  -3.16133  -1.91575  -1.91161
 Alpha  occ. eigenvalues --   -1.91015  -1.91004  -1.90603  -1.90441  -1.16868
 Alpha  occ. eigenvalues --   -1.16572  -1.08800  -1.08528  -1.07456  -1.06900
 Alpha  occ. eigenvalues --   -1.06852  -1.06753  -1.04729  -1.04231  -1.03926
 Alpha  occ. eigenvalues --   -1.03395  -1.03381  -1.02733  -1.02573  -1.01820
 Alpha  occ. eigenvalues --   -0.92137  -0.91760  -0.89723  -0.89307  -0.89144
 Alpha  occ. eigenvalues --   -0.88878  -0.88492  -0.88007  -0.87817  -0.87783
 Alpha  occ. eigenvalues --   -0.87579  -0.87433  -0.87381  -0.86911  -0.85121
 Alpha  occ. eigenvalues --   -0.84738  -0.84160  -0.83448  -0.83164  -0.82812
 Alpha  occ. eigenvalues --   -0.82671  -0.82386  -0.81768  -0.81417  -0.80769
 Alpha  occ. eigenvalues --   -0.80225  -0.78945  -0.78413  -0.77386  -0.77091
 Alpha  occ. eigenvalues --   -0.76878  -0.76608  -0.76074  -0.75597  -0.75091
 Alpha  occ. eigenvalues --   -0.74312  -0.72930  -0.72429  -0.71834  -0.71219
 Alpha  occ. eigenvalues --   -0.70141  -0.69307  -0.69019  -0.68575  -0.67813
 Alpha  occ. eigenvalues --   -0.67360  -0.67337  -0.66993  -0.65431  -0.65040
 Alpha  occ. eigenvalues --   -0.65028  -0.64799  -0.64519  -0.64464  -0.64396
 Alpha  occ. eigenvalues --   -0.63808  -0.62499  -0.62080  -0.60615  -0.60066
 Alpha  occ. eigenvalues --   -0.59935  -0.59546  -0.59157  -0.58703  -0.58677
 Alpha  occ. eigenvalues --   -0.58161  -0.57772  -0.57503  -0.57400  -0.56925
 Alpha  occ. eigenvalues --   -0.56465  -0.56169  -0.55987  -0.55714  -0.55691
 Alpha  occ. eigenvalues --   -0.55554  -0.55267  -0.54920  -0.54745  -0.54139
 Alpha  occ. eigenvalues --   -0.54022  -0.53648  -0.53475  -0.53385  -0.53109
 Alpha  occ. eigenvalues --   -0.52979  -0.52918  -0.52901  -0.52685  -0.52680
 Alpha  occ. eigenvalues --   -0.52460  -0.52051  -0.52009  -0.51757  -0.51701
 Alpha  occ. eigenvalues --   -0.51450  -0.51369  -0.50963  -0.50732  -0.50262
 Alpha  occ. eigenvalues --   -0.50230  -0.50087  -0.49724  -0.49676  -0.49417
 Alpha  occ. eigenvalues --   -0.49379  -0.49253  -0.49232  -0.48991  -0.48857
 Alpha  occ. eigenvalues --   -0.48761  -0.48661  -0.48635  -0.48344  -0.48139
 Alpha  occ. eigenvalues --   -0.47927  -0.47862  -0.47460  -0.47321  -0.46965
 Alpha  occ. eigenvalues --   -0.46810  -0.46694  -0.46527  -0.46411  -0.46341
 Alpha  occ. eigenvalues --   -0.46258  -0.46006  -0.45983  -0.45744  -0.45585
 Alpha  occ. eigenvalues --   -0.45400  -0.44748  -0.44711  -0.44680  -0.44335
 Alpha  occ. eigenvalues --   -0.44282  -0.44232  -0.44204  -0.44186  -0.43889
 Alpha  occ. eigenvalues --   -0.43766  -0.43743  -0.43676  -0.43543  -0.43363
 Alpha  occ. eigenvalues --   -0.43195  -0.43077  -0.42917  -0.42887  -0.42789
 Alpha  occ. eigenvalues --   -0.42600  -0.42205  -0.42169  -0.41876  -0.41673
 Alpha  occ. eigenvalues --   -0.41653  -0.41401  -0.41299  -0.41174  -0.41041
 Alpha  occ. eigenvalues --   -0.41019  -0.40763  -0.40657  -0.40501  -0.40419
 Alpha  occ. eigenvalues --   -0.40355  -0.40054  -0.40026  -0.39693  -0.38991
 Alpha  occ. eigenvalues --   -0.38664  -0.37908  -0.37881  -0.37507  -0.37417
 Alpha  occ. eigenvalues --   -0.37403  -0.36980  -0.36942  -0.36876  -0.36601
 Alpha  occ. eigenvalues --   -0.36394  -0.35847  -0.34445  -0.34023  -0.33978
 Alpha  occ. eigenvalues --   -0.33729  -0.33355  -0.32897  -0.31576  -0.31205
 Alpha  occ. eigenvalues --   -0.31050  -0.30692  -0.30197  -0.29815  -0.29615
 Alpha  occ. eigenvalues --   -0.29475  -0.29103  -0.28992  -0.24240  -0.23758
 Alpha  occ. eigenvalues --   -0.21284  -0.20834
 Alpha virt. eigenvalues --   -0.08935  -0.08541  -0.01922  -0.01381  -0.00238
 Alpha virt. eigenvalues --    0.00191   0.02023   0.02331   0.02544   0.03615
 Alpha virt. eigenvalues --    0.04576   0.04862   0.05048   0.05279   0.06026

 Mulliken charges:
               1
     1  Mg   0.839090
     2  C   -0.003112
     3  C   -0.092719
     4  C   -0.047217
     5  C   -0.063486
     6  N   -0.256790
     7  C   -0.051966
     8  C   -0.014281
     9  C   -0.087256
    10  C    0.046370
    11  C    0.104662
    12  C    0.053254
    13  C   -0.072076
    14  H    0.035278
    15  N   -0.433263
    16  C    0.168557
    17  C   -0.176615
    18  C   -0.004920
    19  C    0.148940
    20  C    0.109832
    21  C    0.011023
    22  O   -0.251717
    23  C    0.062598
    24  N   -0.341106
    25  C    0.041675
    26  C   -0.027944
    27  C   -0.023822
    28  C    0.074564
    29  C    0.076158
    30  C    0.035179
    31  C   -0.004579
    32  N   -0.310642
    33  C    0.080707
    34  C   -0.169049
    35  C    0.008176
    36  C    0.082998
    37  C    0.127346
    38  C    0.045598
    39  O   -0.188328
    40  C   -0.005431
    41  C    0.213881
    42  O   -0.259704
    43  O   -0.303985
    44  C    0.158030
    45  H   -0.016816
    46  H   -0.017957
    47  H   -0.041217
    48  H    0.001020
    49  H   -0.002943
    50  H    0.025436
    51  H    0.016429
    52  H    0.017322
    53  H    0.012572
    54  H    0.042886
    55  H    0.018105
    56  H    0.019519
    57  H    0.007045
    58  H    0.026910
    59  H    0.041111
    60  H    0.038743
    61  H    0.034520
    62  H    0.031597
    63  H    0.014389
    64  H    0.009989
    65  H    0.022610
    66  H    0.013169
    67  H    0.005207
    68  H    0.005365
    69  H    0.005979
    70  H    0.004715
    71  H    0.017850
    72  H    0.031405
    73  H    0.048201
    74  H    0.009620
    75  H    0.046127
    76  H    0.035770
    77  H    0.043621
    78  H    0.047215
    79  H    0.051689
    80  Mg   0.836786
    81  C   -0.017644
    82  C   -0.088954
    83  C   -0.045415
    84  C   -0.062127
    85  N   -0.255007
    86  C   -0.050180
    87  C   -0.014698
    88  C   -0.090599
    89  C    0.045697
    90  C    0.113831
    91  C    0.062600
    92  C   -0.077424
    93  H    0.033622
    94  N   -0.423676
    95  C    0.163482
    96  C   -0.175131
    97  C   -0.007986
    98  C    0.152469
    99  C    0.099684
   100  C    0.014891
   101  O   -0.252410
   102  C    0.061569
   103  N   -0.350497
   104  C    0.039663
   105  C   -0.021587
   106  C   -0.034952
   107  C    0.089681
   108  C    0.068600
   109  C    0.034332
   110  C   -0.007315
   111  N   -0.323959
   112  C    0.077947
   113  C   -0.163703
   114  C    0.001062
   115  C    0.096401
   116  C    0.132064
   117  C    0.041075
   118  O   -0.190375
   119  C    0.001519
   120  C    0.211271
   121  O   -0.250798
   122  O   -0.306405
   123  C    0.152124
   124  H   -0.019190
   125  H   -0.014594
   126  H   -0.040448
   127  H   -0.002780
   128  H   -0.004572
   129  H    0.018967
   130  H    0.014498
   131  H    0.023814
   132  H    0.013926
   133  H    0.037104
   134  H    0.020512
   135  H    0.019935
   136  H    0.008875
   137  H    0.024531
   138  H    0.039284
   139  H    0.036878
   140  H    0.036084
   141  H    0.033748
   142  H    0.012611
   143  H    0.020083
   144  H    0.022987
   145  H    0.013006
   146  H    0.022405
   147  H    0.006957
   148  H    0.002149
   149  H    0.010734
   150  H    0.016319
   151  H    0.029027
   152  H    0.044896
   153  H    0.008782
   154  H    0.044817
   155  H    0.031903
   156  H    0.042726
   157  H    0.049782
   158  H    0.053601
 Sum of Mulliken charges =  -0.00000

 Dipole moment (field-independent basis, Debye):
    X=              2.3673    Y=              5.1655    Z=              1.1803  Tot=              5.8034
 Quadrupole moment (field-independent basis, Debye-Ang):
   XX=           -525.5007   YY=           -517.1729   ZZ=           -477.7007
   XY=              8.2784   XZ=            -39.3654   YZ=             10.4794

 Normal termination of Gaussian 16 at Fri Sep  3 14:55:52 2021.
