 Gaussian 16, Revision A.03,
 Gaussian 16:  ES64L-G16RevA.03 25-Dec-2016

 -----------------------------------
 #p cam-b3lyp/Def2SVP td=(nstates=5)
 -----------------------------------

 --------------------------------
 TDDFT excited states in gaussian
 --------------------------------
 Symbolic Z-matrix:
 Charge =  0 Multiplicity = 1

                         Standard orientation:
 ---------------------------------------------------------------------
 Center     Atomic      Atomic             Coordinates (Angstroms)
 Number     Number       Type             X           Y           Z
 ---------------------------------------------------------------------
      1         12           0       -4.199081   -1.361313   -0.159152
      2          6           0       -4.908607    2.129976    0.186809
      3          6           0       -4.956761   -1.035163   -3.470136
      4          6           0       -4.020735   -4.518387   -0.399359
      5          6           0       -4.604886   -1.634955    3.291370
      6          7           0       -4.836725    0.378802   -1.369960
      7          6           0       -5.013377    1.674181   -1.129215
      8          6           0       -5.246202    2.516201   -2.419242
      9          6           0       -5.797078    1.365188   -3.375120
     10          6           0       -5.129797    0.167383   -2.722491
     11          6           0       -7.309908    1.184793   -3.302282
     12          6           0       -3.918632    3.134513   -2.973300
     13          6           0       -4.098421    4.227929   -4.030405
     14          1           0       -3.165655    5.344606   -4.048533
     15          7           0       -3.975543   -2.514766   -1.747367
     16          6           0       -4.324327   -2.214877   -3.021613
     17          6           0       -3.956134   -3.394761   -3.833394
     18          6           0       -3.539981   -4.477701   -2.899505
     19          6           0       -3.857842   -3.881304   -1.627242
     20          6           0       -3.972743   -3.400655   -5.331206
     21          6           0       -2.959283   -5.838804   -3.119328
     22          8           0       -2.887630   -6.706966   -2.183521
     23          6           0       -2.552251   -6.164510   -4.498198
     24          7           0       -4.512607   -2.909272    1.205823
     25          6           0       -4.311189   -4.185537    0.860043
     26          6           0       -4.320777   -5.084569    2.060705
     27          6           0       -4.329322   -4.121287    3.334191
     28          6           0       -4.410068   -2.760158    2.599971
     29          6           0       -5.498791   -6.064167    2.153887
     30          6           0       -3.206015   -4.329282    4.380775
     31          6           0       -1.870109   -3.949804    3.782067
     32          7           0       -4.496684    0.009957    1.496775
     33          6           0       -4.662769   -0.324034    2.848640
     34          6           0       -4.940284    0.930168    3.572539
     35          6           0       -4.932721    1.910841    2.582554
     36          6           0       -4.693330    1.304000    1.316565
     37          6           0       -5.216309    1.045969    4.963522
     38          6           0       -5.095631    3.326972    2.296391
     39          8           0       -5.222981    4.341457    2.983483
     40          6           0       -5.207566    3.509662    0.718442
     41          6           0       -4.284690    4.630406    0.324055
     42          8           0       -3.047389    4.507974    0.431117
     43          8           0       -4.981731    5.569753   -0.333443
     44          6           0       -4.119380    6.696741   -0.778866
     45          1           0       -5.395327   -1.104300   -4.467543
     46          1           0       -3.856915   -5.597803   -0.420849
     47          1           0       -4.658470   -1.631276    4.381584
     48          1           0       -5.991761    3.305151   -2.318631
     49          1           0       -5.444761    1.483665   -4.399600
     50          1           0       -7.745643    1.791015   -2.508209
     51          1           0       -7.467321    0.124801   -3.101955
     52          1           0       -7.770174    1.378125   -4.271588
     53          1           0       -3.394275    2.386272   -3.567645
     54          1           0       -3.302419    3.517874   -2.159272
     55          1           0       -5.126916    4.588835   -4.059601
     56          1           0       -3.939552    3.782789   -5.012653
     57          1           0       -4.479609   -2.522620   -5.729561
     58          1           0       -4.597982   -4.238392   -5.639398
     59          1           0       -2.973556   -3.513257   -5.752249
     60          1           0       -3.415845   -6.078953   -5.158073
     61          1           0       -2.077734   -7.143892   -4.448256
     62          1           0       -1.831419   -5.420561   -4.838623
     63          1           0       -3.427703   -5.707457    2.089972
     64          1           0       -5.250156   -4.213473    3.910593
     65          1           0       -5.194947   -7.108701    2.226914
     66          1           0       -6.140313   -5.903127    1.287973
     67          1           0       -6.189666   -5.871528    2.974253
     68          1           0       -3.143140   -5.378871    4.666003
     69          1           0       -3.352015   -3.746586    5.290390
     70          1           0       -1.578004   -4.852555    3.246765
     71          1           0       -1.153613   -3.713780    4.569555
     72          1           0       -1.975986   -3.153694    3.044854
     73          1           0       -4.648555    1.906787    5.316533
     74          1           0       -4.935881    0.139594    5.499662
     75          1           0       -6.294739    1.202260    4.943059
     76          1           0       -6.249891    3.742622    0.503012
     77          1           0       -4.551355    7.611425   -0.372683
     78          1           0       -4.036745    6.614083   -1.862722
     79          1           0       -3.116949    6.734936   -0.351068
     80         12           0        4.706436   -0.115026    0.300063
     81          6           0        3.261744    3.166283    0.457992
     82          6           0        4.724264    0.218946   -3.094451
     83          6           0        5.556349   -3.165692    0.103794
     84          6           0        3.534526   -0.635624    3.540635
     85          7           0        4.052024    1.527776   -1.028548
     86          6           0        3.575933    2.751222   -0.852908
     87          6           0        3.503558    3.605178   -2.147154
     88          6           0        3.434093    2.411575   -3.219227
     89          6           0        4.144547    1.322178   -2.418512
     90          6           0        2.017309    1.944412   -3.508783
     91          6           0        4.784089    4.488305   -2.352953
     92          6           0        4.652074    5.572554   -3.424739
     93          1           0        5.330985    6.847830   -3.212028
     94          7           0        5.535232   -1.123685   -1.194688
     95          6           0        5.460634   -0.835400   -2.510971
     96          6           0        6.220508   -1.891346   -3.197796
     97          6           0        6.610994   -2.917374   -2.193054
     98          6           0        5.882251   -2.442127   -1.034095
     99          6           0        6.576797   -1.821192   -4.654356
    100          6           0        7.484246   -4.133173   -2.266899
    101          8           0        7.492939   -5.013550   -1.335400
    102          6           0        8.258838   -4.309820   -3.503950
    103          7           0        4.385926   -1.750746    1.542667
    104          6           0        4.908978   -2.954329    1.249894
    105          6           0        4.781174   -3.903289    2.417597
    106          6           0        4.278539   -3.009323    3.644691
    107          6           0        4.109877   -1.656124    2.919569
    108          6           0        3.823811   -5.078095    2.218384
    109          6           0        5.131661   -3.051433    4.942030
    110          6           0        6.477594   -2.408634    4.695738
    111          7           0        3.762986    1.089946    1.825177
    112          6           0        3.331866    0.666457    3.101458
    113          6           0        2.647265    1.813433    3.732495
    114          6           0        2.707860    2.825612    2.762794
    115          6           0        3.364784    2.337230    1.601149
    116          6           0        2.033338    1.811911    5.016710
    117          6           0        2.356091    4.192874    2.453706
    118          8           0        1.864590    5.127411    3.085228
    119          6           0        2.587176    4.435241    0.899921
    120          6           0        3.345061    5.724460    0.738582
    121          8           0        4.510549    5.829429    1.159586
    122          8           0        2.652712    6.543944   -0.073503
    123          6           0        3.369426    7.831707   -0.273021
    124          1           0        4.565823    0.127531   -4.169362
    125          1           0        5.925485   -4.193557    0.130761
    126          1           0        3.227739   -0.687207    4.587485
    127          1           0        2.623015    4.230945   -2.229846
    128          1           0        3.997180    2.653611   -4.116846
    129          1           0        1.296880    2.413791   -2.855477
    130          1           0        2.024046    0.872988   -3.356951
    131          1           0        1.778337    2.097622   -4.565072
    132          1           0        5.574148    3.873893   -2.803557
    133          1           0        5.094043    4.931663   -1.426672
    134          1           0        3.608155    5.737176   -3.718144
    135          1           0        5.134572    5.217656   -4.338662
    136          1           0        6.012582   -1.033648   -5.168994
    137          1           0        6.226201   -2.751376   -5.114460
    138          1           0        7.652069   -1.727896   -4.820949
    139          1           0        7.579856   -4.352025   -4.352270
    140          1           0        8.888275   -5.185130   -3.332134
    141          1           0        8.890693   -3.426654   -3.650209
    142          1           0        5.740696   -4.338081    2.669389
    143          1           0        3.276855   -3.310559    3.984865
    144          1           0        4.305684   -6.063337    2.363848
    145          1           0        3.396994   -5.006231    1.226818
    146          1           0        2.938839   -5.065266    2.852316
    147          1           0        5.330244   -4.086349    5.231276
    148          1           0        4.655896   -2.566300    5.787779
    149          1           0        7.058590   -3.218037    4.243623
    150          1           0        6.922118   -2.079437    5.632788
    151          1           0        6.400070   -1.604692    3.954578
    152          1           0        2.314526    2.739514    5.497321
    153          1           0        2.341970    0.949520    5.603909
    154          1           0        0.979951    1.757071    4.729242
    155          1           0        1.606093    4.474928    0.425083
    156          1           0        2.677596    8.630024    0.012897
    157          1           0        3.718646    7.819745   -1.322615
    158          1           0        4.213152    8.041203    0.374046
 ---------------------------------------------------------------------

 SCF Done:  E(RCAM-B3LYP) =  -4069.81075966     A.U. after   19 cycles

 Excitation energies and oscillator strengths:

 Excited State   1:      Singlet-A      1.6466 eV  752.95 nm  f=0.0245  <S**2>=0.000
     309 -> 315       -0.11512
     310 -> 316        0.12030
     311 -> 313       -0.47361
     312 -> 314        0.49867
 This state for optimization and/or second-order correction.
 Total Energy, E(TD-HF/TD-DFT) =  -4069.75024668
 Copying the excited state density for this state as the 1-particle RhoCI density.

 Excited State   2:      Singlet-A      1.7065 eV  726.54 nm  f=0.6754  <S**2>=0.000
     309 -> 315        0.13228
     310 -> 316        0.12455
     311 -> 313        0.49595
     312 -> 314        0.47113

 Excited State   3:      Singlet-A      2.1806 eV  568.57 nm  f=0.0095  <S**2>=0.000
     309 -> 313        0.34287
     310 -> 314        0.54618
     311 -> 315       -0.14205
     312 -> 316       -0.22805

 Excited State   4:      Singlet-A      2.1968 eV  564.38 nm  f=0.1629  <S**2>=0.000
     309 -> 313        0.54119
     310 -> 314       -0.33801
     311 -> 315       -0.23970
     312 -> 316        0.15074

 Excited State   5:      Singlet-A      2.3480 eV  528.03 nm  f=0.0000  <S**2>=0.000
     312 -> 313        0.70704

 The electronic state is 1-A.
 Alpha  occ. eigenvalues --  -46.87834 -46.87390 -19.26196 -19.26009 -19.18923
 Alpha  occ. eigenvalues --  -19.18844 -19.18815 -19.18481 -19.18113 -19.17590
 Alpha  occ. eigenvalues --  -14.42496 -14.42240 -14.41491 -14.41089 -14.39439
 Alpha  occ. eigenvalues --  -14.39081 -14.38612 -14.38304 -10.38994 -10.38731
 Alpha  occ. eigenvalues --  -10.35479 -10.35165 -10.34336 -10.33763 -10.31576
 Alpha  occ. eigenvalues --  -10.31495 -10.31441 -10.31022 -10.30956 -10.30763
 Alpha  occ. eigenvalues --  -10.30597 -10.30533 -10.30262 -10.30103 -10.30056
 Alpha  occ. eigenvalues --  -10.29952 -10.29917 -10.29656 -10.29607 -10.29295
 Alpha  occ. eigenvalues --  -10.29188 -10.29109 -10.28826 -10.28690 -10.28509
 Alpha  occ. eigenvalues --  -10.28479 -10.28388 -10.28184 -10.28102 -10.27924
 Alpha  occ. eigenvalues --  -10.27807 -10.27773 -10.27690 -10.27615 -10.27574
 Alpha  occ. eigenvalues --  -10.27553 -10.27506 -10.27431 -10.27421 -10.27318
 Alpha  occ. eigenvalues --  -10.27283 -10.27189 -10.27186 -10.27148 -10.27124
 Alpha  occ. eigenvalues --  -10.26840 -10.26569 -10.26494 -10.26453 -10.26299
 Alpha  occ. eigenvalues --  -10.26287 -10.26241 -10.26065 -10.25974 -10.25837
 Alpha  occ. eigenvalues --  -10.25825 -10.25681 -10.25488 -10.25481 -10.25164
 Alpha  occ. eigenvalues --  -10.24849 -10.24840 -10.24821 -10.24565 -10.24542
 Alpha  occ. eigenvalues --  -10.24409  -3.16576  -3.16141  -1.91458  -1.91045
 Alpha  occ. eigenvalues --   -1.91023  -1.90886  -1.90612  -1.90448  -1.16544
 Alpha  occ. eigenvalues --   -1.16301  -1.08560  -1.08178  -1.07244  -1.06738
 Alpha  occ. eigenvalues --   -1.06594  -1.06546  -1.04623  -1.04226  -1.03802
 Alpha  occ. eigenvalues --   -1.03391  -1.03265  -1.02763  -1.02444  -1.01828
 Alpha  occ. eigenvalues --   -0.91983  -0.91652  -0.89577  -0.89260  -0.89243
 Alpha  occ. eigenvalues --   -0.88925  -0.88344  -0.87982  -0.87881  -0.87726
 Alpha  occ. eigenvalues --   -0.87475  -0.87426  -0.87315  -0.86880  -0.85048
 Alpha  occ. eigenvalues --   -0.84765  -0.83997  -0.83638  -0.83014  -0.82715
 Alpha  occ. eigenvalues --   -0.82694  -0.82413  -0.81573  -0.81297  -0.80613
 Alpha  occ. eigenvalues --   -0.80165  -0.78831  -0.78370  -0.77275  -0.76979
 Alpha  occ. eigenvalues --   -0.76907  -0.76649  -0.75944  -0.75569  -0.74939
 Alpha  occ. eigenvalues --   -0.74548  -0.72807  -0.72418  -0.71706  -0.71314
 Alpha  occ. eigenvalues --   -0.69992  -0.69549  -0.68928  -0.68587  -0.67666
 Alpha  occ. eigenvalues --   -0.67320  -0.67297  -0.66978  -0.65341  -0.65014
 Alpha  occ. eigenvalues --   -0.64878  -0.64652  -0.64503  -0.64386  -0.64321
 Alpha  occ. eigenvalues --   -0.63957  -0.62268  -0.61976  -0.60483  -0.60090
 Alpha  occ. eigenvalues --   -0.59858  -0.59545  -0.59018  -0.58712  -0.58525
 Alpha  occ. eigenvalues --   -0.58131  -0.57559  -0.57328  -0.57173  -0.56948
 Alpha  occ. eigenvalues --   -0.56333  -0.55956  -0.55927  -0.55598  -0.55550
 Alpha  occ. eigenvalues --   -0.55363  -0.55192  -0.54976  -0.54526  -0.54215
 Alpha  occ. eigenvalues --   -0.53963  -0.53684  -0.53332  -0.53265  -0.52971
 Alpha  occ. eigenvalues --   -0.52922  -0.52885  -0.52809  -0.52635  -0.52517
 Alpha  occ. eigenvalues --   -0.52457  -0.52190  -0.51910  -0.51673  -0.51537
 Alpha  occ. eigenvalues --   -0.51426  -0.51213  -0.50895  -0.50629  -0.50273
 Alpha  occ. eigenvalues --   -0.50104  -0.49966  -0.49755  -0.49635  -0.49558
 Alpha  occ. eigenvalues --   -0.49250  -0.49226  -0.49136  -0.48925  -0.48815
 Alpha  occ. eigenvalues --   -0.48599  -0.48496  -0.48446  -0.48275  -0.48127
 Alpha  occ. eigenvalues --   -0.48050  -0.47734  -0.47348  -0.47328  -0.46877
 Alpha  occ. eigenvalues --   -0.46845  -0.46617  -0.46461  -0.46392  -0.46328
 Alpha  occ. eigenvalues --   -0.46174  -0.46013  -0.45811  -0.45793  -0.45508
 Alpha  occ. eigenvalues --   -0.45250  -0.44953  -0.44578  -0.44566  -0.44272
 Alpha  occ. eigenvalues --   -0.44199  -0.44193  -0.44144  -0.44018  -0.43870
 Alpha  occ. eigenvalues --   -0.43832  -0.43638  -0.43488  -0.43436  -0.43279
 Alpha  occ. eigenvalues --   -0.43119  -0.43052  -0.42752  -0.42641  -0.42611
 Alpha  occ. eigenvalues --   -0.42574  -0.42324  -0.42070  -0.41730  -0.41718
 Alpha  occ. eigenvalues --   -0.41601  -0.41329  -0.41229  -0.41177  -0.40943
 Alpha  occ. eigenvalues --   -0.40876  -0.40726  -0.40628  -0.40504  -0.40483
 Alpha  occ. eigenvalues --   -0.40338  -0.40251  -0.40022  -0.39541  -0.39224
 Alpha  occ. eigenvalues --   -0.38537  -0.38125  -0.37837  -0.37441  -0.37377
 Alpha  occ. eigenvalues --   -0.37320  -0.37024  -0.36947  -0.36681  -0.36465
 Alpha  occ. eigenvalues --   -0.36191  -0.35952  -0.34318  -0.33974  -0.33697
 Alpha  occ. eigenvalues --   -0.33524  -0.33207  -0.32896  -0.31374  -0.31067
 Alpha  occ. eigenvalues --   -0.31040  -0.30693  -0.29971  -0.29491  -0.29476
 Alpha  occ. eigenvalues --   -0.29330  -0.29054  -0.28872  -0.24115  -0.23751
 Alpha  occ. eigenvalues --   -0.21165  -0.20844
 Alpha virt. eigenvalues --   -0.08803  -0.08502  -0.01790  -0.01421  -0.00087
 Alpha virt. eigenvalues --    0.00240   0.02207   0.02558   0.02930   0.03542
 Alpha virt. eigenvalues --    0.04653   0.04974   0.05169   0.05524   0.06071

 Mulliken charges:
               1
     1  Mg   0.838536
     2  C   -0.002998
     3  C   -0.094815
     4  C   -0.045713
     5  C   -0.064372
     6  N   -0.256550
     7  C   -0.052974
     8  C   -0.013617
     9  C   -0.086871
    10  C    0.045836
    11  C    0.104817
    12  C    0.053597
    13  C   -0.071242
    14  H    0.034856
    15  N   -0.433102
    16  C    0.168097
    17  C   -0.177625
    18  C   -0.004042
    19  C    0.148690
    20  C    0.110301
    21  C    0.012511
    22  O   -0.249413
    23  C    0.062541
    24  N   -0.341032
    25  C    0.041012
    26  C   -0.028218
    27  C   -0.023931
    28  C    0.074888
    29  C    0.076115
    30  C    0.035238
    31  C   -0.004921
    32  N   -0.310652
    33  C    0.080494
    34  C   -0.169731
    35  C    0.009351
    36  C    0.083144
    37  C    0.126898
    38  C    0.047667
    39  O   -0.185946
    40  C   -0.005952
    41  C    0.213825
    42  O   -0.255847
    43  O   -0.305345
    44  C    0.156505
    45  H   -0.017874
    46  H   -0.016833
    47  H   -0.041570
    48  H    0.001474
    49  H   -0.004790
    50  H    0.025774
    51  H    0.016619
    52  H    0.016501
    53  H    0.009709
    54  H    0.043624
    55  H    0.018801
    56  H    0.017061
    57  H    0.005393
    58  H    0.026930
    59  H    0.038469
    60  H    0.037161
    61  H    0.036021
    62  H    0.030888
    63  H    0.016350
    64  H    0.009758
    65  H    0.023272
    66  H    0.012735
    67  H    0.004815
    68  H    0.006367
    69  H    0.004719
    70  H    0.008797
    71  H    0.015687
    72  H    0.030262
    73  H    0.049249
    74  H    0.008537
    75  H    0.046224
    76  H    0.035072
    77  H    0.043531
    78  H    0.044705
    79  H    0.056680
    80  Mg   0.836874
    81  C   -0.015773
    82  C   -0.088221
    83  C   -0.045716
    84  C   -0.065615
    85  N   -0.254280
    86  C   -0.049348
    87  C   -0.014918
    88  C   -0.090697
    89  C    0.045367
    90  C    0.113453
    91  C    0.062695
    92  C   -0.077120
    93  H    0.034220
    94  N   -0.423296
    95  C    0.162339
    96  C   -0.175711
    97  C   -0.008364
    98  C    0.151614
    99  C    0.099839
   100  C    0.015048
   101  O   -0.253764
   102  C    0.061455
   103  N   -0.350169
   104  C    0.037278
   105  C   -0.019665
   106  C   -0.034717
   107  C    0.089576
   108  C    0.073525
   109  C    0.034843
   110  C   -0.007523
   111  N   -0.324693
   112  C    0.079123
   113  C   -0.162705
   114  C    0.004970
   115  C    0.095218
   116  C    0.130804
   117  C    0.047542
   118  O   -0.183857
   119  C   -0.001493
   120  C    0.210467
   121  O   -0.252358
   122  O   -0.304474
   123  C    0.152432
   124  H   -0.021510
   125  H   -0.016118
   126  H   -0.041225
   127  H    0.000559
   128  H   -0.005603
   129  H    0.026221
   130  H    0.013470
   131  H    0.013105
   132  H    0.013500
   133  H    0.037927
   134  H    0.019964
   135  H    0.018733
   136  H    0.007619
   137  H    0.024686
   138  H    0.038980
   139  H    0.037564
   140  H    0.035724
   141  H    0.033526
   142  H    0.013824
   143  H    0.011615
   144  H    0.024553
   145  H    0.012815
   146  H    0.005185
   147  H    0.005607
   148  H    0.003012
   149  H    0.010791
   150  H    0.017457
   151  H    0.030547
   152  H    0.046096
   153  H    0.006422
   154  H    0.051020
   155  H    0.045191
   156  H    0.043269
   157  H    0.048064
   158  H    0.053082
 Sum of Mulliken charges =  -0.00000

 Dipole moment (field-independent basis, Debye):
    X=             -2.4298    Y=             -2.1151    Z=             -7.7786  Tot=              8.4192
 Quadrupole moment (field-independent basis, Debye-Ang):
   XX=           -510.6140   YY=           -544.1227   ZZ=           -454.1292
   XY=             11.6417   XZ=              0.1932   YZ=            -51.4737

 Normal termination of Gaussian 16 at Fri Sep 10 03:35:04 2021.
