 Gaussian 16, Revision A.03,
 Gaussian 16:  ES64L-G16RevA.03 25-Dec-2016

 -----------------------------------
 #p cam-b3lyp/Def2SVP td=(nstates=5)
 -----------------------------------

 --------------------------------
 TDDFT excited states in gaussian
 --------------------------------
 Symbolic Z-matrix:
 Charge =  0 Multiplicity = 1

                         Standard orientation:
 ---------------------------------------------------------------------
 Center     Atomic      Atomic             Coordinates (Angstroms)
 Number     Number       Type             X           Y           Z
 ---------------------------------------------------------------------
      1         12           0        4.420259   -0.533600   -0.497609
      2          6           0        4.525068    2.964124    0.255486
      3          6           0        5.634358   -1.094133    2.641632
      4          6           0        4.765886   -3.583772   -1.293609
      5          6           0        4.311029    0.345849   -3.868113
      6          7           0        4.968762    0.842222    1.147659
      7          6           0        4.905355    2.157434    1.330325
      8          6           0        5.208490    2.593062    2.795149
      9          6           0        6.072922    1.335832    3.257891
     10          6           0        5.501251    0.288876    2.318211
     11          6           0        7.564674    1.485579    2.977263
     12          6           0        3.906930    2.740423    3.653029
     13          6           0        4.083069    3.471176    4.987319
     14          1           0        3.005698    4.323952    5.466267
     15          7           0        4.629827   -2.137772    0.636219
     16          6           0        5.126269   -2.179838    1.896006
     17          6           0        5.075706   -3.599471    2.306819
     18          6           0        4.686920   -4.404321    1.115535
     19          6           0        4.704404   -3.397422    0.085377
     20          6           0        5.330179   -4.059743    3.709368
     21          6           0        4.362884   -5.853320    0.932410
     22          8           0        4.277098   -6.390138   -0.224760
     23          6           0        4.234022   -6.658001    2.160792
     24          7           0        4.745892   -1.497385   -2.320441
     25          6           0        4.798869   -2.831744   -2.395703
     26          6           0        4.755069   -3.300464   -3.819894
     27          6           0        4.414658   -2.011747   -4.699146
     28          6           0        4.402177   -0.952145   -3.569829
     29          6           0        6.038881   -3.954637   -4.348947
     30          6           0        3.184724   -2.104992   -5.636688
     31          6           0        1.918536   -2.195468   -4.814690
     32          7           0        4.238989    1.308717   -1.630768
     33          6           0        4.237708    1.443336   -3.026673
     34          6           0        4.202405    2.887631   -3.321349
     35          6           0        4.202340    3.497246   -2.068266
     36          6           0        4.262004    2.497865   -1.055364
     37          6           0        4.233566    3.474823   -4.616983
     38          6           0        4.190614    4.761168   -1.349783
     39          8           0        4.051220    5.941492   -1.673663
     40          6           0        4.522014    4.470745    0.180464
     41          6           0        3.513298    5.214185    1.012990
     42          8           0        2.308005    4.891098    0.997175
     43          8           0        4.154194    6.024627    1.869131
     44          6           0        3.211656    6.770103    2.745512
     45          1           0        6.230798   -1.377874    3.510938
     46          1           0        4.774123   -4.628189   -1.612300
     47          1           0        4.189963    0.693129   -4.895825
     48          1           0        5.799510    3.504665    2.885145
     49          1           0        5.873520    1.064118    4.294295
     50          1           0        7.771430    2.378434    2.387362
     51          1           0        7.848161    0.589855    2.424266
     52          1           0        8.137795    1.459248    3.904418
     53          1           0        3.603731    1.758991    4.017615
     54          1           0        3.118329    3.226185    3.077295
     55          1           0        5.035957    3.999497    5.029650
     56          1           0        4.151653    2.724973    5.778948
     57          1           0        5.753839   -3.264344    4.321248
     58          1           0        6.116725   -4.812462    3.659691
     59          1           0        4.439363   -4.488640    4.168525
     60          1           0        5.167993   -6.611337    2.721212
     61          1           0        3.912592   -7.648061    1.839368
     62          1           0        3.471321   -6.209697    2.798177
     63          1           0        3.974235   -4.046428   -3.962237
     64          1           0        5.235655   -1.741480   -5.363671
     65          1           0        5.890224   -4.965003   -4.730740
     66          1           0        6.777358   -3.944029   -3.547804
     67          1           0        6.553443   -3.389285   -5.125491
     68          1           0        3.238276   -3.008099   -6.243710
     69          1           0        3.094117   -1.255334   -6.313535
     70          1           0        1.856112   -3.257446   -4.579876
     71          1           0        1.058787   -1.874708   -5.403889
     72          1           0        2.017225   -1.658374   -3.871145
     73          1           0        3.492474    4.273987   -4.607590
     74          1           0        4.013284    2.739390   -5.390428
     75          1           0        5.264989    3.824902   -4.655268
     76          1           0        5.537422    4.825593    0.354110
     77          1           0        3.429168    7.831044    2.621714
     78          1           0        3.315420    6.345496    3.744185
     79          1           0        2.160152    6.740662    2.457745
     80         12           0       -4.529391   -0.969731    0.381046
     81          6           0       -4.609478    2.393828   -0.867599
     82          6           0       -3.421743    0.314114    3.340692
     83          6           0       -4.018243   -3.942511    1.365282
     84          6           0       -4.530210   -2.051921   -2.931747
     85          7           0       -4.109661    1.102599    1.030285
     86          6           0       -4.235590    2.305125    0.489526
     87          6           0       -4.022396    3.481253    1.479888
     88          6           0       -3.114892    2.720655    2.564693
     89          6           0       -3.598250    1.291205    2.328632
     90          6           0       -1.628584    2.779754    2.253649
     91          6           0       -5.368891    3.984561    2.108891
     92          6           0       -5.274569    5.323647    2.843534
     93          1           0       -6.413804    6.234900    2.778645
     94          7           0       -4.298726   -1.693815    2.214371
     95          6           0       -3.860433   -1.027701    3.303173
     96          6           0       -3.850770   -2.009552    4.398635
     97          6           0       -4.161855   -3.349372    3.830441
     98          6           0       -4.150952   -3.043948    2.413867
     99          6           0       -3.643478   -1.624494    5.834662
    100          6           0       -4.413290   -4.687144    4.457613
    101          8           0       -4.428857   -5.764219    3.762994
    102          6           0       -4.547872   -4.710041    5.921456
    103          7           0       -4.092968   -2.733899   -0.628706
    104          6           0       -3.971316   -3.897655    0.033706
    105          6           0       -3.931960   -5.067123   -0.920857
    106          6           0       -4.297196   -4.462905   -2.355812
    107          6           0       -4.401671   -2.968051   -1.981815
    108          6           0       -2.599628   -5.811403   -1.006466
    109          6           0       -5.482663   -5.119519   -3.114908
    110          6           0       -6.778361   -4.842711   -2.386948
    111          7           0       -4.748598   -0.042462   -1.558064
    112          6           0       -4.691669   -0.676985   -2.818311
    113          6           0       -4.779282    0.382862   -3.843729
    114          6           0       -4.858560    1.571815   -3.103053
    115          6           0       -4.802535    1.275550   -1.714316
    116          6           0       -4.730624    0.183624   -5.252298
    117          6           0       -4.966191    3.010955   -3.180370
    118          8           0       -5.137023    3.821670   -4.089928
    119          6           0       -4.682355    3.617127   -1.738719
    120          6           0       -5.756200    4.627105   -1.439853
    121          8           0       -6.939963    4.270183   -1.306007
    122          8           0       -5.181390    5.808000   -1.147514
    123          6           0       -6.205684    6.839398   -0.833115
    124          1           0       -2.856816    0.587027    4.232460
    125          1           0       -3.950533   -4.994610    1.651628
    126          1           0       -4.635721   -2.315324   -3.986335
    127          1           0       -3.482801    4.327157    1.071158
    128          1           0       -3.354202    3.042131    3.575009
    129          1           0       -1.436344    3.223990    1.288333
    130          1           0       -1.282793    1.754548    2.273961
    131          1           0       -1.095193    3.293732    3.058423
    132          1           0       -5.639693    3.329265    2.946737
    133          1           0       -6.141482    4.033400    1.366362
    134          1           0       -4.343430    5.855489    2.613166
    135          1           0       -5.212510    5.127111    3.916642
    136          1           0       -3.274756   -0.595374    5.925977
    137          1           0       -2.822921   -2.241855    6.216004
    138          1           0       -4.529929   -1.796203    6.448972
    139          1           0       -3.643407   -4.310038    6.373569
    140          1           0       -4.812345   -5.738567    6.174560
    141          1           0       -5.365944   -4.039797    6.208094
    142          1           0       -4.673434   -5.809879   -0.653238
    143          1           0       -3.458021   -4.552452   -3.061221
    144          1           0       -2.687401   -6.890889   -0.780470
    145          1           0       -1.899754   -5.337223   -0.331284
    146          1           0       -2.087048   -5.732151   -1.963643
    147          1           0       -5.364118   -6.205645   -3.135459
    148          1           0       -5.574842   -4.786111   -4.143174
    149          1           0       -6.797088   -5.616445   -1.613591
    150          1           0       -7.625682   -4.939536   -3.062747
    151          1           0       -6.745407   -3.871107   -1.880428
    152          1           0       -5.498861    0.812381   -5.682390
    153          1           0       -4.880752   -0.862391   -5.511301
    154          1           0       -3.710187    0.515840   -5.461129
    155          1           0       -3.690219    4.069510   -1.763070
    156          1           0       -6.027532    7.682622   -1.507585
    157          1           0       -6.111003    7.033463    0.251841
    158          1           0       -7.239434    6.603854   -1.057481
 ---------------------------------------------------------------------

 SCF Done:  E(RCAM-B3LYP) =  -4069.81215662     A.U. after   19 cycles

 Excitation energies and oscillator strengths:

 Excited State   1:      Singlet-A      1.6510 eV  750.96 nm  f=0.0492  <S**2>=0.000
     309 -> 315       -0.11126
     310 -> 316        0.12499
     311 -> 313       -0.45396
     312 -> 314        0.51629
 This state for optimization and/or second-order correction.
 Total Energy, E(TD-HF/TD-DFT) =  -4069.75148324
 Copying the excited state density for this state as the 1-particle RhoCI density.

 Excited State   2:      Singlet-A      1.6983 eV  730.04 nm  f=0.6449  <S**2>=0.000
     309 -> 315        0.13589
     310 -> 316        0.11737
     311 -> 313        0.51392
     312 -> 314        0.45189

 Excited State   3:      Singlet-A      2.1796 eV  568.83 nm  f=0.0371  <S**2>=0.000
     309 -> 313       -0.26352
     310 -> 314        0.58884
     311 -> 315        0.10849
     312 -> 316       -0.24329

 Excited State   4:      Singlet-A      2.1967 eV  564.42 nm  f=0.1425  <S**2>=0.000
     309 -> 313        0.58371
     310 -> 314        0.25932
     311 -> 315       -0.25760
     312 -> 316       -0.11544

 Excited State   5:      Singlet-A      2.3364 eV  530.65 nm  f=0.0000  <S**2>=0.000
     312 -> 313        0.70709

 The electronic state is 1-A.
 Alpha  occ. eigenvalues --  -46.87919 -46.87405 -19.26571 -19.26002 -19.19328
 Alpha  occ. eigenvalues --  -19.18885 -19.18843 -19.18563 -19.18297 -19.17773
 Alpha  occ. eigenvalues --  -14.42587 -14.42209 -14.41569 -14.41108 -14.39519
 Alpha  occ. eigenvalues --  -14.39110 -14.38707 -14.38346 -10.39366 -10.38764
 Alpha  occ. eigenvalues --  -10.35515 -10.35247 -10.34526 -10.33939 -10.31997
 Alpha  occ. eigenvalues --  -10.31550 -10.31432 -10.31062 -10.30993 -10.30727
 Alpha  occ. eigenvalues --  -10.30694 -10.30618 -10.30313 -10.30161 -10.30106
 Alpha  occ. eigenvalues --  -10.30033 -10.29920 -10.29738 -10.29648 -10.29360
 Alpha  occ. eigenvalues --  -10.29211 -10.29178 -10.28969 -10.28892 -10.28492
 Alpha  occ. eigenvalues --  -10.28348 -10.28303 -10.28290 -10.28143 -10.27899
 Alpha  occ. eigenvalues --  -10.27857 -10.27765 -10.27688 -10.27659 -10.27596
 Alpha  occ. eigenvalues --  -10.27581 -10.27549 -10.27545 -10.27395 -10.27344
 Alpha  occ. eigenvalues --  -10.27338 -10.27314 -10.27255 -10.27203 -10.27152
 Alpha  occ. eigenvalues --  -10.27022 -10.26698 -10.26432 -10.26393 -10.26359
 Alpha  occ. eigenvalues --  -10.26335 -10.26276 -10.26127 -10.25968 -10.25886
 Alpha  occ. eigenvalues --  -10.25702 -10.25671 -10.25522 -10.25242 -10.25144
 Alpha  occ. eigenvalues --  -10.24944 -10.24905 -10.24794 -10.24627 -10.24571
 Alpha  occ. eigenvalues --  -10.24446  -3.16662  -3.16155  -1.91544  -1.91131
 Alpha  occ. eigenvalues --   -1.91038  -1.90972  -1.90626  -1.90463  -1.16920
 Alpha  occ. eigenvalues --   -1.16304  -1.08765  -1.08370  -1.07283  -1.06934
 Alpha  occ. eigenvalues --   -1.06821  -1.06626  -1.04721  -1.04205  -1.03882
 Alpha  occ. eigenvalues --   -1.03403  -1.03349  -1.02795  -1.02530  -1.01858
 Alpha  occ. eigenvalues --   -0.92116  -0.91698  -0.89632  -0.89387  -0.89266
 Alpha  occ. eigenvalues --   -0.88731  -0.88398  -0.87991  -0.87967  -0.87818
 Alpha  occ. eigenvalues --   -0.87565  -0.87408  -0.87366  -0.86946  -0.85169
 Alpha  occ. eigenvalues --   -0.84658  -0.84053  -0.83652  -0.83050  -0.82811
 Alpha  occ. eigenvalues --   -0.82778  -0.82336  -0.81779  -0.81306  -0.80748
 Alpha  occ. eigenvalues --   -0.80173  -0.78898  -0.78429  -0.77361  -0.77122
 Alpha  occ. eigenvalues --   -0.76876  -0.76569  -0.76096  -0.75467  -0.75020
 Alpha  occ. eigenvalues --   -0.74539  -0.72890  -0.72447  -0.71810  -0.71259
 Alpha  occ. eigenvalues --   -0.70014  -0.69542  -0.69043  -0.68506  -0.67775
 Alpha  occ. eigenvalues --   -0.67410  -0.67358  -0.66929  -0.65475  -0.65008
 Alpha  occ. eigenvalues --   -0.64932  -0.64782  -0.64500  -0.64388  -0.64354
 Alpha  occ. eigenvalues --   -0.63965  -0.62502  -0.61985  -0.60540  -0.60140
 Alpha  occ. eigenvalues --   -0.59972  -0.59442  -0.59122  -0.58726  -0.58642
 Alpha  occ. eigenvalues --   -0.58160  -0.57770  -0.57433  -0.57252  -0.56997
 Alpha  occ. eigenvalues --   -0.56438  -0.56205  -0.55965  -0.55637  -0.55585
 Alpha  occ. eigenvalues --   -0.55486  -0.55211  -0.54995  -0.54699  -0.54221
 Alpha  occ. eigenvalues --   -0.54097  -0.53522  -0.53417  -0.53375  -0.53101
 Alpha  occ. eigenvalues --   -0.53002  -0.52872  -0.52867  -0.52634  -0.52548
 Alpha  occ. eigenvalues --   -0.52411  -0.52202  -0.52001  -0.51793  -0.51672
 Alpha  occ. eigenvalues --   -0.51350  -0.51340  -0.50931  -0.50650  -0.50321
 Alpha  occ. eigenvalues --   -0.50146  -0.50033  -0.49714  -0.49661  -0.49632
 Alpha  occ. eigenvalues --   -0.49355  -0.49261  -0.49201  -0.48927  -0.48761
 Alpha  occ. eigenvalues --   -0.48689  -0.48588  -0.48545  -0.48243  -0.48155
 Alpha  occ. eigenvalues --   -0.48107  -0.47838  -0.47422  -0.47314  -0.46934
 Alpha  occ. eigenvalues --   -0.46891  -0.46748  -0.46487  -0.46440  -0.46294
 Alpha  occ. eigenvalues --   -0.46203  -0.46038  -0.45979  -0.45832  -0.45528
 Alpha  occ. eigenvalues --   -0.45315  -0.44955  -0.44726  -0.44644  -0.44273
 Alpha  occ. eigenvalues --   -0.44253  -0.44248  -0.44185  -0.44149  -0.43864
 Alpha  occ. eigenvalues --   -0.43751  -0.43689  -0.43672  -0.43541  -0.43257
 Alpha  occ. eigenvalues --   -0.43164  -0.43073  -0.42931  -0.42778  -0.42638
 Alpha  occ. eigenvalues --   -0.42602  -0.42338  -0.42157  -0.41847  -0.41718
 Alpha  occ. eigenvalues --   -0.41709  -0.41378  -0.41282  -0.41147  -0.41045
 Alpha  occ. eigenvalues --   -0.40940  -0.40693  -0.40662  -0.40521  -0.40473
 Alpha  occ. eigenvalues --   -0.40395  -0.40198  -0.39901  -0.39551  -0.39223
 Alpha  occ. eigenvalues --   -0.38602  -0.38095  -0.37990  -0.37444  -0.37438
 Alpha  occ. eigenvalues --   -0.37353  -0.37012  -0.36951  -0.36885  -0.36469
 Alpha  occ. eigenvalues --   -0.36365  -0.35939  -0.34414  -0.34043  -0.33987
 Alpha  occ. eigenvalues --   -0.33557  -0.33318  -0.32922  -0.31420  -0.31166
 Alpha  occ. eigenvalues --   -0.31118  -0.30701  -0.30162  -0.29669  -0.29552
 Alpha  occ. eigenvalues --   -0.29430  -0.29117  -0.28970  -0.24209  -0.23773
 Alpha  occ. eigenvalues --   -0.21247  -0.20861
 Alpha virt. eigenvalues --   -0.08889  -0.08552  -0.01868  -0.01437  -0.00166
 Alpha virt. eigenvalues --    0.00198   0.02082   0.02451   0.02838   0.03519
 Alpha virt. eigenvalues --    0.04529   0.04806   0.05046   0.05488   0.05864

 Mulliken charges:
               1
     1  Mg   0.838705
     2  C   -0.003927
     3  C   -0.094771
     4  C   -0.045595
     5  C   -0.063355
     6  N   -0.256724
     7  C   -0.053013
     8  C   -0.013862
     9  C   -0.086905
    10  C    0.045978
    11  C    0.104743
    12  C    0.053388
    13  C   -0.070952
    14  H    0.032815
    15  N   -0.433229
    16  C    0.168496
    17  C   -0.177034
    18  C   -0.003383
    19  C    0.148781
    20  C    0.110119
    21  C    0.012859
    22  O   -0.249532
    23  C    0.062188
    24  N   -0.341024
    25  C    0.041308
    26  C   -0.028223
    27  C   -0.023984
    28  C    0.074633
    29  C    0.076092
    30  C    0.035060
    31  C   -0.004347
    32  N   -0.310516
    33  C    0.080309
    34  C   -0.168872
    35  C    0.008444
    36  C    0.082752
    37  C    0.127160
    38  C    0.045936
    39  O   -0.188009
    40  C   -0.005521
    41  C    0.213725
    42  O   -0.259638
    43  O   -0.304046
    44  C    0.157925
    45  H   -0.017615
    46  H   -0.016602
    47  H   -0.040805
    48  H    0.001108
    49  H   -0.004595
    50  H    0.025679
    51  H    0.016973
    52  H    0.016754
    53  H    0.010383
    54  H    0.042464
    55  H    0.019173
    56  H    0.017992
    57  H    0.005346
    58  H    0.027191
    59  H    0.039832
    60  H    0.037060
    61  H    0.036467
    62  H    0.032569
    63  H    0.016343
    64  H    0.009826
    65  H    0.023344
    66  H    0.012658
    67  H    0.005049
    68  H    0.006283
    69  H    0.005438
    70  H    0.007719
    71  H    0.017878
    72  H    0.029730
    73  H    0.048730
    74  H    0.009754
    75  H    0.046082
    76  H    0.035536
    77  H    0.044010
    78  H    0.045960
    79  H    0.051795
    80  Mg   0.837324
    81  C   -0.016481
    82  C   -0.087965
    83  C   -0.046410
    84  C   -0.065613
    85  N   -0.255036
    86  C   -0.047757
    87  C   -0.015421
    88  C   -0.091438
    89  C    0.046734
    90  C    0.115453
    91  C    0.062474
    92  C   -0.077296
    93  H    0.033247
    94  N   -0.423381
    95  C    0.162960
    96  C   -0.175690
    97  C   -0.008742
    98  C    0.152146
    99  C    0.100038
   100  C    0.014636
   101  O   -0.253842
   102  C    0.061516
   103  N   -0.350249
   104  C    0.037655
   105  C   -0.019813
   106  C   -0.034556
   107  C    0.089211
   108  C    0.073688
   109  C    0.034848
   110  C   -0.007537
   111  N   -0.324252
   112  C    0.079010
   113  C   -0.163645
   114  C    0.002924
   115  C    0.096050
   116  C    0.131376
   117  C    0.042583
   118  O   -0.187671
   119  C    0.000725
   120  C    0.210770
   121  O   -0.252096
   122  O   -0.304114
   123  C    0.152502
   124  H   -0.020566
   125  H   -0.016383
   126  H   -0.041443
   127  H    0.003380
   128  H   -0.006799
   129  H    0.034477
   130  H    0.011038
   131  H    0.016575
   132  H    0.012730
   133  H    0.036962
   134  H    0.022277
   135  H    0.018342
   136  H    0.008338
   137  H    0.023873
   138  H    0.039089
   139  H    0.036914
   140  H    0.035590
   141  H    0.033940
   142  H    0.013732
   143  H    0.012012
   144  H    0.024841
   145  H    0.012100
   146  H    0.006399
   147  H    0.005951
   148  H    0.003043
   149  H    0.010719
   150  H    0.017373
   151  H    0.030361
   152  H    0.045785
   153  H    0.007738
   154  H    0.046432
   155  H    0.039940
   156  H    0.044021
   157  H    0.049313
   158  H    0.052572
 Sum of Mulliken charges =  -0.00000

 Dipole moment (field-independent basis, Debye):
    X=              5.1076    Y=             -1.8020    Z=              6.6513  Tot=              8.5776
 Quadrupole moment (field-independent basis, Debye-Ang):
   XX=           -518.4280   YY=           -542.5748   ZZ=           -457.6892
   XY=             -0.9547   XZ=              1.2483   YZ=             41.2601

 Normal termination of Gaussian 16 at Fri Sep 10 02:58:02 2021.
