 Gaussian 16, Revision A.03,
 Gaussian 16:  ES64L-G16RevA.03 25-Dec-2016

 -----------------------------------
 #p cam-b3lyp/Def2SVP td=(nstates=5)
 -----------------------------------

 --------------------------------
 TDDFT excited states in gaussian
 --------------------------------
 Symbolic Z-matrix:
 Charge =  0 Multiplicity = 1

                         Standard orientation:
 ---------------------------------------------------------------------
 Center     Atomic      Atomic             Coordinates (Angstroms)
 Number     Number       Type             X           Y           Z
 ---------------------------------------------------------------------
      1         12           0        5.364705    0.471026    1.176755
      2          6           0        6.002087   -2.450865   -0.790098
      3          6           0        6.797543    2.289328   -1.329999
      4          6           0        5.226265    3.002753    3.081438
      5          6           0        5.040907   -1.635748    3.933986
      6          7           0        6.248561   -0.119786   -0.764992
      7          6           0        6.376917   -1.265582   -1.426693
      8          6           0        6.877363   -1.080938   -2.890535
      9          6           0        7.610292    0.325896   -2.730433
     10          6           0        6.816257    0.881818   -1.561510
     11          6           0        9.073862    0.206925   -2.317749
     12          6           0        5.697272   -0.998653   -3.916374
     13          6           0        6.098404   -1.146210   -5.386977
     14          1           0        5.194917   -1.838932   -6.293176
     15          7           0        5.472084    2.398266    0.755963
     16          6           0        6.080227    2.960452   -0.316135
     17          6           0        5.884122    4.419542   -0.177280
     18          6           0        5.277561    4.671969    1.159304
     19          6           0        5.325821    3.353153    1.737037
     20          6           0        6.212643    5.400674   -1.260425
     21          6           0        4.749387    5.907951    1.816201
     22          8           0        4.480310    5.952385    3.065279
     23          6           0        4.637355    7.107038    0.966093
     24          7           0        5.379816    0.688699    3.252816
     25          6           0        5.249224    1.892284    3.821422
     26          6           0        5.004240    1.775542    5.296649
     27          6           0        4.751369    0.224828    5.581420
     28          6           0        4.989509   -0.319623    4.151339
     29          6           0        6.132546    2.283808    6.204725
     30          6           0        3.433614   -0.151675    6.304044
     31          6           0        2.253613    0.138742    5.403848
     32          7           0        5.316616   -1.672708    1.513111
     33          6           0        5.195685   -2.330235    2.745876
     34          6           0        5.321762   -3.774886    2.479127
     35          6           0        5.525163   -3.856905    1.102993
     36          6           0        5.552293   -2.545083    0.549207
     37          6           0        5.302205   -4.807803    3.457460
     38          6           0        5.750483   -4.746336   -0.024837
     39          8           0        5.736300   -5.968042   -0.182079
     40          6           0        6.189785   -3.866186   -1.277107
     41          6           0        5.374441   -4.317350   -2.458197
     42          8           0        4.141477   -4.127967   -2.494256
     43          8           0        6.197443   -4.681711   -3.453410
     44          6           0        5.451962   -5.112393   -4.666227
     45          1           0        7.434123    2.933105   -1.940128
     46          1           0        5.065706    3.842708    3.760506
     47          1           0        4.866012   -2.358359    4.733171
     48          1           0        7.589073   -1.835440   -3.226123
     49          1           0        7.479862    0.955206   -3.610591
     50          1           0        9.337155   -0.822674   -2.075832
     51          1           0        9.181310    0.843764   -1.439464
     52          1           0        9.726978    0.633975   -3.079225
     53          1           0        5.305028    0.018183   -3.932188
     54          1           0        4.926591   -1.732363   -3.677529
     55          1           0        7.111983   -1.535648   -5.486495
     56          1           0        6.145846   -0.151182   -5.829548
     57          1           0        6.795345    4.938433   -2.056250
     58          1           0        6.884652    6.140819   -0.826492
     59          1           0        5.322714    5.895549   -1.649602
     60          1           0        5.619929    7.357243    0.565477
     61          1           0        4.158484    7.868065    1.581211
     62          1           0        4.006677    6.873664    0.107763
     63          1           0        4.121920    2.341571    5.592533
     64          1           0        5.531359   -0.208473    6.207950
     65          1           0        5.815491    3.055050    6.907125
     66          1           0        6.941229    2.642678    5.568694
     67          1           0        6.638037    1.510254    6.782228
     68          1           0        3.307962    0.451873    7.202313
     69          1           0        3.389346   -1.199892    6.599905
     70          1           0        2.075514    1.200446    5.570871
     71          1           0        1.389730   -0.454294    5.705885
     72          1           0        2.514432    0.013493    4.352766
     73          1           0        4.677175   -5.602242    3.049816
     74          1           0        4.912106   -4.445305    4.408260
     75          1           0        6.361885   -5.057399    3.508792
     76          1           0        7.255150   -4.040520   -1.424513
     77          1           0        5.793832   -6.117602   -4.913035
     78          1           0        5.596766   -4.331188   -5.412656
     79          1           0        4.382545   -5.284169   -4.539028
     80         12           0       -4.981693    0.456213   -1.047018
     81          6           0       -7.272501   -1.664017    0.723834
     82          6           0       -7.318731    2.929198   -0.807786
     83          6           0       -3.183557    2.206856   -2.988497
     84          6           0       -3.359217   -2.432933   -2.126875
     85          7           0       -6.996438    0.504907   -0.135583
     86          6           0       -7.737104   -0.341953    0.563393
     87          6           0       -9.011759    0.284178    1.190104
     88          6           0       -9.195670    1.518079    0.178898
     89          6           0       -7.743537    1.691864   -0.261304
     90          6           0      -10.027938    1.174120   -1.045169
     91          6           0       -8.774452    0.777160    2.660707
     92          6           0      -10.047915    1.115056    3.439084
     93          1           0      -10.086769    0.825094    4.869784
     94          7           0       -4.978352    2.412933   -1.378360
     95          6           0       -6.007421    3.269031   -1.206929
     96          6           0       -5.502004    4.591095   -1.608011
     97          6           0       -4.141701    4.417634   -2.186118
     98          6           0       -4.054956    2.971634   -2.226722
     99          6           0       -6.259198    5.862514   -1.355842
    100          6           0       -3.097459    5.391904   -2.640610
    101          8           0       -2.083719    5.019224   -3.330740
    102          6           0       -3.344675    6.808373   -2.334054
    103          7           0       -3.618184   -0.040063   -2.535935
    104          6           0       -2.933842    0.913241   -3.192296
    105          6           0       -1.818729    0.314843   -4.016208
    106          6           0       -1.743908   -1.223394   -3.585167
    107          6           0       -2.939790   -1.271108   -2.608962
    108          6           0       -1.986748    0.410629   -5.532453
    109          6           0       -0.367717   -1.750645   -3.094479
    110          6           0       -0.005868   -1.101454   -1.778043
    111          7           0       -5.125735   -1.658109   -0.626326
    112          6           0       -4.367373   -2.697270   -1.208656
    113          6           0       -4.905126   -3.971837   -0.690248
    114          6           0       -5.962308   -3.583669    0.146521
    115          6           0       -6.088357   -2.168245    0.133659
    116          6           0       -4.447553   -5.272662   -1.043223
    117          6           0       -7.007092   -4.050050    1.029482
    118          8           0       -7.329119   -5.143371    1.492810
    119          6           0       -7.982698   -2.835252    1.343882
    120          6           0       -8.221717   -2.803729    2.828605
    121          8           0       -7.289960   -2.554441    3.613639
    122          8           0       -9.545567   -2.857100    3.063015
    123          6           0       -9.833617   -2.817446    4.521531
    124          1           0       -8.067429    3.701067   -0.988155
    125          1           0       -2.467245    2.769001   -3.592129
    126          1           0       -2.845303   -3.372846   -2.339330
    127          1           0       -9.889158   -0.350910    1.165224
    128          1           0       -9.545351    2.406163    0.698888
    129          1           0      -10.260213    0.120533   -1.091372
    130          1           0       -9.431034    1.467729   -1.898721
    131          1           0      -10.926491    1.796941   -1.077223
    132          1           0       -8.301914    1.767494    2.634509
    133          1           0       -8.192239    0.064690    3.212114
    134          1           0      -10.947828    0.729936    2.944340
    135          1           0      -10.181482    2.199552    3.431997
    136          1           0       -7.298214    5.661376   -1.067082
    137          1           0       -6.340069    6.382430   -2.316578
    138          1           0       -5.756577    6.517346   -0.640836
    139          1           0       -4.285964    7.116130   -2.783180
    140          1           0       -2.447035    7.338512   -2.658222
    141          1           0       -3.463049    6.916244   -1.250089
    142          1           0       -0.872255    0.789890   -3.789030
    143          1           0       -1.993622   -1.893375   -4.421005
    144          1           0       -1.145041    0.925253   -6.033213
    145          1           0       -2.920046    0.916520   -5.741169
    146          1           0       -2.120712   -0.541355   -6.043298
    147          1           0        0.417714   -1.475268   -3.802590
    148          1           0       -0.334239   -2.828932   -2.979704
    149          1           0        0.428698   -0.145564   -2.085490
    150          1           0        0.717791   -1.708431   -1.237723
    151          1           0       -0.903137   -0.881103   -1.188126
    152          1           0       -4.394402   -5.843590   -0.125773
    153          1           0       -3.482368   -5.232376   -1.543794
    154          1           0       -5.248043   -5.584132   -1.719576
    155          1           0       -8.903992   -3.001693    0.784348
    156          1           0      -10.437808   -3.700356    4.751989
    157          1           0      -10.294189   -1.829148    4.708332
    158          1           0       -8.999534   -2.948755    5.200880
 ---------------------------------------------------------------------

 SCF Done:  E(RCAM-B3LYP) =  -4069.81269196     A.U. after   19 cycles

 Excitation energies and oscillator strengths:

 Excited State   1:      Singlet-A      1.6550 eV  749.14 nm  f=0.0060  <S**2>=0.000
     309 -> 315       -0.11145
     310 -> 316        0.12677
     311 -> 313       -0.45177
     312 -> 314        0.51783
 This state for optimization and/or second-order correction.
 Total Energy, E(TD-HF/TD-DFT) =  -4069.75187110
 Copying the excited state density for this state as the 1-particle RhoCI density.

 Excited State   2:      Singlet-A      1.6961 eV  731.00 nm  f=0.7141  <S**2>=0.000
     309 -> 315        0.13554
     310 -> 316        0.11732
     311 -> 313        0.51599
     312 -> 314        0.45017

 Excited State   3:      Singlet-A      2.1832 eV  567.91 nm  f=0.0667  <S**2>=0.000
     309 -> 313        0.17726
     310 -> 314        0.61861
     312 -> 316       -0.26041

 Excited State   4:      Singlet-A      2.1947 eV  564.93 nm  f=0.1258  <S**2>=0.000
     309 -> 313        0.61567
     310 -> 314       -0.17507
     311 -> 315       -0.26887

 Excited State   5:      Singlet-A      2.5384 eV  488.44 nm  f=0.0000  <S**2>=0.000
     312 -> 313        0.70685

 The electronic state is 1-A.
 Alpha  occ. eigenvalues --  -46.87722 -46.87458 -19.26385 -19.26220 -19.19147
 Alpha  occ. eigenvalues --  -19.19022 -19.18713 -19.18600 -19.18136 -19.17880
 Alpha  occ. eigenvalues --  -14.42387 -14.42306 -14.41369 -14.41136 -14.39322
 Alpha  occ. eigenvalues --  -14.39160 -14.38519 -14.38396 -10.39186 -10.38948
 Alpha  occ. eigenvalues --  -10.35344 -10.35282 -10.34362 -10.34057 -10.31794
 Alpha  occ. eigenvalues --  -10.31645 -10.31354 -10.31111 -10.30858 -10.30856
 Alpha  occ. eigenvalues --  -10.30503 -10.30431 -10.30192 -10.30151 -10.30106
 Alpha  occ. eigenvalues --  -10.29901 -10.29843 -10.29661 -10.29552 -10.29244
 Alpha  occ. eigenvalues --  -10.29204 -10.29163 -10.28748 -10.28605 -10.28573
 Alpha  occ. eigenvalues --  -10.28543 -10.28302 -10.28227 -10.28090 -10.27987
 Alpha  occ. eigenvalues --  -10.27811 -10.27715 -10.27656 -10.27499 -10.27478
 Alpha  occ. eigenvalues --  -10.27380 -10.27353 -10.27351 -10.27344 -10.27326
 Alpha  occ. eigenvalues --  -10.27296 -10.27281 -10.27161 -10.27144 -10.27100
 Alpha  occ. eigenvalues --  -10.26888 -10.26766 -10.26561 -10.26350 -10.26275
 Alpha  occ. eigenvalues --  -10.26201 -10.26022 -10.25928 -10.25887 -10.25746
 Alpha  occ. eigenvalues --  -10.25677 -10.25575 -10.25510 -10.25342 -10.25210
 Alpha  occ. eigenvalues --  -10.24766 -10.24711 -10.24684 -10.24491 -10.24490
 Alpha  occ. eigenvalues --  -10.24096  -3.16464  -3.16208  -1.91346  -1.91091
 Alpha  occ. eigenvalues --   -1.90933  -1.90775  -1.90679  -1.90516  -1.16734
 Alpha  occ. eigenvalues --   -1.16512  -1.08605  -1.08489  -1.07113  -1.06858
 Alpha  occ. eigenvalues --   -1.06806  -1.06756  -1.04522  -1.04308  -1.03684
 Alpha  occ. eigenvalues --   -1.03461  -1.03157  -1.02824  -1.02337  -1.01906
 Alpha  occ. eigenvalues --   -0.91929  -0.91800  -0.89420  -0.89202  -0.89169
 Alpha  occ. eigenvalues --   -0.88982  -0.88188  -0.87908  -0.87793  -0.87613
 Alpha  occ. eigenvalues --   -0.87578  -0.87485  -0.87172  -0.86963  -0.84955
 Alpha  occ. eigenvalues --   -0.84832  -0.83837  -0.83546  -0.82856  -0.82757
 Alpha  occ. eigenvalues --   -0.82608  -0.82467  -0.81584  -0.81414  -0.80553
 Alpha  occ. eigenvalues --   -0.80262  -0.78706  -0.78451  -0.77150  -0.76945
 Alpha  occ. eigenvalues --   -0.76909  -0.76674  -0.75894  -0.75662  -0.74818
 Alpha  occ. eigenvalues --   -0.74559  -0.72697  -0.72481  -0.71614  -0.71390
 Alpha  occ. eigenvalues --   -0.69782  -0.69355  -0.68833  -0.68648  -0.67581
 Alpha  occ. eigenvalues --   -0.67415  -0.67194  -0.67055  -0.65263  -0.65100
 Alpha  occ. eigenvalues --   -0.64811  -0.64574  -0.64558  -0.64455  -0.64177
 Alpha  occ. eigenvalues --   -0.63889  -0.62307  -0.62086  -0.60346  -0.60152
 Alpha  occ. eigenvalues --   -0.59766  -0.59625  -0.58926  -0.58784  -0.58447
 Alpha  occ. eigenvalues --   -0.58217  -0.57589  -0.57383  -0.57236  -0.57006
 Alpha  occ. eigenvalues --   -0.56250  -0.56006  -0.56004  -0.55725  -0.55450
 Alpha  occ. eigenvalues --   -0.55300  -0.55285  -0.54997  -0.54494  -0.54214
 Alpha  occ. eigenvalues --   -0.53881  -0.53755  -0.53223  -0.53176  -0.53041
 Alpha  occ. eigenvalues --   -0.52957  -0.52900  -0.52717  -0.52673  -0.52538
 Alpha  occ. eigenvalues --   -0.52307  -0.51926  -0.51840  -0.51642  -0.51586
 Alpha  occ. eigenvalues --   -0.51510  -0.51144  -0.50966  -0.50450  -0.50325
 Alpha  occ. eigenvalues --   -0.49929  -0.49835  -0.49813  -0.49563  -0.49466
 Alpha  occ. eigenvalues --   -0.49334  -0.49166  -0.49064  -0.49039  -0.48921
 Alpha  occ. eigenvalues --   -0.48572  -0.48398  -0.48392  -0.48359  -0.48206
 Alpha  occ. eigenvalues --   -0.48137  -0.47633  -0.47403  -0.47225  -0.46940
 Alpha  occ. eigenvalues --   -0.46727  -0.46535  -0.46485  -0.46378  -0.46290
 Alpha  occ. eigenvalues --   -0.46104  -0.46045  -0.45867  -0.45798  -0.45625
 Alpha  occ. eigenvalues --   -0.45112  -0.44961  -0.44543  -0.44435  -0.44357
 Alpha  occ. eigenvalues --   -0.44264  -0.44078  -0.44032  -0.43966  -0.43961
 Alpha  occ. eigenvalues --   -0.43795  -0.43779  -0.43480  -0.43338  -0.43333
 Alpha  occ. eigenvalues --   -0.43197  -0.42969  -0.42764  -0.42746  -0.42700
 Alpha  occ. eigenvalues --   -0.42551  -0.42263  -0.41933  -0.41653  -0.41650
 Alpha  occ. eigenvalues --   -0.41500  -0.41470  -0.41229  -0.41085  -0.40821
 Alpha  occ. eigenvalues --   -0.40804  -0.40743  -0.40597  -0.40490  -0.40479
 Alpha  occ. eigenvalues --   -0.40242  -0.40147  -0.40092  -0.39306  -0.39002
 Alpha  occ. eigenvalues --   -0.38384  -0.38071  -0.37751  -0.37493  -0.37235
 Alpha  occ. eigenvalues --   -0.37232  -0.37036  -0.36978  -0.36762  -0.36598
 Alpha  occ. eigenvalues --   -0.36162  -0.35974  -0.34221  -0.34048  -0.33863
 Alpha  occ. eigenvalues --   -0.33712  -0.33124  -0.32972  -0.31246  -0.31158
 Alpha  occ. eigenvalues --   -0.30973  -0.30778  -0.30001  -0.29783  -0.29364
 Alpha  occ. eigenvalues --   -0.29249  -0.29150  -0.29017  -0.24014  -0.23833
 Alpha  occ. eigenvalues --   -0.21052  -0.20913
 Alpha virt. eigenvalues --   -0.08697  -0.08600  -0.01671  -0.01482   0.00021
 Alpha virt. eigenvalues --    0.00123   0.02257   0.02402   0.03064   0.03495
 Alpha virt. eigenvalues --    0.04755   0.04910   0.05005   0.05311   0.06141

 Mulliken charges:
               1
     1  Mg   0.838327
     2  C   -0.004208
     3  C   -0.093847
     4  C   -0.045559
     5  C   -0.063371
     6  N   -0.256821
     7  C   -0.053156
     8  C   -0.013796
     9  C   -0.087046
    10  C    0.046198
    11  C    0.104790
    12  C    0.053185
    13  C   -0.071539
    14  H    0.034353
    15  N   -0.433319
    16  C    0.168952
    17  C   -0.176317
    18  C   -0.003390
    19  C    0.149031
    20  C    0.109906
    21  C    0.012889
    22  O   -0.249823
    23  C    0.061830
    24  N   -0.341161
    25  C    0.041444
    26  C   -0.028186
    27  C   -0.024010
    28  C    0.074796
    29  C    0.076223
    30  C    0.034987
    31  C   -0.004750
    32  N   -0.310429
    33  C    0.080192
    34  C   -0.169531
    35  C    0.008075
    36  C    0.082210
    37  C    0.127347
    38  C    0.045238
    39  O   -0.188906
    40  C   -0.005134
    41  C    0.213659
    42  O   -0.260236
    43  O   -0.304096
    44  C    0.157906
    45  H   -0.017580
    46  H   -0.016727
    47  H   -0.041017
    48  H    0.000809
    49  H   -0.003873
    50  H    0.025402
    51  H    0.016709
    52  H    0.016687
    53  H    0.011543
    54  H    0.041788
    55  H    0.018431
    56  H    0.018762
    57  H    0.005758
    58  H    0.026503
    59  H    0.041671
    60  H    0.037036
    61  H    0.035135
    62  H    0.033659
    63  H    0.016815
    64  H    0.009350
    65  H    0.023151
    66  H    0.012310
    67  H    0.004763
    68  H    0.006307
    69  H    0.005190
    70  H    0.008504
    71  H    0.020106
    72  H    0.028766
    73  H    0.047581
    74  H    0.009805
    75  H    0.045821
    76  H    0.035339
    77  H    0.043506
    78  H    0.046559
    79  H    0.052088
    80  Mg   0.837742
    81  C   -0.017316
    82  C   -0.088199
    83  C   -0.045742
    84  C   -0.064304
    85  N   -0.254587
    86  C   -0.049822
    87  C   -0.015097
    88  C   -0.090439
    89  C    0.045569
    90  C    0.114539
    91  C    0.062594
    92  C   -0.077638
    93  H    0.034413
    94  N   -0.423286
    95  C    0.162653
    96  C   -0.175060
    97  C   -0.008355
    98  C    0.152056
    99  C    0.099481
   100  C    0.015183
   101  O   -0.254876
   102  C    0.061498
   103  N   -0.350333
   104  C    0.037719
   105  C   -0.019095
   106  C   -0.036257
   107  C    0.089516
   108  C    0.074418
   109  C    0.036089
   110  C   -0.012572
   111  N   -0.324268
   112  C    0.078930
   113  C   -0.162107
   114  C    0.001989
   115  C    0.096549
   116  C    0.130944
   117  C    0.042485
   118  O   -0.187960
   119  C    0.000894
   120  C    0.211223
   121  O   -0.251113
   122  O   -0.305664
   123  C    0.152165
   124  H   -0.020369
   125  H   -0.016687
   126  H   -0.037746
   127  H   -0.000928
   128  H   -0.004716
   129  H    0.022250
   130  H    0.014338
   131  H    0.015760
   132  H    0.013961
   133  H    0.037605
   134  H    0.020620
   135  H    0.019417
   136  H    0.008485
   137  H    0.025319
   138  H    0.039322
   139  H    0.038140
   140  H    0.034441
   141  H    0.034290
   142  H    0.013589
   143  H    0.011977
   144  H    0.023146
   145  H    0.010695
   146  H    0.005418
   147  H    0.007219
   148  H    0.010721
   149  H    0.006593
   150  H    0.031460
   151  H    0.026301
   152  H    0.046457
   153  H    0.011457
   154  H    0.046310
   155  H    0.034660
   156  H    0.043684
   157  H    0.049305
   158  H    0.053379
 Sum of Mulliken charges =  -0.00000

 Dipole moment (field-independent basis, Debye):
    X=              0.3849    Y=              6.8141    Z=             -2.9492  Tot=              7.4349
 Quadrupole moment (field-independent basis, Debye-Ang):
   XX=           -444.9736   YY=           -539.7233   ZZ=           -482.0743
   XY=            -22.8814   XZ=            -17.0095   YZ=              1.9896

 Normal termination of Gaussian 16 at Fri Sep 10 11:09:48 2021.
