 Gaussian 16, Revision A.03,
 Gaussian 16:  ES64L-G16RevA.03 25-Dec-2016

 -----------------------------------
 #p cam-b3lyp/Def2SVP td=(nstates=5)
 -----------------------------------

 --------------------------------
 TDDFT excited states in gaussian
 --------------------------------
 Symbolic Z-matrix:
 Charge =  0 Multiplicity = 1

                         Standard orientation:
 ---------------------------------------------------------------------
 Center     Atomic      Atomic             Coordinates (Angstroms)
 Number     Number       Type             X           Y           Z
 ---------------------------------------------------------------------
      1         12           0      -15.784494    0.611883    0.477614
      2          6           0      -16.083878   -1.873829   -2.080475
      3          6           0      -16.590301   -1.821917    2.729360
      4          6           0      -15.971886    2.874339    2.691841
      5          6           0      -16.124474    3.014969   -2.023435
      6          7           0      -16.253495   -1.537768    0.233310
      7          6           0      -16.275498   -2.381652   -0.793602
      8          6           0      -16.446435   -3.870183   -0.366484
      9          6           0      -17.150125   -3.647344    1.046725
     10          6           0      -16.605419   -2.268301    1.374537
     11          6           0      -18.671101   -3.567817    0.964201
     12          6           0      -15.072922   -4.606111   -0.212847
     13          6           0      -15.156328   -6.132420   -0.119161
     14          1           0      -14.103805   -6.930083   -0.730124
     15          7           0      -15.736573    0.482892    2.448379
     16          6           0      -16.083718   -0.590551    3.198378
     17          6           0      -15.873955   -0.189224    4.606078
     18          6           0      -15.557969    1.266108    4.622068
     19          6           0      -15.771347    1.609361    3.239308
     20          6           0      -15.931959   -1.150745    5.753188
     21          6           0      -15.141558    2.201524    5.712816
     22          8           0      -15.143317    3.470622    5.558016
     23          6           0      -14.811832    1.589582    7.012758
     24          7           0      -16.234181    2.648579    0.392269
     25          6           0      -16.188278    3.411957    1.489598
     26          6           0      -16.267001    4.869555    1.144417
     27          6           0      -16.131540    4.955557   -0.444295
     28          6           0      -16.077421    3.440181   -0.758900
     29          6           0      -17.545510    5.594159    1.587560
     30          6           0      -15.010945    5.866003   -1.006232
     31          6           0      -13.657451    5.283818   -0.665332
     32          7           0      -15.879430    0.613444   -1.690802
     33          6           0      -16.045392    1.727194   -2.526680
     34          6           0      -16.159065    1.218927   -3.906104
     35          6           0      -16.067351   -0.165285   -3.774230
     36          6           0      -15.932921   -0.501977   -2.396965
     37          6           0      -16.382149    2.007640   -5.069117
     38          6           0      -16.076382   -1.439621   -4.474117
     39          8           0      -16.069098   -1.778596   -5.658404
     40          6           0      -16.209863   -2.603020   -3.394991
     41          6           0      -15.176960   -3.646845   -3.721869
     42          8           0      -13.959064   -3.398899   -3.609534
     43          8           0      -15.780663   -4.834210   -3.883881
     44          6           0      -14.808555   -5.919861   -4.181408
     45          1           0      -17.060911   -2.442147    3.494724
     46          1           0      -15.932161    3.694067    3.412191
     47          1           0      -16.147548    3.710750   -2.864155
     48          1           0      -17.094706   -4.457990   -1.016600
     49          1           0      -16.814712   -4.373133    1.787299
     50          1           0      -19.013474   -3.548256   -0.070362
     51          1           0      -18.942167   -2.642249    1.472471
     52          1           0      -19.132735   -4.371379    1.538622
     53          1           0      -14.653189   -4.382693    0.767953
     54          1           0      -14.395250   -4.331057   -1.021816
     55          1           0      -16.137680   -6.497393   -0.423550
     56          1           0      -15.075799   -6.415083    0.930513
     57          1           0      -16.346670   -2.111298    5.450040
     58          1           0      -16.656323   -0.754463    6.464500
     59          1           0      -14.963837   -1.266979    6.240592
     60          1           0      -15.677824    1.039504    7.381566
     61          1           0      -14.450240    2.400652    7.643842
     62          1           0      -14.020846    0.853537    6.866034
     63          1           0      -15.449850    5.424751    1.603164
     64          1           0      -17.040828    5.333292   -0.912469
     65          1           0      -17.360185    6.457904    2.226547
     66          1           0      -18.188005    4.869242    2.086545
     67          1           0      -18.187459    5.928021    0.772787
     68          1           0      -15.059732    6.853601   -0.548830
     69          1           0      -15.065077    5.997988   -2.086927
     70          1           0      -13.484296    5.646875    0.347110
     71          1           0      -12.897610    5.660953   -1.350622
     72          1           0      -13.692439    4.195163   -0.619583
     73          1           0      -15.711038    1.618664   -5.834804
     74          1           0      -16.191787    3.062851   -4.874455
     75          1           0      -17.436057    1.800694   -5.254342
     76          1           0      -17.224535   -2.991459   -3.476705
     77          1           0      -15.122794   -6.384874   -5.115887
     78          1           0      -14.765409   -6.549373   -3.292443
     79          1           0      -13.796968   -5.603930   -4.438737
     80         12           0       15.954399    0.510215   -0.613992
     81          6           0       15.821458   -2.177232    1.760678
     82          6           0       15.172523    2.617352    1.951791
     83          6           0       15.620736    2.830289   -2.752537
     84          6           0       15.592097   -1.877138   -3.126954
     85          7           0       15.571469    0.147681    1.534071
     86          6           0       15.609601   -0.906529    2.335027
     87          6           0       15.489353   -0.571110    3.845855
     88          6           0       14.729426    0.837951    3.719604
     89          6           0       15.210656    1.251575    2.330357
     90          6           0       13.216170    0.704229    3.680708
     91          6           0       16.889436   -0.408886    4.535394
     92          6           0       16.854257   -0.387286    6.065121
     93          1           0       17.959750   -1.001219    6.795483
     94          7           0       15.952816    2.481069   -0.381020
     95          6           0       15.630692    3.168297    0.734884
     96          6           0       15.768028    4.590615    0.385157
     97          6           0       16.037799    4.690718   -1.074945
     98          6           0       15.856305    3.308835   -1.471892
     99          6           0       15.721262    5.688266    1.408093
    100          6           0       16.387137    5.842090   -1.968533
    101          8           0       16.343504    5.740750   -3.245507
    102          6           0       16.691287    7.118237   -1.304886
    103          7           0       15.439090    0.507808   -2.628139
    104          6           0       15.418551    1.649663   -3.337841
    105          6           0       15.292037    1.370670   -4.816531
    106          6           0       15.475938   -0.210269   -4.972726
    107          6           0       15.593158   -0.599821   -3.482792
    108          6           0       13.973970    1.795798   -5.463333
    109          6           0       16.578125   -0.697142   -5.952942
    110          6           0       17.943792   -0.335857   -5.414625
    111          7           0       15.928249   -1.647734   -0.717196
    112          6           0       15.738045   -2.444436   -1.867483
    113          6           0       15.684691   -3.850986   -1.418937
    114          6           0       15.825620   -3.772714   -0.025202
    115          6           0       15.937233   -2.412024    0.369194
    116          6           0       15.476750   -4.983631   -2.255603
    117          6           0       15.894666   -4.531110    1.203115
    118          8           0       15.942408   -5.728144    1.483444
    119          6           0       15.768120   -3.524261    2.426480
    120          6           0       16.848952   -3.859265    3.417482
    121          8           0       18.047161   -3.706246    3.121727
    122          8           0       16.288434   -4.096210    4.617504
    123          6           0       17.321441   -4.422179    5.636556
    124          1           0       14.709644    3.331836    2.633071
    125          1           0       15.607845    3.584501   -3.542761
    126          1           0       15.579654   -2.687152   -3.859347
    127          1           0       14.889091   -1.267216    4.419344
    128          1           0       15.077984    1.543279    4.469530
    129          1           0       12.904235   -0.328121    3.625240
    130          1           0       12.895702    1.244175    2.799349
    131          1           0       12.769672    1.225412    4.532385
    132          1           0       17.268813    0.602730    4.341877
    133          1           0       17.569411   -1.167792    4.200264
    134          1           0       15.892190   -0.735483    6.460247
    135          1           0       16.921224    0.650958    6.399140
    136          1           0       15.345092    5.324024    2.372047
    137          1           0       14.963099    6.404747    1.073854
    138          1           0       16.676335    6.207443    1.512777
    139          1           0       15.837632    7.426192   -0.705814
    140          1           0       17.003927    7.795111   -2.102365
    141          1           0       17.523509    6.961363   -0.609610
    142          1           0       16.074320    1.872124   -5.373016
    143          1           0       14.562461   -0.691201   -5.352353
    144          1           0       14.109015    2.492757   -6.311914
    145          1           0       13.347896    2.241009   -4.701524
    146          1           0       13.352189    0.978528   -5.824797
    147          1           0       16.479795   -0.189629   -6.915709
    148          1           0       16.543531   -1.764108   -6.146320
    149          1           0       18.067731    0.703392   -5.733504
    150          1           0       18.708657   -0.976063   -5.849559
    151          1           0       17.950435   -0.347357   -4.318504
    152          1           0       16.177064   -5.742276   -1.932307
    153          1           0       15.616716   -4.733648   -3.305213
    154          1           0       14.432511   -5.208850   -2.022988
    155          1           0       14.771009   -3.647964    2.850780
    156          1           0       17.049274   -5.389884    6.069176
    157          1           0       17.349555   -3.554126    6.321721
    158          1           0       18.326641   -4.622953    5.284833
 ---------------------------------------------------------------------

 SCF Done:  E(RCAM-B3LYP) =  -4069.81176975     A.U. after   19 cycles

 Excitation energies and oscillator strengths:

 Excited State   1:      Singlet-A      1.6756 eV  739.95 nm  f=0.3904  <S**2>=0.000
     310 -> 316        0.17362
     312 -> 313        0.68601
     310 <- 316        0.10464
 This state for optimization and/or second-order correction.
 Total Energy, E(TD-HF/TD-DFT) =  -4069.75019377
 Copying the excited state density for this state as the 1-particle RhoCI density.

 Excited State   2:      Singlet-A      1.6799 eV  738.07 nm  f=0.3857  <S**2>=0.000
     309 -> 315        0.17552
     311 -> 314        0.68566
     309 <- 315        0.10511

 Excited State   3:      Singlet-A      2.1861 eV  567.14 nm  f=0.1025  <S**2>=0.000
     310 -> 313        0.64248
     312 -> 316       -0.27315

 Excited State   4:      Singlet-A      2.1925 eV  565.49 nm  f=0.0985  <S**2>=0.000
     309 -> 314        0.64071
     311 -> 315       -0.27827

 Excited State   5:      Singlet-A      3.0657 eV  404.43 nm  f=0.0000  <S**2>=0.000
     311 -> 313        0.70711

 The electronic state is 1-A.
 Alpha  occ. eigenvalues --  -46.87796 -46.87661 -19.26355 -19.26278 -19.19166
 Alpha  occ. eigenvalues --  -19.19015 -19.18816 -19.18713 -19.18167 -19.18054
 Alpha  occ. eigenvalues --  -14.42498 -14.42449 -14.41449 -14.41359 -14.39402
 Alpha  occ. eigenvalues --  -14.39352 -14.38600 -14.38586 -10.39095 -10.39075
 Alpha  occ. eigenvalues --  -10.35450 -10.35390 -10.34387 -10.34231 -10.31763
 Alpha  occ. eigenvalues --  -10.31671 -10.31403 -10.31310 -10.31024 -10.30907
 Alpha  occ. eigenvalues --  -10.30569 -10.30507 -10.30398 -10.30362 -10.30207
 Alpha  occ. eigenvalues --  -10.30140 -10.29921 -10.29894 -10.29630 -10.29436
 Alpha  occ. eigenvalues --  -10.29401 -10.29254 -10.28745 -10.28721 -10.28659
 Alpha  occ. eigenvalues --  -10.28530 -10.28405 -10.28364 -10.28142 -10.28113
 Alpha  occ. eigenvalues --  -10.28002 -10.27792 -10.27726 -10.27670 -10.27584
 Alpha  occ. eigenvalues --  -10.27515 -10.27503 -10.27485 -10.27480 -10.27468
 Alpha  occ. eigenvalues --  -10.27464 -10.27452 -10.27402 -10.27373 -10.27155
 Alpha  occ. eigenvalues --  -10.27053 -10.26699 -10.26696 -10.26413 -10.26413
 Alpha  occ. eigenvalues --  -10.26231 -10.26187 -10.26135 -10.26026 -10.26019
 Alpha  occ. eigenvalues --  -10.25934 -10.25852 -10.25843 -10.25438 -10.25392
 Alpha  occ. eigenvalues --  -10.24874 -10.24832 -10.24788 -10.24729 -10.24691
 Alpha  occ. eigenvalues --  -10.24690  -3.16539  -3.16411  -1.91420  -1.91293
 Alpha  occ. eigenvalues --   -1.91007  -1.90882  -1.90849  -1.90719  -1.16649
 Alpha  occ. eigenvalues --   -1.16627  -1.08661  -1.08625  -1.07218  -1.06965
 Alpha  occ. eigenvalues --   -1.06950  -1.06637  -1.04580  -1.04496  -1.03760
 Alpha  occ. eigenvalues --   -1.03664  -1.03233  -1.03039  -1.02411  -1.02112
 Alpha  occ. eigenvalues --   -0.91988  -0.91970  -0.89520  -0.89494  -0.89184
 Alpha  occ. eigenvalues --   -0.89153  -0.88288  -0.88219  -0.87869  -0.87795
 Alpha  occ. eigenvalues --   -0.87685  -0.87671  -0.87274  -0.87120  -0.85001
 Alpha  occ. eigenvalues --   -0.84979  -0.83938  -0.83875  -0.82968  -0.82930
 Alpha  occ. eigenvalues --   -0.82654  -0.82646  -0.81599  -0.81582  -0.80594
 Alpha  occ. eigenvalues --   -0.80444  -0.78797  -0.78636  -0.77217  -0.77145
 Alpha  occ. eigenvalues --   -0.76931  -0.76900  -0.75920  -0.75841  -0.74898
 Alpha  occ. eigenvalues --   -0.74802  -0.72774  -0.72700  -0.71671  -0.71581
 Alpha  occ. eigenvalues --   -0.69909  -0.69756  -0.68871  -0.68829  -0.67640
 Alpha  occ. eigenvalues --   -0.67602  -0.67217  -0.67201  -0.65284  -0.65274
 Alpha  occ. eigenvalues --   -0.64852  -0.64771  -0.64655  -0.64619  -0.64270
 Alpha  occ. eigenvalues --   -0.64203  -0.62294  -0.62281  -0.60442  -0.60339
 Alpha  occ. eigenvalues --   -0.59802  -0.59798  -0.58993  -0.58986  -0.58503
 Alpha  occ. eigenvalues --   -0.58426  -0.57582  -0.57557  -0.57308  -0.57236
 Alpha  occ. eigenvalues --   -0.56309  -0.56205  -0.55974  -0.55890  -0.55520
 Alpha  occ. eigenvalues --   -0.55453  -0.55339  -0.55248  -0.54522  -0.54489
 Alpha  occ. eigenvalues --   -0.53914  -0.53891  -0.53298  -0.53228  -0.53220
 Alpha  occ. eigenvalues --   -0.53143  -0.52913  -0.52904  -0.52755  -0.52668
 Alpha  occ. eigenvalues --   -0.52440  -0.52400  -0.51914  -0.51886  -0.51660
 Alpha  occ. eigenvalues --   -0.51614  -0.51203  -0.51194  -0.50573  -0.50474
 Alpha  occ. eigenvalues --   -0.50032  -0.49980  -0.49918  -0.49866  -0.49513
 Alpha  occ. eigenvalues --   -0.49488  -0.49213  -0.49204  -0.49106  -0.49093
 Alpha  occ. eigenvalues --   -0.48591  -0.48560  -0.48462  -0.48445  -0.48375
 Alpha  occ. eigenvalues --   -0.48339  -0.47693  -0.47595  -0.47296  -0.47118
 Alpha  occ. eigenvalues --   -0.46796  -0.46710  -0.46555  -0.46552  -0.46358
 Alpha  occ. eigenvalues --   -0.46271  -0.46162  -0.46086  -0.45824  -0.45819
 Alpha  occ. eigenvalues --   -0.45207  -0.45202  -0.44576  -0.44516  -0.44506
 Alpha  occ. eigenvalues --   -0.44477  -0.44145  -0.44129  -0.44086  -0.44078
 Alpha  occ. eigenvalues --   -0.44018  -0.43940  -0.43556  -0.43492  -0.43387
 Alpha  occ. eigenvalues --   -0.43384  -0.43026  -0.42933  -0.42903  -0.42697
 Alpha  occ. eigenvalues --   -0.42654  -0.42553  -0.42009  -0.41965  -0.41703
 Alpha  occ. eigenvalues --   -0.41670  -0.41531  -0.41460  -0.41140  -0.40990
 Alpha  occ. eigenvalues --   -0.40867  -0.40823  -0.40723  -0.40699  -0.40572
 Alpha  occ. eigenvalues --   -0.40493  -0.40230  -0.40229  -0.39443  -0.39424
 Alpha  occ. eigenvalues --   -0.38469  -0.38349  -0.37744  -0.37656  -0.37320
 Alpha  occ. eigenvalues --   -0.37266  -0.37261  -0.37201  -0.36775  -0.36710
 Alpha  occ. eigenvalues --   -0.36218  -0.36191  -0.34285  -0.34254  -0.33866
 Alpha  occ. eigenvalues --   -0.33766  -0.33185  -0.33176  -0.31346  -0.31272
 Alpha  occ. eigenvalues --   -0.31035  -0.30973  -0.30027  -0.29958  -0.29449
 Alpha  occ. eigenvalues --   -0.29328  -0.29321  -0.29212  -0.24080  -0.24037
 Alpha  occ. eigenvalues --   -0.21127  -0.21117
 Alpha virt. eigenvalues --   -0.08792  -0.08774  -0.01749  -0.01684  -0.00058
 Alpha virt. eigenvalues --   -0.00029   0.02201   0.02206   0.03124   0.03227
 Alpha virt. eigenvalues --    0.04720   0.04728   0.05103   0.05161   0.06180

 Mulliken charges:
               1
     1  Mg   0.838828
     2  C   -0.002955
     3  C   -0.094093
     4  C   -0.045906
     5  C   -0.063979
     6  N   -0.256808
     7  C   -0.052435
     8  C   -0.014020
     9  C   -0.087014
    10  C    0.046334
    11  C    0.104808
    12  C    0.053467
    13  C   -0.071842
    14  H    0.036205
    15  N   -0.433148
    16  C    0.168414
    17  C   -0.177135
    18  C   -0.004029
    19  C    0.148707
    20  C    0.110166
    21  C    0.012272
    22  O   -0.249670
    23  C    0.062483
    24  N   -0.341160
    25  C    0.041241
    26  C   -0.028163
    27  C   -0.023968
    28  C    0.074835
    29  C    0.076173
    30  C    0.035137
    31  C   -0.004493
    32  N   -0.310494
    33  C    0.080426
    34  C   -0.169715
    35  C    0.008363
    36  C    0.082986
    37  C    0.127310
    38  C    0.046118
    39  O   -0.188416
    40  C   -0.005340
    41  C    0.212884
    42  O   -0.257099
    43  O   -0.304796
    44  C    0.157680
    45  H   -0.017583
    46  H   -0.016870
    47  H   -0.041509
    48  H    0.000957
    49  H   -0.004001
    50  H    0.025477
    51  H    0.016431
    52  H    0.016682
    53  H    0.011209
    54  H    0.044127
    55  H    0.017875
    56  H    0.017971
    57  H    0.005904
    58  H    0.026819
    59  H    0.039559
    60  H    0.037360
    61  H    0.035603
    62  H    0.031508
    63  H    0.016516
    64  H    0.009456
    65  H    0.023178
    66  H    0.012558
    67  H    0.004748
    68  H    0.006328
    69  H    0.004729
    70  H    0.008746
    71  H    0.018116
    72  H    0.029008
    73  H    0.047576
    74  H    0.009091
    75  H    0.046013
    76  H    0.035164
    77  H    0.042964
    78  H    0.046427
    79  H    0.053705
    80  Mg   0.837899
    81  C   -0.016836
    82  C   -0.087794
    83  C   -0.045474
    84  C   -0.064844
    85  N   -0.254572
    86  C   -0.049862
    87  C   -0.015082
    88  C   -0.090515
    89  C    0.045753
    90  C    0.114376
    91  C    0.062517
    92  C   -0.077887
    93  H    0.034874
    94  N   -0.423514
    95  C    0.162944
    96  C   -0.174595
    97  C   -0.007780
    98  C    0.152104
    99  C    0.099359
   100  C    0.015594
   101  O   -0.253139
   102  C    0.061190
   103  N   -0.350070
   104  C    0.037549
   105  C   -0.019867
   106  C   -0.034832
   107  C    0.088920
   108  C    0.073625
   109  C    0.034737
   110  C   -0.007689
   111  N   -0.324108
   112  C    0.078415
   113  C   -0.163123
   114  C    0.002237
   115  C    0.096199
   116  C    0.131490
   117  C    0.042367
   118  O   -0.187929
   119  C    0.000942
   120  C    0.211246
   121  O   -0.251010
   122  O   -0.305640
   123  C    0.152032
   124  H   -0.019638
   125  H   -0.015528
   126  H   -0.040433
   127  H   -0.000674
   128  H   -0.004326
   129  H    0.022454
   130  H    0.014470
   131  H    0.016289
   132  H    0.013928
   133  H    0.037669
   134  H    0.020773
   135  H    0.019601
   136  H    0.008763
   137  H    0.026195
   138  H    0.039803
   139  H    0.038278
   140  H    0.036432
   141  H    0.033884
   142  H    0.014415
   143  H    0.012475
   144  H    0.025192
   145  H    0.011673
   146  H    0.005744
   147  H    0.006309
   148  H    0.003657
   149  H    0.010947
   150  H    0.017931
   151  H    0.030075
   152  H    0.045983
   153  H    0.008534
   154  H    0.046958
   155  H    0.035011
   156  H    0.043880
   157  H    0.049492
   158  H    0.053578
 Sum of Mulliken charges =  -0.00000

 Dipole moment (field-independent basis, Debye):
    X=             -3.7953    Y=              1.8347    Z=              5.8159  Tot=              7.1830
 Quadrupole moment (field-independent basis, Debye-Ang):
   XX=           -517.6357   YY=           -501.9135   ZZ=           -496.9081
   XY=             87.6528   XZ=            -28.9115   YZ=             -2.2414

 Normal termination of Gaussian 16 at Sat Sep  4 18:57:12 2021.
