 Gaussian 16, Revision A.03,
 Gaussian 16:  ES64L-G16RevA.03 25-Dec-2016

 -----------------------------------
 #p cam-b3lyp/Def2SVP td=(nstates=5)
 -----------------------------------

 --------------------------------
 TDDFT excited states in gaussian
 --------------------------------
 Symbolic Z-matrix:
 Charge =  0 Multiplicity = 1

                         Standard orientation:
 ---------------------------------------------------------------------
 Center     Atomic      Atomic             Coordinates (Angstroms)
 Number     Number       Type             X           Y           Z
 ---------------------------------------------------------------------
      1         12           0        8.119242   -0.529977    0.250202
      2          6           0        8.286432    2.601324   -1.475839
      3          6           0        8.911274    1.168911    3.101435
      4          6           0        8.423856   -3.331241    1.705109
      5          6           0        8.465267   -2.088105   -2.847889
      6          7           0        8.521776    1.612316    0.636455
      7          6           0        8.495089    2.718795   -0.099864
      8          6           0        8.634650    4.023463    0.740218
      9          6           0        9.378564    3.422928    2.016129
     10          6           0        8.880838    1.990546    1.935664
     11          6           0       10.898704    3.422460    1.890931
     12          6           0        7.245228    4.635820    1.122652
     13          6           0        7.288128    6.070690    1.656187
     14          1           0        6.199096    6.975494    1.320500
     15          7           0        8.115811   -0.981880    2.173382
     16          6           0        8.450955   -0.162085    3.198517
     17          6           0        8.286908   -0.962628    4.430954
     18          6           0        8.012277   -2.369441    4.026543
     19          6           0        8.201392   -2.287930    2.600720
     20          6           0        8.345930   -0.375223    5.807624
     21          6           0        7.648947   -3.595381    4.803199
     22          8           0        7.682460   -4.763656    4.284946
     23          6           0        7.334021   -3.399834    6.229952
     24          7           0        8.623561   -2.437191   -0.432317
     25          6           0        8.625827   -3.488004    0.395193
     26          6           0        8.736886   -4.778484   -0.361289
     27          6           0        8.565177   -4.402893   -1.903754
     28          6           0        8.460994   -2.864301   -1.761808
     29          6           0       10.045609   -5.556931   -0.168222
     30          6           0        7.457139   -5.147797   -2.689750
     31          6           0        6.096593   -4.736261   -2.173367
     32          7           0        8.161268    0.102884   -1.825555
     33          6           0        8.337910   -0.713064   -2.952365
     34          6           0        8.403629    0.178239   -4.125109
     35          6           0        8.276440    1.460199   -3.593841
     36          6           0        8.166268    1.376691   -2.176385
     37          6           0        8.620275   -0.229788   -5.470848
     38          6           0        8.232715    2.882612   -3.891642
     39          8           0        8.187060    3.551157   -4.925304
     40          6           0        8.359852    3.685378   -2.522252
     41          6           0        7.290464    4.743518   -2.514738
     42          8           0        6.083090    4.432484   -2.461147
     43          8           0        7.856555    5.946379   -2.332509
     44          6           0        6.847465    7.038027   -2.285646
     45          1           0        9.382862    1.555099    4.007197
     46          1           0        8.424679   -4.325997    2.155549
     47          1           0        8.487300   -2.507864   -3.855247
     48          1           0        9.250161    4.796661    0.280069
     49          1           0        9.041125    3.889941    2.941199
     50          1           0       11.216155    3.716479    0.890582
     51          1           0       11.207894    2.398770    2.102952
     52          1           0       11.351533    4.039204    2.667687
     53          1           0        6.855961    4.122513    2.001884
     54          1           0        6.555992    4.585330    0.279010
     55          1           0        8.251160    6.541496    1.456641
     56          1           0        7.225343    6.032699    2.743760
     57          1           0        8.726069    0.645454    5.791582
     58          1           0        9.098240   -0.936594    6.361341
     59          1           0        7.387110   -0.438766    6.322365
     60          1           0        8.193011   -2.951897    6.729990
     61          1           0        7.010780   -4.371239    6.602426
     62          1           0        6.519394   -2.680200    6.316319
     63          1           0        7.947032   -5.470525   -0.072091
     64          1           0        9.472994   -4.596964   -2.475488
     65          1           0        9.900180   -6.575025    0.193773
     66          1           0       10.679535   -4.987293    0.510705
     67          1           0       10.676591   -5.617235   -1.054587
     68          1           0        7.544699   -6.223521   -2.541100
     69          1           0        7.488570   -4.957608   -3.762639
     70          1           0        5.958417   -5.383929   -1.308344
     71          1           0        5.331121   -4.923134   -2.927251
     72          1           0        6.102193   -3.707522   -1.812600
     73          1           0        7.920061    0.342228   -6.079507
     74          1           0        8.464335   -1.301791   -5.589575
     75          1           0        9.663144    0.057703   -5.603622
     76          1           0        9.360956    4.114939   -2.502494
     77          1           0        7.125675    7.765266   -3.048507
     78          1           0        6.808406    7.379703   -1.251172
     79          1           0        5.839145    6.776577   -2.608560
     80         12           0       -7.747818   -0.853078   -0.009970
     81          6           0      -10.241982    1.722548    0.146091
     82          6           0       -5.402225    1.622972    0.034824
     83          6           0       -5.548116   -3.062502   -0.599182
     84          6           0      -10.234500   -2.997577   -1.177536
     85          7           0       -7.923376    1.349919    0.080847
     86          6           0       -8.920747    2.213401    0.199222
     87          6           0       -8.476441    3.676685    0.465576
     88          6           0       -6.999650    3.597289   -0.160256
     89          6           0       -6.735733    2.104366    0.024727
     90          6           0       -6.958519    3.908970   -1.647022
     91          6           0       -8.433994    4.019262    1.996215
     92          6           0       -8.309399    5.510051    2.318344
     93          1           0       -8.999247    6.027525    3.496811
     94          7           0       -5.779245   -0.803255    0.236677
     95          6           0       -4.988361    0.290176    0.250918
     96          6           0       -3.617367   -0.207432    0.443080
     97          6           0       -3.644147   -1.693873    0.376108
     98          6           0       -5.018290   -1.914833   -0.027621
     99          6           0       -2.457782    0.697549    0.742761
    100          6           0       -2.601602   -2.742384    0.620884
    101          8           0       -2.779678   -3.963111    0.273113
    102          6           0       -1.329249   -2.280402    1.194637
    103          7           0       -7.820679   -2.693058   -0.975106
    104          6           0       -6.732585   -3.479736   -1.046691
    105          6           0       -7.090160   -4.861868   -1.538878
    106          6           0       -8.688538   -4.912763   -1.552864
    107          6           0       -8.991747   -3.457724   -1.132966
    108          6           0       -6.557268   -5.233892   -2.922354
    109          6           0       -9.362886   -6.066386   -0.760969
    110          6           0       -9.128943   -5.880780    0.720987
    111          7           0       -9.890158   -0.753968   -0.271861
    112          6           0      -10.732135   -1.756719   -0.800690
    113          6           0      -12.090882   -1.183340   -0.887149
    114          6           0      -11.939431    0.131105   -0.420470
    115          6           0      -10.578311    0.367081   -0.087053
    116          6           0      -13.243412   -1.847564   -1.393685
    117          6           0      -12.619527    1.376014   -0.144100
    118          8           0      -13.793280    1.744788   -0.151000
    119          6           0      -11.527660    2.501477    0.115798
    120          6           0      -11.921314    3.252447    1.358217
    121          8           0      -11.928319    2.684437    2.464527
    122          8           0      -12.013153    4.563527    1.070113
    123          6           0      -12.390470    5.351576    2.273620
    124          1           0       -4.596085    2.323448   -0.185069
    125          1           0       -4.850314   -3.894314   -0.720213
    126          1           0      -11.083280   -3.633116   -1.438921
    127          1           0       -9.059304    4.429625   -0.051270
    128          1           0       -6.292603    4.184276    0.420175
    129          1           0       -7.948949    4.017228   -2.063527
    130          1           0       -6.443177    3.076498   -2.107963
    131          1           0       -6.334836    4.788522   -1.830679
    132          1           0       -7.488103    3.656136    2.418307
    133          1           0       -9.287013    3.610342    2.501951
    134          1           0       -8.516891    6.139359    1.444345
    135          1           0       -7.266560    5.726276    2.562800
    136          1           0       -2.712541    1.749796    0.565887
    137          1           0       -1.681079    0.477956    0.002244
    138          1           0       -2.047652    0.539653    1.742522
    139          1           0       -0.885845   -1.536140    0.537426
    140          1           0       -0.746470   -3.184908    1.379364
    141          1           0       -1.536571   -1.777026    2.145553
    142          1           0       -6.720299   -5.621440   -0.861117
    143          1           0       -9.083413   -5.034456   -2.572223
    144          1           0       -5.937209   -6.150185   -2.919345
    145          1           0       -5.993792   -4.394705   -3.308089
    146          1           0       -7.318288   -5.372836   -3.688348
    147          1           0       -8.910812   -7.024506   -1.028937
    148          1           0      -10.428835   -6.150742   -0.944364
    149          1           0       -8.134040   -6.311111    0.869565
    150          1           0       -9.880657   -6.416140    1.297482
    151          1           0       -9.070092   -4.817239    0.979961
    152          1           0      -14.055889   -1.621912   -0.715836
    153          1           0      -13.079946   -2.920041   -1.476503
    154          1           0      -13.329982   -1.368725   -2.372701
    155          1           0      -11.506695    3.146786   -0.763240
    156          1           0      -13.289833    5.918948    2.014947
    157          1           0      -11.489044    5.932570    2.544961
    158          1           0      -12.729265    4.803995    3.145301
 ---------------------------------------------------------------------

 SCF Done:  E(RCAM-B3LYP) =  -4069.81191237     A.U. after   19 cycles

 Excitation energies and oscillator strengths:

 Excited State   1:      Singlet-A      1.6753 eV  740.07 nm  f=0.3870  <S**2>=0.000
     310 -> 316       -0.17005
     311 -> 313        0.13808
     312 -> 314        0.67204
     310 <- 316       -0.10254
 This state for optimization and/or second-order correction.
 Total Energy, E(TD-HF/TD-DFT) =  -4069.75034614
 Copying the excited state density for this state as the 1-particle RhoCI density.

 Excited State   2:      Singlet-A      1.6797 eV  738.14 nm  f=0.3984  <S**2>=0.000
     309 -> 315        0.17223
     311 -> 313        0.67167
     312 -> 314       -0.13796
     309 <- 315        0.10318

 Excited State   3:      Singlet-A      2.1863 eV  567.09 nm  f=0.0537  <S**2>=0.000
     309 -> 313       -0.15377
     310 -> 314        0.62398
     312 -> 316        0.26523

 Excited State   4:      Singlet-A      2.1936 eV  565.22 nm  f=0.1387  <S**2>=0.000
     309 -> 313        0.62204
     310 -> 314        0.15270
     311 -> 315       -0.27088

 Excited State   5:      Singlet-A      2.7306 eV  454.06 nm  f=0.0000  <S**2>=0.000
     312 -> 313        0.70699

 The electronic state is 1-A.
 Alpha  occ. eigenvalues --  -46.87918 -46.87577 -19.26456 -19.26297 -19.19197
 Alpha  occ. eigenvalues --  -19.19105 -19.18909 -19.18612 -19.18297 -19.17976
 Alpha  occ. eigenvalues --  -14.42572 -14.42413 -14.41559 -14.41277 -14.39521
 Alpha  occ. eigenvalues --  -14.39265 -14.38708 -14.38517 -10.39251 -10.39033
 Alpha  occ. eigenvalues --  -10.35541 -10.35288 -10.34519 -10.34155 -10.31861
 Alpha  occ. eigenvalues --  -10.31713 -10.31530 -10.31226 -10.31036 -10.30935
 Alpha  occ. eigenvalues --  -10.30690 -10.30620 -10.30316 -10.30307 -10.30277
 Alpha  occ. eigenvalues --  -10.30053 -10.30024 -10.29818 -10.29744 -10.29366
 Alpha  occ. eigenvalues --  -10.29345 -10.29312 -10.28895 -10.28723 -10.28641
 Alpha  occ. eigenvalues --  -10.28604 -10.28487 -10.28318 -10.28250 -10.28053
 Alpha  occ. eigenvalues --  -10.27914 -10.27909 -10.27846 -10.27698 -10.27594
 Alpha  occ. eigenvalues --  -10.27577 -10.27570 -10.27527 -10.27519 -10.27445
 Alpha  occ. eigenvalues --  -10.27401 -10.27374 -10.27326 -10.27302 -10.27296
 Alpha  occ. eigenvalues --  -10.26979 -10.26885 -10.26630 -10.26498 -10.26352
 Alpha  occ. eigenvalues --  -10.26291 -10.26228 -10.26125 -10.26075 -10.25945
 Alpha  occ. eigenvalues --  -10.25922 -10.25852 -10.25782 -10.25495 -10.25322
 Alpha  occ. eigenvalues --  -10.24952 -10.24895 -10.24788 -10.24719 -10.24673
 Alpha  occ. eigenvalues --  -10.24607  -3.16661  -3.16327  -1.91543  -1.91209
 Alpha  occ. eigenvalues --   -1.91129  -1.90971  -1.90798  -1.90635  -1.16805
 Alpha  occ. eigenvalues --   -1.16590  -1.08758  -1.08586  -1.07308  -1.06889
 Alpha  occ. eigenvalues --   -1.06864  -1.06817  -1.04704  -1.04410  -1.03873
 Alpha  occ. eigenvalues --   -1.03579  -1.03349  -1.02955  -1.02526  -1.02027
 Alpha  occ. eigenvalues --   -0.92097  -0.91907  -0.89610  -0.89417  -0.89326
 Alpha  occ. eigenvalues --   -0.89070  -0.88373  -0.88144  -0.87984  -0.87794
 Alpha  occ. eigenvalues --   -0.87715  -0.87600  -0.87383  -0.87014  -0.85116
 Alpha  occ. eigenvalues --   -0.84920  -0.84018  -0.83804  -0.83061  -0.82830
 Alpha  occ. eigenvalues --   -0.82774  -0.82566  -0.81724  -0.81528  -0.80721
 Alpha  occ. eigenvalues --   -0.80364  -0.78909  -0.78539  -0.77331  -0.77062
 Alpha  occ. eigenvalues --   -0.77061  -0.76826  -0.76053  -0.75757  -0.74990
 Alpha  occ. eigenvalues --   -0.74725  -0.72886  -0.72616  -0.71785  -0.71499
 Alpha  occ. eigenvalues --   -0.69977  -0.69686  -0.69000  -0.68745  -0.67758
 Alpha  occ. eigenvalues --   -0.67520  -0.67359  -0.67119  -0.65422  -0.65194
 Alpha  occ. eigenvalues --   -0.64976  -0.64741  -0.64691  -0.64578  -0.64362
 Alpha  occ. eigenvalues --   -0.64128  -0.62438  -0.62212  -0.60546  -0.60244
 Alpha  occ. eigenvalues --   -0.59935  -0.59713  -0.59102  -0.58912  -0.58620
 Alpha  occ. eigenvalues --   -0.58345  -0.57723  -0.57484  -0.57415  -0.57154
 Alpha  occ. eigenvalues --   -0.56427  -0.56129  -0.56118  -0.55817  -0.55633
 Alpha  occ. eigenvalues --   -0.55443  -0.55364  -0.55177  -0.54639  -0.54420
 Alpha  occ. eigenvalues --   -0.54034  -0.53832  -0.53408  -0.53348  -0.53144
 Alpha  occ. eigenvalues --   -0.53058  -0.53045  -0.52871  -0.52826  -0.52562
 Alpha  occ. eigenvalues --   -0.52505  -0.52333  -0.52026  -0.51812  -0.51751
 Alpha  occ. eigenvalues --   -0.51574  -0.51313  -0.51126  -0.50673  -0.50364
 Alpha  occ. eigenvalues --   -0.50117  -0.50025  -0.49888  -0.49783  -0.49637
 Alpha  occ. eigenvalues --   -0.49396  -0.49336  -0.49224  -0.49115  -0.49025
 Alpha  occ. eigenvalues --   -0.48722  -0.48559  -0.48552  -0.48480  -0.48301
 Alpha  occ. eigenvalues --   -0.48241  -0.47810  -0.47507  -0.47407  -0.47023
 Alpha  occ. eigenvalues --   -0.46907  -0.46692  -0.46630  -0.46472  -0.46471
 Alpha  occ. eigenvalues --   -0.46274  -0.46185  -0.46010  -0.45950  -0.45752
 Alpha  occ. eigenvalues --   -0.45289  -0.45130  -0.44702  -0.44617  -0.44438
 Alpha  occ. eigenvalues --   -0.44394  -0.44249  -0.44209  -0.44139  -0.44045
 Alpha  occ. eigenvalues --   -0.43997  -0.43846  -0.43627  -0.43502  -0.43487
 Alpha  occ. eigenvalues --   -0.43306  -0.43142  -0.42863  -0.42848  -0.42825
 Alpha  occ. eigenvalues --   -0.42742  -0.42473  -0.42111  -0.41893  -0.41821
 Alpha  occ. eigenvalues --   -0.41664  -0.41591  -0.41383  -0.41256  -0.40990
 Alpha  occ. eigenvalues --   -0.40930  -0.40906  -0.40661  -0.40639  -0.40611
 Alpha  occ. eigenvalues --   -0.40419  -0.40389  -0.40152  -0.39505  -0.39357
 Alpha  occ. eigenvalues --   -0.38562  -0.38276  -0.37898  -0.37584  -0.37418
 Alpha  occ. eigenvalues --   -0.37401  -0.37189  -0.37119  -0.36860  -0.36711
 Alpha  occ. eigenvalues --   -0.36315  -0.36144  -0.34404  -0.34172  -0.33938
 Alpha  occ. eigenvalues --   -0.33801  -0.33306  -0.33093  -0.31439  -0.31173
 Alpha  occ. eigenvalues --   -0.31152  -0.30889  -0.30158  -0.29882  -0.29564
 Alpha  occ. eigenvalues --   -0.29440  -0.29235  -0.29127  -0.24199  -0.23953
 Alpha  occ. eigenvalues --   -0.21242  -0.21031
 Alpha virt. eigenvalues --   -0.08889  -0.08704  -0.01862  -0.01599  -0.00171
 Alpha virt. eigenvalues --    0.00066   0.02083   0.02286   0.02959   0.03298
 Alpha virt. eigenvalues --    0.04588   0.04809   0.04933   0.05225   0.06019

 Mulliken charges:
               1
     1  Mg   0.837880
     2  C   -0.003426
     3  C   -0.094449
     4  C   -0.045663
     5  C   -0.063668
     6  N   -0.256803
     7  C   -0.052731
     8  C   -0.013901
     9  C   -0.086945
    10  C    0.046107
    11  C    0.104754
    12  C    0.053569
    13  C   -0.071602
    14  H    0.035222
    15  N   -0.433234
    16  C    0.168235
    17  C   -0.177303
    18  C   -0.003942
    19  C    0.148568
    20  C    0.110165
    21  C    0.012275
    22  O   -0.249030
    23  C    0.062527
    24  N   -0.341156
    25  C    0.041289
    26  C   -0.028277
    27  C   -0.024064
    28  C    0.074825
    29  C    0.076059
    30  C    0.035013
    31  C   -0.004572
    32  N   -0.310437
    33  C    0.080238
    34  C   -0.169678
    35  C    0.008323
    36  C    0.082704
    37  C    0.127329
    38  C    0.045919
    39  O   -0.188501
    40  C   -0.005267
    41  C    0.213034
    42  O   -0.258049
    43  O   -0.304508
    44  C    0.157815
    45  H   -0.017470
    46  H   -0.016354
    47  H   -0.041133
    48  H    0.001068
    49  H   -0.004179
    50  H    0.025585
    51  H    0.016692
    52  H    0.016822
    53  H    0.010702
    54  H    0.043381
    55  H    0.018363
    56  H    0.018009
    57  H    0.005822
    58  H    0.027192
    59  H    0.039287
    60  H    0.037472
    61  H    0.036185
    62  H    0.031048
    63  H    0.017059
    64  H    0.009625
    65  H    0.023631
    66  H    0.012479
    67  H    0.004929
    68  H    0.006902
    69  H    0.004795
    70  H    0.009407
    71  H    0.018975
    72  H    0.028037
    73  H    0.047457
    74  H    0.009420
    75  H    0.046197
    76  H    0.035373
    77  H    0.043237
    78  H    0.046349
    79  H    0.052993
    80  Mg   0.837714
    81  C   -0.016861
    82  C   -0.087792
    83  C   -0.045405
    84  C   -0.064899
    85  N   -0.254575
    86  C   -0.049958
    87  C   -0.015116
    88  C   -0.090442
    89  C    0.045633
    90  C    0.114274
    91  C    0.062571
    92  C   -0.077722
    93  H    0.034405
    94  N   -0.423582
    95  C    0.162781
    96  C   -0.174104
    97  C   -0.007699
    98  C    0.152159
    99  C    0.098970
   100  C    0.015695
   101  O   -0.253227
   102  C    0.061037
   103  N   -0.350020
   104  C    0.037581
   105  C   -0.019869
   106  C   -0.034727
   107  C    0.088789
   108  C    0.073632
   109  C    0.034775
   110  C   -0.007632
   111  N   -0.324045
   112  C    0.078269
   113  C   -0.163313
   114  C    0.002162
   115  C    0.096042
   116  C    0.131516
   117  C    0.042222
   118  O   -0.188237
   119  C    0.000979
   120  C    0.211195
   121  O   -0.251161
   122  O   -0.305581
   123  C    0.152118
   124  H   -0.018827
   125  H   -0.015530
   126  H   -0.040680
   127  H   -0.000724
   128  H   -0.004340
   129  H    0.022321
   130  H    0.014882
   131  H    0.016652
   132  H    0.013788
   133  H    0.037515
   134  H    0.020866
   135  H    0.019512
   136  H    0.009230
   137  H    0.028065
   138  H    0.039262
   139  H    0.039349
   140  H    0.036647
   141  H    0.033256
   142  H    0.014304
   143  H    0.012331
   144  H    0.025022
   145  H    0.011954
   146  H    0.005600
   147  H    0.006127
   148  H    0.003515
   149  H    0.010897
   150  H    0.017717
   151  H    0.030142
   152  H    0.045769
   153  H    0.008357
   154  H    0.046836
   155  H    0.035001
   156  H    0.043780
   157  H    0.049437
   158  H    0.053421
 Sum of Mulliken charges =  -0.00000

 Dipole moment (field-independent basis, Debye):
    X=              5.9937    Y=              2.4588    Z=              3.0999  Tot=              7.1819
 Quadrupole moment (field-independent basis, Debye-Ang):
   XX=           -562.6965   YY=           -479.0342   ZZ=           -508.2378
   XY=             16.3062   XZ=             48.2977   YZ=             45.3426

 Normal termination of Gaussian 16 at Sun Sep 12 08:41:07 2021.
