 Gaussian 16, Revision A.03,
 Gaussian 16:  ES64L-G16RevA.03 25-Dec-2016

 -----------------------------------
 #p cam-b3lyp/Def2SVP td=(nstates=5)
 -----------------------------------

 --------------------------------
 TDDFT excited states in gaussian
 --------------------------------
 Symbolic Z-matrix:
 Charge =  0 Multiplicity = 1

                         Standard orientation:
 ---------------------------------------------------------------------
 Center     Atomic      Atomic             Coordinates (Angstroms)
 Number     Number       Type             X           Y           Z
 ---------------------------------------------------------------------
      1         12           0        5.564183    0.300943    0.574371
      2          6           0        5.754522   -2.802037   -1.199747
      3          6           0        6.687054    1.822629   -2.265822
      4          6           0        5.838187    2.980374    2.248346
      5          6           0        5.560251   -1.555318    3.523938
      6          7           0        6.114250   -0.495753   -1.416444
      7          6           0        6.085440   -1.696406   -1.986334
      8          6           0        6.366787   -1.660054   -3.518292
      9          6           0        7.182589   -0.292198   -3.592017
     10          6           0        6.602495    0.402611   -2.372732
     11          6           0        8.684299   -0.466775   -3.389800
     12          6           0        5.050338   -1.588201   -4.362999
     13          6           0        5.216565   -1.876860   -5.857789
     14          1           0        4.153889   -2.583393   -6.556987
     15          7           0        5.699562    2.178303   -0.025665
     16          6           0        6.164789    2.615004   -1.220714
     17          6           0        6.062673    4.089750   -1.183592
     18          6           0        5.678400    4.484564    0.200081
     19          6           0        5.749831    3.215602    0.878322
     20          6           0        6.270394    4.959432   -2.385364
     21          6           0        5.316102    5.798919    0.815989
     22          8           0        5.241728    5.959246    2.082219
     23          6           0        5.134683    6.930896   -0.110703
     24          7           0        5.903974    0.682348    2.598404
     25          6           0        5.919271    1.933201    3.071814
     26          6           0        5.895142    1.949755    4.571508
     27          6           0        5.613709    0.445021    5.025737
     28          6           0        5.605983   -0.225362    3.629744
     29          6           0        7.171155    2.459219    5.255795
     30          6           0        4.403940    0.208390    5.964291
     31          6           0        3.116657    0.497349    5.225033
     32          7           0        5.464100   -1.802169    1.101576
     33          6           0        5.499615   -2.350581    2.391792
     34          6           0        5.513925   -3.816907    2.237673
     35          6           0        5.502405   -4.020772    0.859214
     36          6           0        5.508693   -2.761448    0.194114
     37          6           0        5.592869   -4.765300    3.295384
     38          6           0        5.511127   -5.009478   -0.206732
     39          8           0        5.414309   -6.236698   -0.252001
     40          6           0        5.797735   -4.260521   -1.582504
     41          6           0        4.792123   -4.754033   -2.586744
     42          8           0        3.578518   -4.493378   -2.457949
     43          8           0        5.436371   -5.246145   -3.656002
     44          6           0        4.495919   -5.726068   -4.703561
     45          1           0        7.254249    2.375660   -3.017079
     46          1           0        5.823062    3.880081    2.867004
     47          1           0        5.473691   -2.199815    4.400627
     48          1           0        6.982195   -2.480891   -3.886972
     49          1           0        6.950937    0.271605   -4.495447
     50          1           0        8.931148   -1.487893   -3.099449
     51          1           0        8.954128    0.230421   -2.596324
     52          1           0        9.234435   -0.142467   -4.273514
     53          1           0        4.709795   -0.553874   -4.410530
     54          1           0        4.290183   -2.252184   -3.949941
     55          1           0        6.183382   -2.334019   -6.070341
     56          1           0        5.244447   -0.925087   -6.388403
     57          1           0        6.702860    4.400492   -3.214282
     58          1           0        7.035315    5.689543   -2.121655
     59          1           0        5.356750    5.474944   -2.681730
     60          1           0        6.056191    7.087995   -0.671678
     61          1           0        4.791797    7.766359    0.498625
     62          1           0        4.370782    6.668592   -0.843233
     63          1           0        5.096177    2.590295    4.942711
     64          1           0        6.457727    0.016418    5.566669
     65          1           0        7.001737    3.301957    5.926463
     66          1           0        7.890583    2.716232    4.478840
     67          1           0        7.720306    1.704891    5.818679
     68          1           0        4.445052    0.888258    6.814605
     69          1           0        4.354408   -0.808209    6.354577
     70          1           0        3.017390    1.577870    5.322254
     71          1           0        2.280847   -0.015949    5.701645
     72          1           0        3.208956    0.272927    4.162206
     73          1           0        4.875689   -5.550194    3.055460
     74          1           0        5.369206   -4.304959    4.257499
     75          1           0        6.634797   -5.074089    3.212376
     76          1           0        6.818817   -4.510641   -1.868779
     77          1           0        4.747523   -6.766726   -4.908404
     78          1           0        4.563588   -5.017228   -5.529013
     79          1           0        3.451060   -5.821675   -4.406125
     80         12           0       -4.995557    0.738532   -0.099390
     81          6           0       -7.697998   -1.596119    0.254557
     82          6           0       -7.192220    2.812377   -1.683210
     83          6           0       -2.544344    2.618014   -0.825009
     84          6           0       -2.810704   -1.918469    0.459609
     85          7           0       -7.141602    0.524248   -0.590126
     86          6           0       -8.078834   -0.380694   -0.351355
     87          6           0       -9.518397    0.073269   -0.713516
     88          6           0       -9.150444    1.188408   -1.808939
     89          6           0       -7.754210    1.563471   -1.316458
     90          6           0       -9.026434    0.630832   -3.217155
     91          6           0      -10.273878    0.698568    0.511343
     92          6           0      -11.780496    0.879464    0.313544
     93          1           0      -12.661406    0.686631    1.462149
     94          7           0       -4.958444    2.642486   -0.658100
     95          6           0       -5.946119    3.331013   -1.267769
     96          6           0       -5.416976    4.686394   -1.484851
     97          6           0       -3.978734    4.695255   -1.102624
     98          6           0       -3.761365    3.282912   -0.861495
     99          6           0       -6.275973    5.833257   -1.932360
    100          6           0       -2.963318    5.791520   -0.987221
    101          8           0       -1.711925    5.540569   -0.869439
    102          6           0       -3.467042    7.167274   -1.109953
    103          7           0       -2.969809    0.367137   -0.383553
    104          6           0       -2.112089    1.370725   -0.638626
    105          6           0       -0.679729    0.904682   -0.531244
    106          6           0       -0.752349   -0.567786    0.088554
    107          6           0       -2.285843   -0.740320    0.151954
    108          6           0        0.107543    0.867044   -1.840889
    109          6           0        0.074927   -0.830772    1.376633
    110          6           0       -0.501740   -0.042251    2.530358
    111          7           0       -5.184409   -1.337100    0.469940
    112          6           0       -4.142484   -2.277956    0.622427
    113          6           0       -4.772908   -3.583687    0.905391
    114          6           0       -6.149506   -3.314367    0.874888
    115          6           0       -6.362454   -1.942163    0.572863
    116          6           0       -4.085317   -4.814841    1.099304
    117          6           0       -7.471145   -3.881109    1.019014
    118          8           0       -7.913828   -4.977396    1.359476
    119          6           0       -8.535086   -2.820938    0.498968
    120          6           0       -9.634085   -2.725852    1.521547
    121          8           0       -9.403120   -2.275764    2.657620
    122          8           0      -10.813901   -2.975887    0.924960
    123          6           0      -11.936111   -2.882532    1.896421
    124          1           0       -7.736965    3.438932   -2.390006
    125          1           0       -1.660123    3.245329   -0.959577
    126          1           0       -2.195804   -2.775503    0.742573
    127          1           0      -10.138487   -0.695295   -1.159109
    128          1           0       -9.819890    2.042192   -1.743702
    129          1           0       -9.090229   -0.447072   -3.230743
    130          1           0       -8.060120    0.957230   -3.578741
    131          1           0       -9.766934    1.096710   -3.873619
    132          1           0       -9.971417    1.747984    0.620853
    133          1           0      -10.092152    0.129264    1.402131
    134          1           0      -12.152331    0.320844   -0.554009
    135          1           0      -11.974430    1.925049    0.062242
    136          1           0       -7.252355    5.487493   -2.293638
    137          1           0       -5.796496    6.265634   -2.817245
    138          1           0       -6.374485    6.608472   -1.169470
    139          1           0       -3.958898    7.287248   -2.072317
    140          1           0       -2.608462    7.811656   -0.911281
    141          1           0       -4.232553    7.329284   -0.342912
    142          1           0       -0.115313    1.540830    0.139464
    143          1           0       -0.379758   -1.325440   -0.616405
    144          1           0        1.031520    1.474916   -1.812346
    145          1           0       -0.542150    1.199987   -2.639380
    146          1           0        0.396585   -0.127098   -2.177564
    147          1           0        1.102072   -0.481837    1.244860
    148          1           0        0.123734   -1.878970    1.652132
    149          1           0       -0.054117    0.947671    2.400877
    150          1           0       -0.211084   -0.485635    3.480608
    151          1           0       -1.587145    0.070614    2.426389
    152          1           0       -4.555723   -5.304904    1.941352
    153          1           0       -3.023577   -4.653977    1.274262
    154          1           0       -4.274207   -5.297444    0.136657
    155          1           0       -8.902904   -3.172200   -0.465874
    156          1           0      -12.476289   -3.833315    1.852896
    157          1           0      -12.497527   -1.971018    1.617635
    158          1           0      -11.684584   -2.830188    2.949249
 ---------------------------------------------------------------------

 SCF Done:  E(RCAM-B3LYP) =  -4069.81253113     A.U. after   19 cycles

 Excitation energies and oscillator strengths:

 Excited State   1:      Singlet-A      1.6536 eV  749.78 nm  f=0.0043  <S**2>=0.000
     309 -> 315       -0.11198
     310 -> 316        0.12557
     311 -> 313       -0.45534
     312 -> 314        0.51481
 This state for optimization and/or second-order correction.
 Total Energy, E(TD-HF/TD-DFT) =  -4069.75176215
 Copying the excited state density for this state as the 1-particle RhoCI density.

 Excited State   2:      Singlet-A      1.6978 eV  730.26 nm  f=0.7059  <S**2>=0.000
     309 -> 315        0.13508
     310 -> 316        0.11813
     311 -> 313        0.51293
     312 -> 314        0.45361

 Excited State   3:      Singlet-A      2.1840 eV  567.70 nm  f=0.1107  <S**2>=0.000
     310 -> 314        0.64276
     312 -> 316       -0.27142

 Excited State   4:      Singlet-A      2.1968 eV  564.38 nm  f=0.0923  <S**2>=0.000
     309 -> 313        0.64014
     311 -> 315       -0.28001

 Excited State   5:      Singlet-A      2.4700 eV  501.97 nm  f=0.0000  <S**2>=0.000
     312 -> 313        0.70639

 The electronic state is 1-A.
 Alpha  occ. eigenvalues --  -46.87900 -46.87464 -19.26398 -19.26216 -19.19162
 Alpha  occ. eigenvalues --  -19.19020 -19.18740 -19.18585 -19.18238 -19.17875
 Alpha  occ. eigenvalues --  -14.42526 -14.42308 -14.41523 -14.41145 -14.39470
 Alpha  occ. eigenvalues --  -14.39164 -14.38680 -14.38399 -10.39213 -10.38946
 Alpha  occ. eigenvalues --  -10.35365 -10.35267 -10.34464 -10.34052 -10.31777
 Alpha  occ. eigenvalues --  -10.31640 -10.31491 -10.31116 -10.30965 -10.30860
 Alpha  occ. eigenvalues --  -10.30651 -10.30572 -10.30247 -10.30193 -10.30156
 Alpha  occ. eigenvalues --  -10.29994 -10.29912 -10.29675 -10.29666 -10.29298
 Alpha  occ. eigenvalues --  -10.29241 -10.29205 -10.28824 -10.28617 -10.28575
 Alpha  occ. eigenvalues --  -10.28545 -10.28429 -10.28228 -10.28184 -10.27990
 Alpha  occ. eigenvalues --  -10.27843 -10.27807 -10.27791 -10.27612 -10.27545
 Alpha  occ. eigenvalues --  -10.27487 -10.27481 -10.27474 -10.27437 -10.27336
 Alpha  occ. eigenvalues --  -10.27295 -10.27283 -10.27243 -10.27161 -10.27116
 Alpha  occ. eigenvalues --  -10.26884 -10.26805 -10.26564 -10.26331 -10.26289
 Alpha  occ. eigenvalues --  -10.26238 -10.26217 -10.26084 -10.25905 -10.25889
 Alpha  occ. eigenvalues --  -10.25809 -10.25678 -10.25546 -10.25454 -10.25150
 Alpha  occ. eigenvalues --  -10.24894 -10.24843 -10.24784 -10.24679 -10.24493
 Alpha  occ. eigenvalues --  -10.24451  -3.16637  -3.16214  -1.91520  -1.91104
 Alpha  occ. eigenvalues --   -1.91096  -1.90946  -1.90685  -1.90522  -1.16750
 Alpha  occ. eigenvalues --   -1.16508  -1.08703  -1.08484  -1.07133  -1.06842
 Alpha  occ. eigenvalues --   -1.06804  -1.06777  -1.04653  -1.04310  -1.03827
 Alpha  occ. eigenvalues --   -1.03465  -1.03302  -1.02829  -1.02481  -1.01909
 Alpha  occ. eigenvalues --   -0.92046  -0.91799  -0.89580  -0.89261  -0.89246
 Alpha  occ. eigenvalues --   -0.88991  -0.88341  -0.87968  -0.87933  -0.87737
 Alpha  occ. eigenvalues --   -0.87568  -0.87486  -0.87257  -0.86963  -0.85042
 Alpha  occ. eigenvalues --   -0.84835  -0.83993  -0.83630  -0.82930  -0.82776
 Alpha  occ. eigenvalues --   -0.82668  -0.82489  -0.81662  -0.81420  -0.80647
 Alpha  occ. eigenvalues --   -0.80267  -0.78814  -0.78452  -0.77270  -0.77004
 Alpha  occ. eigenvalues --   -0.76957  -0.76706  -0.75989  -0.75669  -0.74949
 Alpha  occ. eigenvalues --   -0.74579  -0.72833  -0.72486  -0.71730  -0.71385
 Alpha  occ. eigenvalues --   -0.69967  -0.69476  -0.68922  -0.68660  -0.67687
 Alpha  occ. eigenvalues --   -0.67414  -0.67255  -0.67056  -0.65360  -0.65106
 Alpha  occ. eigenvalues --   -0.64925  -0.64684  -0.64568  -0.64469  -0.64328
 Alpha  occ. eigenvalues --   -0.63958  -0.62384  -0.62097  -0.60452  -0.60159
 Alpha  occ. eigenvalues --   -0.59871  -0.59627  -0.59051  -0.58789  -0.58564
 Alpha  occ. eigenvalues --   -0.58229  -0.57671  -0.57379  -0.57354  -0.57029
 Alpha  occ. eigenvalues --   -0.56354  -0.56061  -0.56008  -0.55728  -0.55524
 Alpha  occ. eigenvalues --   -0.55407  -0.55294  -0.55021  -0.54602  -0.54268
 Alpha  occ. eigenvalues --   -0.53966  -0.53757  -0.53340  -0.53232  -0.53042
 Alpha  occ. eigenvalues --   -0.52987  -0.52966  -0.52729  -0.52727  -0.52536
 Alpha  occ. eigenvalues --   -0.52497  -0.52128  -0.51981  -0.51652  -0.51635
 Alpha  occ. eigenvalues --   -0.51509  -0.51264  -0.51002  -0.50505  -0.50334
 Alpha  occ. eigenvalues --   -0.50068  -0.49917  -0.49819  -0.49644  -0.49534
 Alpha  occ. eigenvalues --   -0.49335  -0.49255  -0.49150  -0.49038  -0.48925
 Alpha  occ. eigenvalues --   -0.48662  -0.48511  -0.48419  -0.48387  -0.48197
 Alpha  occ. eigenvalues --   -0.48142  -0.47729  -0.47413  -0.47324  -0.46934
 Alpha  occ. eigenvalues --   -0.46860  -0.46617  -0.46496  -0.46418  -0.46387
 Alpha  occ. eigenvalues --   -0.46230  -0.46060  -0.45898  -0.45861  -0.45618
 Alpha  occ. eigenvalues --   -0.45249  -0.44994  -0.44647  -0.44518  -0.44356
 Alpha  occ. eigenvalues --   -0.44276  -0.44189  -0.44145  -0.44025  -0.43965
 Alpha  occ. eigenvalues --   -0.43870  -0.43783  -0.43567  -0.43444  -0.43372
 Alpha  occ. eigenvalues --   -0.43204  -0.43085  -0.42790  -0.42770  -0.42721
 Alpha  occ. eigenvalues --   -0.42698  -0.42326  -0.42078  -0.41767  -0.41746
 Alpha  occ. eigenvalues --   -0.41593  -0.41482  -0.41280  -0.41197  -0.40933
 Alpha  occ. eigenvalues --   -0.40808  -0.40775  -0.40626  -0.40589  -0.40521
 Alpha  occ. eigenvalues --   -0.40289  -0.40241  -0.40095  -0.39504  -0.39133
 Alpha  occ. eigenvalues --   -0.38526  -0.38114  -0.37823  -0.37500  -0.37378
 Alpha  occ. eigenvalues --   -0.37336  -0.37044  -0.37012  -0.36816  -0.36606
 Alpha  occ. eigenvalues --   -0.36273  -0.36000  -0.34361  -0.34054  -0.33901
 Alpha  occ. eigenvalues --   -0.33710  -0.33256  -0.32974  -0.31285  -0.31143
 Alpha  occ. eigenvalues --   -0.31086  -0.30780  -0.30103  -0.29778  -0.29487
 Alpha  occ. eigenvalues --   -0.29383  -0.29151  -0.29014  -0.24156  -0.23835
 Alpha  occ. eigenvalues --   -0.21189  -0.20917
 Alpha virt. eigenvalues --   -0.08822  -0.08601  -0.01808  -0.01495  -0.00060
 Alpha virt. eigenvalues --    0.00127   0.02108   0.02193   0.02463   0.03420
 Alpha virt. eigenvalues --    0.04643   0.04905   0.04972   0.05314   0.06037

 Mulliken charges:
               1
     1  Mg   0.830440
     2  C   -0.002929
     3  C   -0.093422
     4  C   -0.045148
     5  C   -0.063561
     6  N   -0.256423
     7  C   -0.053793
     8  C   -0.013675
     9  C   -0.086992
    10  C    0.046372
    11  C    0.104709
    12  C    0.053107
    13  C   -0.071938
    14  H    0.036013
    15  N   -0.434122
    16  C    0.168551
    17  C   -0.176172
    18  C   -0.002796
    19  C    0.148775
    20  C    0.109976
    21  C    0.014723
    22  O   -0.248960
    23  C    0.061331
    24  N   -0.340041
    25  C    0.040711
    26  C   -0.028452
    27  C   -0.023976
    28  C    0.073474
    29  C    0.076076
    30  C    0.035624
    31  C   -0.006519
    32  N   -0.310403
    33  C    0.078556
    34  C   -0.170879
    35  C    0.008064
    36  C    0.080873
    37  C    0.127579
    38  C    0.045364
    39  O   -0.188525
    40  C   -0.005436
    41  C    0.213401
    42  O   -0.259318
    43  O   -0.304368
    44  C    0.157591
    45  H   -0.017195
    46  H   -0.016016
    47  H   -0.041967
    48  H    0.001076
    49  H   -0.003666
    50  H    0.025607
    51  H    0.016702
    52  H    0.016987
    53  H    0.011329
    54  H    0.042676
    55  H    0.018225
    56  H    0.018469
    57  H    0.005607
    58  H    0.027051
    59  H    0.042093
    60  H    0.036150
    61  H    0.036689
    62  H    0.035688
    63  H    0.017291
    64  H    0.009743
    65  H    0.023775
    66  H    0.012677
    67  H    0.004932
    68  H    0.007183
    69  H    0.004622
    70  H    0.010678
    71  H    0.019602
    72  H    0.026194
    73  H    0.046903
    74  H    0.009112
    75  H    0.046349
    76  H    0.035568
    77  H    0.043488
    78  H    0.046657
    79  H    0.053226
    80  Mg   0.837499
    81  C   -0.017291
    82  C   -0.088310
    83  C   -0.045508
    84  C   -0.063912
    85  N   -0.254624
    86  C   -0.049781
    87  C   -0.015060
    88  C   -0.090459
    89  C    0.045654
    90  C    0.114552
    91  C    0.062588
    92  C   -0.077653
    93  H    0.034492
    94  N   -0.423274
    95  C    0.162643
    96  C   -0.175302
    97  C   -0.008479
    98  C    0.152044
    99  C    0.099638
   100  C    0.015266
   101  O   -0.254319
   102  C    0.061339
   103  N   -0.350099
   104  C    0.037511
   105  C   -0.020874
   106  C   -0.037583
   107  C    0.088131
   108  C    0.069240
   109  C    0.032624
   110  C   -0.008911
   111  N   -0.324238
   112  C    0.078285
   113  C   -0.162443
   114  C    0.002088
   115  C    0.096439
   116  C    0.131421
   117  C    0.042528
   118  O   -0.187918
   119  C    0.000913
   120  C    0.211191
   121  O   -0.251151
   122  O   -0.305656
   123  C    0.152134
   124  H   -0.020466
   125  H   -0.016466
   126  H   -0.036262
   127  H   -0.000887
   128  H   -0.004774
   129  H    0.022370
   130  H    0.014320
   131  H    0.015674
   132  H    0.013870
   133  H    0.037639
   134  H    0.020634
   135  H    0.019355
   136  H    0.008411
   137  H    0.025110
   138  H    0.039249
   139  H    0.037609
   140  H    0.035362
   141  H    0.034174
   142  H    0.013412
   143  H    0.021192
   144  H    0.024871
   145  H    0.009960
   146  H    0.012412
   147  H    0.008074
   148  H    0.009190
   149  H    0.010512
   150  H    0.018330
   151  H    0.028940
   152  H    0.045483
   153  H    0.011330
   154  H    0.047797
   155  H    0.034802
   156  H    0.043713
   157  H    0.049284
   158  H    0.053437
 Sum of Mulliken charges =  -0.00000

 Dipole moment (field-independent basis, Debye):
    X=              1.2435    Y=              6.2109    Z=             -5.3578  Tot=              8.2962
 Quadrupole moment (field-independent basis, Debye-Ang):
   XX=           -452.1388   YY=           -546.7848   ZZ=           -476.9700
   XY=            -29.7875   XZ=              9.6124   YZ=            -11.4345

 Normal termination of Gaussian 16 at Sat Sep 11 02:25:11 2021.
