 Gaussian 16, Revision A.03,
 Gaussian 16:  ES64L-G16RevA.03 25-Dec-2016

 -----------------------------------
 #p cam-b3lyp/Def2SVP td=(nstates=5)
 -----------------------------------

 --------------------------------
 TDDFT excited states in gaussian
 --------------------------------
 Symbolic Z-matrix:
 Charge =  0 Multiplicity = 1

                         Standard orientation:
 ---------------------------------------------------------------------
 Center     Atomic      Atomic             Coordinates (Angstroms)
 Number     Number       Type             X           Y           Z
 ---------------------------------------------------------------------
      1         12           0        3.425161    1.166889    0.401838
      2          6           0        4.323096   -1.891084   -1.227496
      3          6           0        4.234135    2.775261   -2.496742
      4          6           0        3.074952    3.910155    1.953761
      5          6           0        3.779281   -0.516237    3.432902
      6          7           0        4.170655    0.426295   -1.546598
      7          6           0        4.416180   -0.774518   -2.061320
      8          6           0        4.708639   -0.742853   -3.591300
      9          6           0        5.204915    0.766699   -3.721531
     10          6           0        4.465641    1.368271   -2.539368
     11          6           0        6.704609    0.936197   -3.500874
     12          6           0        3.423144   -0.999205   -4.447755
     13          6           0        3.674133   -1.308028   -5.926602
     14          1           0        2.804809   -2.260723   -6.600393
     15          7           0        3.154697    3.000397   -0.282228
     16          6           0        3.532776    3.477175   -1.492610
     17          6           0        3.108344    4.893361   -1.523522
     18          6           0        2.623227    5.252807   -0.162070
     19          6           0        2.960337    4.061097    0.573839
     20          6           0        3.140186    5.735030   -2.762204
     21          6           0        1.970442    6.480205    0.390650
     22          8           0        1.841139    6.674403    1.647687
     23          6           0        1.560386    7.503524   -0.587979
     24          7           0        3.638356    1.700320    2.408735
     25          6           0        3.370254    2.942932    2.824693
     26          6           0        3.317600    3.018122    4.321862
     27          6           0        3.366167    1.509281    4.842238
     28          6           0        3.529721    0.794385    3.478257
     29          6           0        4.438586    3.825153    4.991265
     30          6           0        2.222245    1.052377    5.781972
     31          6           0        0.915679    1.018542    5.021157
     32          7           0        3.780918   -0.881958    1.023698
     33          6           0        3.914197   -1.353159    2.337807
     34          6           0        4.253121   -2.785512    2.250838
     35          6           0        4.310121   -3.045882    0.883065
     36          6           0        4.050713   -1.845873    0.161278
     37          6           0        4.520640   -3.646893    3.351243
     38          6           0        4.554089   -4.053182   -0.136584
     39          8           0        4.730207   -5.272351   -0.126516
     40          6           0        4.692372   -3.319240   -1.543010
     41          6           0        3.837061   -4.064872   -2.530829
     42          8           0        2.593835   -4.072789   -2.422700
     43          8           0        4.591802   -4.448344   -3.571913
     44          6           0        3.797797   -5.168233   -4.603160
     45          1           0        4.678560    3.406920   -3.268385
     46          1           0        2.851904    4.810116    2.530613
     47          1           0        3.821638   -1.125724    4.337438
     48          1           0        5.495613   -1.422940   -3.917763
     49          1           0        4.870371    1.226278   -4.651364
     50          1           0        7.164927    0.008010   -3.162499
     51          1           0        6.801051    1.709118   -2.738125
     52          1           0        7.184927    1.335528   -4.394522
     53          1           0        2.864410   -0.068371   -4.544840
     54          1           0        2.820644   -1.796025   -4.010264
     55          1           0        4.721267   -1.549579   -6.111191
     56          1           0        3.501113   -0.397186   -6.499866
     57          1           0        3.698966    5.250081   -3.561663
     58          1           0        3.721298    6.626390   -2.526632
     59          1           0        2.140735    6.023316   -3.088272
     60          1           0        2.434210    7.835609   -1.148960
     61          1           0        1.031923    8.268250   -0.019850
     62          1           0        0.885393    7.048128   -1.313202
     63          1           0        2.391180    3.482172    4.657763
     64          1           0        4.274444    1.300839    5.408153
     65          1           0        4.076682    4.637830    5.621572
     66          1           0        5.097009    4.200796    4.208537
     67          1           0        5.130486    3.235264    5.591866
     68          1           0        2.098440    1.760449    6.600661
     69          1           0        2.390783    0.067569    6.217860
     70          1           0        0.579669    2.053776    5.068281
     71          1           0        0.205182    0.354617    5.514724
     72          1           0        1.073099    0.774567    3.970357
     73          1           0        3.997733   -4.580095    3.142270
     74          1           0        4.184938   -3.206294    4.289742
     75          1           0        5.606219   -3.721748    3.289826
     76          1           0        5.748173   -3.350244   -1.810302
     77          1           0        4.275460   -6.135670   -4.758525
     78          1           0        3.721998   -4.498010   -5.459583
     79          1           0        2.794616   -5.478891   -4.309119
     80         12           0       -4.350465   -0.281256   -0.186127
     81          6           0       -1.454190   -2.120176    0.866994
     82          6           0       -2.439005    2.538442   -0.012242
     83          6           0       -6.986632    1.416125   -0.672903
     84          6           0       -6.274928   -3.008702    0.815474
     85          7           0       -2.233228    0.039214    0.367826
     86          6           0       -1.213235   -0.741680    0.690584
     87          6           0        0.157534   -0.016026    0.753768
     88          6           0       -0.372068    1.474826    1.029013
     89          6           0       -1.756199    1.363848    0.392980
     90          6           0       -0.548631    1.787749    2.505582
     91          6           0        0.944073   -0.105235   -0.600993
     92          6           0        2.414446    0.310849   -0.519552
     93          1           0        3.385038   -0.396615   -1.350162
     94          7           0       -4.576253    1.594512   -0.793655
     95          6           0       -3.690484    2.604295   -0.663245
     96          6           0       -4.338685    3.786568   -1.251659
     97          6           0       -5.743301    3.431067   -1.591366
     98          6           0       -5.831324    2.110767   -1.000471
     99          6           0       -3.605870    5.070053   -1.514461
    100          6           0       -6.831678    4.163956   -2.315585
    101          8           0       -8.048227    3.761340   -2.288196
    102          6           0       -6.447811    5.417923   -2.980193
    103          7           0       -6.355343   -0.639592    0.231459
    104          6           0       -7.305167    0.239911   -0.132183
    105          6           0       -8.685424   -0.352895    0.022287
    106          6           0       -8.454169   -1.903645    0.337401
    107          6           0       -6.911134   -1.921455    0.401594
    108          6           0       -9.555825    0.264277    1.116767
    109          6           0       -9.167160   -2.924445   -0.591173
    110          6           0       -8.576251   -2.858170   -1.981075
    111          7           0       -3.959482   -2.288552    0.510987
    112          6           0       -4.910869   -3.256939    0.899820
    113          6           0       -4.161307   -4.424499    1.407137
    114          6           0       -2.815660   -4.042381    1.298839
    115          6           0       -2.733070   -2.721654    0.780815
    116          6           0       -4.734531   -5.618187    1.929291
    117          6           0       -1.446626   -4.451945    1.514908
    118          8           0       -0.896338   -5.498614    1.854625
    119          6           0       -0.508158   -3.178082    1.363441
    120          6           0        0.647902   -3.555457    0.478203
    121          8           0        0.461136   -3.842156   -0.717428
    122          8           0        1.799734   -3.305995    1.127368
    123          6           0        2.975482   -3.653880    0.285688
    124          1           0       -1.995535    3.505229    0.227629
    125          1           0       -7.924785    1.915779   -0.925265
    126          1           0       -6.799237   -3.936338    1.054785
    127          1           0        0.804104   -0.336078    1.562035
    128          1           0        0.230800    2.211341    0.504174
    129          1           0       -0.401032    0.914170    3.123009
    130          1           0       -1.560355    2.157578    2.608974
    131          1           0        0.105679    2.614521    2.796567
    132          1           0        0.568014    0.666556   -1.284851
    133          1           0        0.869802   -1.089645   -1.020565
    134          1           0        2.768417    0.373122    0.516676
    135          1           0        2.507417    1.332319   -0.896370
    136          1           0       -2.632526    5.088316   -1.008827
    137          1           0       -4.177940    5.869580   -1.031392
    138          1           0       -3.516401    5.293497   -2.579699
    139          1           0       -6.034602    6.104451   -2.245072
    140          1           0       -7.338809    5.748523   -3.517502
    141          1           0       -5.646337    5.203414   -3.695907
    142          1           0       -9.250625   -0.261605   -0.897130
    143          1           0       -8.813588   -2.173436    1.341333
    144          1           0      -10.520724    0.652846    0.739859
    145          1           0       -8.991150    1.051280    1.598736
    146          1           0       -9.788045   -0.396918    1.949891
    147          1           0      -10.225293   -2.670510   -0.691350
    148          1           0       -9.113937   -3.946442   -0.231055
    149          1           0       -9.108487   -2.017249   -2.435671
    150          1           0       -8.764673   -3.783365   -2.521960
    151          1           0       -7.512920   -2.594263   -1.944482
    152          1           0       -4.169878   -6.442289    1.513937
    153          1           0       -5.791023   -5.693752    1.680540
    154          1           0       -4.575066   -5.459347    2.999156
    155          1           0       -0.181268   -2.891213    2.363658
    156          1           0        3.584734   -4.356481    0.862616
    157          1           0        3.442597   -2.689271    0.011640
    158          1           0        2.793915   -4.223892   -0.617947
 ---------------------------------------------------------------------

 SCF Done:  E(RCAM-B3LYP) =  -4068.75007462     A.U. after   23 cycles

 Excitation energies and oscillator strengths:

 Excited State   1:      Singlet-A      0.9931 eV 1248.48 nm  f=0.0858  <S**2>=0.000
     310 -> 314       -0.15973
     312 -> 314        0.65063
     312 -> 315       -0.12442
 This state for optimization and/or second-order correction.
 Total Energy, E(TD-HF/TD-DFT) =  -4068.71357962
 Copying the excited state density for this state as the 1-particle RhoCI density.

 Excited State   2:      Singlet-A      1.6470 eV  752.80 nm  f=0.2350  <S**2>=0.000
     309 -> 317       -0.14288
     311 -> 313        0.60309
     312 -> 313        0.31779

 Excited State   3:      Singlet-A      1.6720 eV  741.55 nm  f=0.0576  <S**2>=0.000
     311 -> 313       -0.30057
     312 -> 313        0.62570

 Excited State   4:      Singlet-A      1.7667 eV  701.77 nm  f=0.0639  <S**2>=0.000
     307 -> 314        0.15215
     310 -> 314        0.61411
     310 -> 316        0.10364
     311 -> 313       -0.10929
     311 -> 314       -0.11692
     312 -> 314        0.14733

 Excited State   5:      Singlet-A      2.1206 eV  584.65 nm  f=0.0559  <S**2>=0.000
     308 -> 314       -0.20595
     312 -> 315        0.64731

 The electronic state is 1-A.
 Alpha  occ. eigenvalues --  -46.87224 -46.84448 -19.29435 -19.29349 -19.23007
 Alpha  occ. eigenvalues --  -19.21527 -19.20148 -19.18428 -19.18006 -19.17029
 Alpha  occ. eigenvalues --  -14.44851 -14.41839 -14.40982 -14.40242 -14.39225
 Alpha  occ. eigenvalues --  -14.38941 -14.38238 -14.37381 -10.42888 -10.41066
 Alpha  occ. eigenvalues --  -10.40304 -10.36280 -10.35105 -10.35032 -10.34243
 Alpha  occ. eigenvalues --  -10.33757 -10.33713 -10.33133 -10.32825 -10.31893
 Alpha  occ. eigenvalues --  -10.31714 -10.30897 -10.30703 -10.30556 -10.30401
 Alpha  occ. eigenvalues --  -10.30360 -10.30108 -10.30063 -10.29975 -10.29738
 Alpha  occ. eigenvalues --  -10.29573 -10.29343 -10.29068 -10.29021 -10.28708
 Alpha  occ. eigenvalues --  -10.28476 -10.28403 -10.28316 -10.28182 -10.28077
 Alpha  occ. eigenvalues --  -10.27672 -10.27620 -10.27506 -10.27455 -10.27419
 Alpha  occ. eigenvalues --  -10.27232 -10.27204 -10.27138 -10.27131 -10.27101
 Alpha  occ. eigenvalues --  -10.27027 -10.27018 -10.26804 -10.26680 -10.26295
 Alpha  occ. eigenvalues --  -10.26246 -10.26149 -10.26131 -10.25916 -10.25915
 Alpha  occ. eigenvalues --  -10.25633 -10.25566 -10.25545 -10.25295 -10.25203
 Alpha  occ. eigenvalues --  -10.25143 -10.24719 -10.24668 -10.24659 -10.24595
 Alpha  occ. eigenvalues --  -10.24541 -10.24359 -10.24336 -10.24311 -10.22271
 Alpha  occ. eigenvalues --  -10.19590  -3.17989  -3.15975  -1.94440  -1.91802
 Alpha  occ. eigenvalues --   -1.91400  -1.90858  -1.90443  -1.90285  -1.22574
 Alpha  occ. eigenvalues --   -1.19911  -1.17854  -1.13029  -1.11118  -1.10919
 Alpha  occ. eigenvalues --   -1.08805  -1.07940  -1.06682  -1.05536  -1.03934
 Alpha  occ. eigenvalues --   -1.03191  -1.03103  -1.02670  -1.02224  -1.01721
 Alpha  occ. eigenvalues --   -1.01348  -0.95145  -0.91850  -0.91691  -0.89546
 Alpha  occ. eigenvalues --   -0.89209  -0.88864  -0.88227  -0.88165  -0.87902
 Alpha  occ. eigenvalues --   -0.87469  -0.87313  -0.87047  -0.86762  -0.85956
 Alpha  occ. eigenvalues --   -0.85554  -0.84970  -0.84200  -0.83625  -0.83372
 Alpha  occ. eigenvalues --   -0.82934  -0.82596  -0.82359  -0.81969  -0.81472
 Alpha  occ. eigenvalues --   -0.81087  -0.80213  -0.79452  -0.78869  -0.78242
 Alpha  occ. eigenvalues --   -0.78127  -0.77205  -0.76792  -0.76299  -0.76096
 Alpha  occ. eigenvalues --   -0.75293  -0.74456  -0.73907  -0.72501  -0.72194
 Alpha  occ. eigenvalues --   -0.71395  -0.71023  -0.69960  -0.69617  -0.69386
 Alpha  occ. eigenvalues --   -0.69135  -0.68312  -0.68000  -0.67771  -0.67328
 Alpha  occ. eigenvalues --   -0.66811  -0.65926  -0.65051  -0.64774  -0.64341
 Alpha  occ. eigenvalues --   -0.64167  -0.63946  -0.63857  -0.63288  -0.62270
 Alpha  occ. eigenvalues --   -0.61897  -0.60290  -0.60008  -0.59947  -0.59360
 Alpha  occ. eigenvalues --   -0.58849  -0.58746  -0.58642  -0.58433  -0.58163
 Alpha  occ. eigenvalues --   -0.57931  -0.57806  -0.57282  -0.56955  -0.56635
 Alpha  occ. eigenvalues --   -0.56407  -0.55944  -0.55716  -0.55063  -0.54987
 Alpha  occ. eigenvalues --   -0.54862  -0.54727  -0.54498  -0.54233  -0.54062
 Alpha  occ. eigenvalues --   -0.53695  -0.53476  -0.53199  -0.53025  -0.52707
 Alpha  occ. eigenvalues --   -0.52558  -0.52376  -0.52225  -0.52155  -0.52078
 Alpha  occ. eigenvalues --   -0.51739  -0.51588  -0.51503  -0.51295  -0.51237
 Alpha  occ. eigenvalues --   -0.51162  -0.50354  -0.50244  -0.50027  -0.49781
 Alpha  occ. eigenvalues --   -0.49667  -0.49644  -0.49562  -0.49353  -0.49187
 Alpha  occ. eigenvalues --   -0.48942  -0.48893  -0.48784  -0.48518  -0.48421
 Alpha  occ. eigenvalues --   -0.48274  -0.48067  -0.47971  -0.47832  -0.47734
 Alpha  occ. eigenvalues --   -0.47446  -0.47326  -0.47188  -0.46988  -0.46645
 Alpha  occ. eigenvalues --   -0.46526  -0.46260  -0.46115  -0.45932  -0.45783
 Alpha  occ. eigenvalues --   -0.45753  -0.45684  -0.45475  -0.45310  -0.45122
 Alpha  occ. eigenvalues --   -0.44825  -0.44705  -0.44577  -0.44341  -0.44179
 Alpha  occ. eigenvalues --   -0.44016  -0.43873  -0.43800  -0.43515  -0.43360
 Alpha  occ. eigenvalues --   -0.43316  -0.42944  -0.42794  -0.42787  -0.42357
 Alpha  occ. eigenvalues --   -0.42152  -0.42048  -0.41849  -0.41688  -0.41542
 Alpha  occ. eigenvalues --   -0.41488  -0.41290  -0.41146  -0.41057  -0.40656
 Alpha  occ. eigenvalues --   -0.40569  -0.40394  -0.40249  -0.40193  -0.40050
 Alpha  occ. eigenvalues --   -0.39908  -0.39536  -0.39404  -0.39191  -0.39165
 Alpha  occ. eigenvalues --   -0.38803  -0.38415  -0.38093  -0.37992  -0.37625
 Alpha  occ. eigenvalues --   -0.37242  -0.36945  -0.36891  -0.36635  -0.36347
 Alpha  occ. eigenvalues --   -0.35881  -0.35278  -0.34438  -0.34366  -0.33947
 Alpha  occ. eigenvalues --   -0.33643  -0.32803  -0.32181  -0.32050  -0.30983
 Alpha  occ. eigenvalues --   -0.30542  -0.29950  -0.29644  -0.29009  -0.28894
 Alpha  occ. eigenvalues --   -0.27669  -0.26793  -0.24997  -0.23655  -0.22883
 Alpha  occ. eigenvalues --   -0.20646  -0.18523
 Alpha virt. eigenvalues --   -0.08428  -0.07603  -0.02434  -0.02273  -0.01256
 Alpha virt. eigenvalues --    0.00370   0.00902   0.01388   0.02407   0.03113
 Alpha virt. eigenvalues --    0.03554   0.04162   0.05050   0.05339   0.05584

 Mulliken charges:
               1
     1  Mg   0.713032
     2  C   -0.119146
     3  C   -0.049800
     4  C   -0.075442
     5  C   -0.123843
     6  N   -0.167534
     7  C   -0.031340
     8  C   -0.000693
     9  C   -0.059337
    10  C    0.017056
    11  C    0.107999
    12  C    0.044136
    13  C   -0.072742
    14  H    0.038239
    15  N   -0.435042
    16  C    0.144012
    17  C   -0.176114
    18  C   -0.024665
    19  C    0.151876
    20  C    0.113411
    21  C    0.000330
    22  O   -0.261386
    23  C    0.065661
    24  N   -0.344370
    25  C    0.048973
    26  C   -0.023392
    27  C   -0.030432
    28  C    0.117521
    29  C    0.079715
    30  C    0.067994
    31  C   -0.057506
    32  N   -0.281688
    33  C    0.144176
    34  C   -0.236936
    35  C   -0.028788
    36  C    0.417167
    37  C    0.148107
    38  C   -0.210134
    39  O   -0.172693
    40  C    0.016413
    41  C    0.266527
    42  O   -0.233337
    43  O   -0.296580
    44  C    0.151404
    45  H   -0.015194
    46  H   -0.029322
    47  H   -0.051030
    48  H   -0.007764
    49  H   -0.008614
    50  H    0.015592
    51  H    0.021434
    52  H    0.014244
    53  H    0.021272
    54  H    0.043880
    55  H    0.017880
    56  H    0.023180
    57  H   -0.005011
    58  H    0.019602
    59  H    0.029608
    60  H    0.034833
    61  H    0.028129
    62  H    0.023095
    63  H    0.012067
    64  H    0.011883
    65  H    0.020405
    66  H    0.014475
    67  H   -0.000495
    68  H    0.004571
    69  H    0.000559
    70  H    0.019814
    71  H    0.019007
    72  H    0.045457
    73  H    0.024609
    74  H    0.014368
    75  H    0.031438
    76  H    0.060377
    77  H    0.052898
    78  H    0.057034
    79  H    0.066144
    80  Mg   0.836083
    81  C   -0.018898
    82  C   -0.089693
    83  C   -0.046558
    84  C   -0.065548
    85  N   -0.259753
    86  C   -0.025277
    87  C   -0.055686
    88  C   -0.112262
    89  C    0.058118
    90  C    0.099285
    91  C    0.206412
    92  C   -0.449087
    93  H    0.193651
    94  N   -0.423855
    95  C    0.163732
    96  C   -0.173213
    97  C   -0.008461
    98  C    0.152917
    99  C    0.097711
   100  C    0.015054
   101  O   -0.253886
   102  C    0.061640
   103  N   -0.349951
   104  C    0.037853
   105  C   -0.019852
   106  C   -0.034236
   107  C    0.087853
   108  C    0.073876
   109  C    0.035109
   110  C   -0.007400
   111  N   -0.323133
   112  C    0.076985
   113  C   -0.164446
   114  C    0.001562
   115  C    0.094843
   116  C    0.131768
   117  C    0.042623
   118  O   -0.190808
   119  C   -0.002745
   120  C    0.238793
   121  O   -0.221616
   122  O   -0.272882
   123  C    0.522593
   124  H   -0.009427
   125  H   -0.016482
   126  H   -0.042198
   127  H    0.008062
   128  H    0.037539
   129  H    0.034784
   130  H    0.001368
   131  H    0.032999
   132  H   -0.003323
   133  H    0.005220
   134  H   -0.153214
   135  H    0.209369
   136  H    0.014480
   137  H    0.027170
   138  H    0.037350
   139  H    0.039081
   140  H    0.035338
   141  H    0.032949
   142  H    0.013510
   143  H    0.011592
   144  H    0.024348
   145  H    0.012105
   146  H    0.005126
   147  H    0.005378
   148  H    0.002863
   149  H    0.010463
   150  H    0.016571
   151  H    0.030379
   152  H    0.044197
   153  H    0.007930
   154  H    0.045739
   155  H    0.037379
   156  H    0.043587
   157  H   -0.332369
   158  H    0.099684
 Sum of Mulliken charges =  -0.00000

 Dipole moment (field-independent basis, Debye):
    X=              3.5408    Y=             -0.2089    Z=             -4.3568  Tot=              5.6181
 Quadrupole moment (field-independent basis, Debye-Ang):
   XX=           -495.8321   YY=           -546.4678   ZZ=           -476.2966
   XY=              9.8718   XZ=            -30.9449   YZ=             -4.4684

 Normal termination of Gaussian 16 at Thu Sep  9 01:52:59 2021.
