 Gaussian 16, Revision A.03,
 Gaussian 16:  ES64L-G16RevA.03 25-Dec-2016

 -----------------------------------
 #p cam-b3lyp/Def2SVP td=(nstates=5)
 -----------------------------------

 --------------------------------
 TDDFT excited states in gaussian
 --------------------------------
 Symbolic Z-matrix:
 Charge =  0 Multiplicity = 1

                         Standard orientation:
 ---------------------------------------------------------------------
 Center     Atomic      Atomic             Coordinates (Angstroms)
 Number     Number       Type             X           Y           Z
 ---------------------------------------------------------------------
      1         12           0        5.107444   -1.090136    0.282926
      2          6           0        5.799680    1.678214   -1.877921
      3          6           0        6.456684    0.746494    2.822495
      4          6           0        4.923894   -3.678056    2.106549
      5          6           0        4.877966   -3.072687   -2.574082
      6          7           0        5.981922    0.942750    0.340453
      7          6           0        6.133272    1.923515   -0.544059
      8          6           0        6.609307    3.262824    0.093919
      9          6           0        7.305087    2.683263    1.406168
     10          6           0        6.511284    1.397226    1.554190
     11          6           0        8.776640    2.332491    1.211253
     12          6           0        5.414127    4.209735    0.449777
     13          6           0        5.799990    5.656631    0.770644
     14          1           0        4.904268    6.727617    0.360742
     15          7           0        5.156011   -1.278157    2.248922
     16          6           0        5.734359   -0.426816    3.129841
     17          6           0        5.499818   -1.005797    4.470159
     18          6           0        4.903976   -2.357958    4.283807
     19          6           0        4.996201   -2.504724    2.853656
     20          6           0        5.786949   -0.273102    5.744703
     21          6           0        4.350439   -3.363298    5.243505
     22          8           0        4.096534   -4.567230    4.896152
     23          6           0        4.194233   -2.920851    6.640960
     24          7           0        5.143581   -3.133291   -0.143509
     25          6           0        4.987184   -4.043092    0.824368
     26          6           0        4.764763   -5.412985    0.255279
     27          6           0        4.558591   -5.211122   -1.315230
     28          6           0        4.793039   -3.682135   -1.389418
     29          6           0        5.890322   -6.428487    0.495867
     30          6           0        3.261275   -5.789284   -1.934196
     31          6           0        2.062068   -5.025620   -1.418621
     32          7           0        5.123026   -0.755311   -1.861530
     33          6           0        5.036390   -1.728557   -2.867493
     34          6           0        5.198871   -1.032495   -4.157131
     35          6           0        5.386515    0.303639   -3.808734
     36          6           0        5.370151    0.430041   -2.390268
     37          6           0        5.220626   -1.648343   -5.439586
     38          6           0        5.621624    1.650242   -4.303953
     39          8           0        5.639173    2.173337   -5.419102
     40          6           0        6.020072    2.575270   -3.070507
     41          6           0        5.202193    3.834501   -3.163882
     42          8           0        3.964099    3.806067   -3.009991
     43          8           0        6.021916    4.896704   -3.181763
     44          6           0        5.272888    6.180159   -3.243837
     45          1           0        7.067220    1.133154    3.640835
     46          1           0        4.749038   -4.582000    2.693702
     47          1           0        4.733542   -3.613428   -3.511201
     48          1           0        7.337171    3.815791   -0.500106
     49          1           0        7.145852    3.328412    2.269968
     50          1           0        9.071425    2.417911    0.165440
     51          1           0        8.877875    1.302013    1.552370
     52          1           0        9.407723    2.929564    1.870051
     53          1           0        4.993748    3.912426    1.410480
     54          1           0        4.667201    4.203545   -0.344823
     55          1           0        6.822565    5.874435    0.461112
     56          1           0        5.814135    5.774056    1.854254
     57          1           0        6.371788    0.628224    5.565487
     58          1           0        6.443836   -0.909842    6.336962
     59          1           0        4.878684   -0.057344    6.307585
     60          1           0        5.164211   -2.612003    7.031221
     61          1           0        3.702561   -3.741039    7.162880
     62          1           0        3.559118   -2.034770    6.661885
     63          1           0        3.871062   -5.871214    0.676884
     64          1           0        5.358359   -5.672127   -1.895333
     65          1           0        5.561246   -7.334262    1.005755
     66          1           0        6.680419   -5.929398    1.056178
     67          1           0        6.424487   -6.739895   -0.401412
     68          1           0        3.130700   -6.829535   -1.637931
     69          1           0        3.249861   -5.750751   -3.023524
     70          1           0        1.856877   -5.509881   -0.464567
     71          1           0        1.218919   -5.135345   -2.101462
     72          1           0        2.312533   -3.985537   -1.208904
     73          1           0        4.612540   -1.019852   -6.090123
     74          1           0        4.833075   -2.665976   -5.396795
     75          1           0        6.287380   -1.616732   -5.660700
     76          1           0        7.087838    2.773125   -3.159121
     77          1           0        5.639172    6.723765   -4.114792
     78          1           0        5.386302    6.652640   -2.267977
     79          1           0        4.210377    6.107324   -3.478580
     80         12           0       -5.268476    1.004563    0.624928
     81          6           0       -5.719355   -1.940258   -1.376013
     82          6           0       -4.152882    2.567809   -2.193993
     83          6           0       -4.437413    3.470168    2.440847
     84          6           0       -5.318113   -1.062630    3.430274
     85          7           0       -5.015481    0.299644   -1.456263
     86          6           0       -5.277728   -0.820941   -2.111901
     87          6           0       -5.130853   -0.713588   -3.653478
     88          6           0       -4.107969    0.523002   -3.712049
     89          6           0       -4.465676    1.198924   -2.389984
     90          6           0       -2.649333    0.100776   -3.653306
     91          6           0       -6.488652   -0.369895   -4.360781
     92          6           0       -6.486828   -0.553309   -5.880019
     93          1           0       -7.708096   -1.027166   -6.525362
     94          7           0       -4.888286    2.889813    0.135160
     95          6           0       -4.465371    3.350424   -1.060777
     96          6           0       -4.314287    4.805019   -0.901097
     97          6           0       -4.524077    5.143815    0.532745
     98          6           0       -4.605969    3.816260    1.108040
     99          6           0       -4.079092    5.730668   -2.059239
    100          6           0       -4.620585    6.446921    1.266782
    101          8           0       -4.566776    6.504707    2.546081
    102          6           0       -4.686004    7.661375    0.440766
    103          7           0       -4.715125    1.161038    2.622843
    104          6           0       -4.455251    2.358486    3.176478
    105          6           0       -4.349939    2.253355    4.679216
    106          6           0       -4.834723    0.773004    5.041353
    107          6           0       -5.061535    0.225041    3.615283
    108          6           0       -2.959078    2.491154    5.266878
    109          6           0       -5.986722    0.642848    6.075106
    110          6           0       -7.268321    1.192788    5.491631
    111          7           0       -5.661075   -1.084728    1.010670
    112          6           0       -5.602188   -1.747949    2.255951
    113          6           0       -5.834919   -3.183480    1.996106
    114          6           0       -5.991443   -3.259665    0.603912
    115          6           0       -5.845098   -1.966089    0.034040
    116          6           0       -5.831681   -4.217219    2.974618
    117          6           0       -6.236625   -4.141817   -0.514290
    118          8           0       -6.523582   -5.332119   -0.635075
    119          6           0       -5.945734   -3.345980   -1.859053
    120          6           0       -7.094717   -3.587218   -2.799360
    121          8           0       -8.232613   -3.164914   -2.528340
    122          8           0       -6.620246   -4.082557   -3.956903
    123          6           0       -7.721243   -4.328030   -4.926115
    124          1           0       -3.576148    3.083386   -2.962391
    125          1           0       -4.258682    4.302749    3.125202
    126          1           0       -5.446170   -1.757828    4.262721
    127          1           0       -4.691827   -1.582146   -4.129542
    128          1           0       -4.330301    1.180223   -4.548699
    129          1           0       -2.543414   -0.956771   -3.462195
    130          1           0       -2.208586    0.676418   -2.849927
    131          1           0       -2.130460    0.409684   -4.565267
    132          1           0       -6.658735    0.712887   -4.302449
    133          1           0       -7.295261   -0.930697   -3.930067
    134          1           0       -5.620923   -1.131756   -6.224337
    135          1           0       -6.358124    0.425878   -6.347612
    136          1           0       -3.804503    5.178282   -2.966365
    137          1           0       -3.187951    6.321283   -1.820674
    138          1           0       -4.916854    6.409399   -2.232851
    139          1           0       -3.803383    7.715661   -0.192078
    140          1           0       -4.841352    8.483663    1.141901
    141          1           0       -5.549352    7.582622   -0.229331
    142          1           0       -5.005790    2.966280    5.163672
    143          1           0       -4.023664    0.175126    5.482436
    144          1           0       -2.935146    3.304664    6.016331
    145          1           0       -2.276767    2.702540    4.454276
    146          1           0       -2.500039    1.621297    5.733610
    147          1           0       -5.768141    1.241126    6.963049
    148          1           0       -6.156167   -0.376040    6.406992
    149          1           0       -7.179532    2.268439    5.671057
    150          1           0       -8.132601    0.776931    6.005546
    151          1           0       -7.303495    1.041410    4.406509
    152          1           0       -6.674063   -4.858776    2.752544
    153          1           0       -5.894878   -3.811236    3.982074
    154          1           0       -4.857312   -4.671293    2.775420
    155          1           0       -5.002395   -3.716876   -2.261712
    156          1           0       -7.653489   -5.377939   -5.227428
    157          1           0       -7.596087   -3.567232   -5.719379
    158          1           0       -8.737525   -4.280304   -4.552802
 ---------------------------------------------------------------------

 SCF Done:  E(RCAM-B3LYP) =  -4069.81225848     A.U. after   19 cycles

 Excitation energies and oscillator strengths:

 Excited State   1:      Singlet-A      1.6689 eV  742.93 nm  f=0.2498  <S**2>=0.000
     309 -> 315        0.10440
     310 -> 316        0.13630
     311 -> 313        0.41399
     312 -> 314        0.54727
 This state for optimization and/or second-order correction.
 Total Energy, E(TD-HF/TD-DFT) =  -4069.75092894
 Copying the excited state density for this state as the 1-particle RhoCI density.

 Excited State   2:      Singlet-A      1.6831 eV  736.62 nm  f=0.4518  <S**2>=0.000
     309 -> 315        0.14058
     310 -> 316       -0.10576
     311 -> 313        0.54657
     312 -> 314       -0.41364

 Excited State   3:      Singlet-A      2.1857 eV  567.25 nm  f=0.0930  <S**2>=0.000
     310 -> 314        0.63748
     312 -> 316       -0.26980

 Excited State   4:      Singlet-A      2.1926 eV  565.46 nm  f=0.1036  <S**2>=0.000
     309 -> 313        0.63570
     311 -> 315       -0.27575

 Excited State   5:      Singlet-A      2.4778 eV  500.38 nm  f=0.0000  <S**2>=0.000
     312 -> 313        0.70709

 The electronic state is 1-A.
 Alpha  occ. eigenvalues --  -46.87892 -46.87487 -19.26472 -19.26220 -19.19218
 Alpha  occ. eigenvalues --  -19.19026 -19.18899 -19.18580 -19.18311 -19.17899
 Alpha  occ. eigenvalues --  -14.42545 -14.42306 -14.41538 -14.41197 -14.39497
 Alpha  occ. eigenvalues --  -14.39177 -14.38693 -14.38430 -10.39268 -10.38954
 Alpha  occ. eigenvalues --  -10.35531 -10.35258 -10.34532 -10.34076 -10.31880
 Alpha  occ. eigenvalues --  -10.31639 -10.31509 -10.31102 -10.31004 -10.30827
 Alpha  occ. eigenvalues --  -10.30677 -10.30608 -10.30283 -10.30241 -10.30179
 Alpha  occ. eigenvalues --  -10.30011 -10.29982 -10.29755 -10.29735 -10.29347
 Alpha  occ. eigenvalues --  -10.29258 -10.29236 -10.28846 -10.28629 -10.28493
 Alpha  occ. eigenvalues --  -10.28469 -10.28461 -10.28226 -10.28207 -10.27901
 Alpha  occ. eigenvalues --  -10.27863 -10.27825 -10.27820 -10.27684 -10.27563
 Alpha  occ. eigenvalues --  -10.27551 -10.27508 -10.27500 -10.27450 -10.27423
 Alpha  occ. eigenvalues --  -10.27310 -10.27299 -10.27298 -10.27295 -10.27233
 Alpha  occ. eigenvalues --  -10.26899 -10.26803 -10.26494 -10.26491 -10.26318
 Alpha  occ. eigenvalues --  -10.26288 -10.26211 -10.26110 -10.26064 -10.25980
 Alpha  occ. eigenvalues --  -10.25773 -10.25699 -10.25638 -10.25474 -10.25371
 Alpha  occ. eigenvalues --  -10.24948 -10.24877 -10.24708 -10.24701 -10.24655
 Alpha  occ. eigenvalues --  -10.24536  -3.16635  -3.16237  -1.91517  -1.91119
 Alpha  occ. eigenvalues --   -1.91103  -1.90946  -1.90707  -1.90544  -1.16821
 Alpha  occ. eigenvalues --   -1.16512  -1.08776  -1.08510  -1.07298  -1.06837
 Alpha  occ. eigenvalues --   -1.06835  -1.06811  -1.04679  -1.04304  -1.03851
 Alpha  occ. eigenvalues --   -1.03490  -1.03332  -1.02876  -1.02508  -1.01943
 Alpha  occ. eigenvalues --   -0.92086  -0.91817  -0.89594  -0.89360  -0.89282
 Alpha  occ. eigenvalues --   -0.88910  -0.88354  -0.88104  -0.87987  -0.87766
 Alpha  occ. eigenvalues --   -0.87627  -0.87496  -0.87366  -0.86945  -0.85077
 Alpha  occ. eigenvalues --   -0.84794  -0.84005  -0.83774  -0.83047  -0.82789
 Alpha  occ. eigenvalues --   -0.82748  -0.82463  -0.81720  -0.81443  -0.80708
 Alpha  occ. eigenvalues --   -0.80280  -0.78895  -0.78457  -0.77307  -0.77037
 Alpha  occ. eigenvalues --   -0.76967  -0.76727  -0.76035  -0.75633  -0.74974
 Alpha  occ. eigenvalues --   -0.74684  -0.72873  -0.72527  -0.71765  -0.71407
 Alpha  occ. eigenvalues --   -0.69960  -0.69652  -0.68970  -0.68631  -0.67744
 Alpha  occ. eigenvalues --   -0.67441  -0.67314  -0.67018  -0.65388  -0.65076
 Alpha  occ. eigenvalues --   -0.64964  -0.64720  -0.64606  -0.64484  -0.64345
 Alpha  occ. eigenvalues --   -0.64073  -0.62438  -0.62135  -0.60529  -0.60183
 Alpha  occ. eigenvalues --   -0.59902  -0.59581  -0.59086  -0.58830  -0.58608
 Alpha  occ. eigenvalues --   -0.58266  -0.57727  -0.57404  -0.57402  -0.57097
 Alpha  occ. eigenvalues --   -0.56419  -0.56124  -0.56030  -0.55731  -0.55621
 Alpha  occ. eigenvalues --   -0.55436  -0.55289  -0.55128  -0.54635  -0.54369
 Alpha  occ. eigenvalues --   -0.53991  -0.53685  -0.53396  -0.53325  -0.53072
 Alpha  occ. eigenvalues --   -0.53036  -0.52970  -0.52847  -0.52730  -0.52492
 Alpha  occ. eigenvalues --   -0.52480  -0.52300  -0.52043  -0.51728  -0.51720
 Alpha  occ. eigenvalues --   -0.51464  -0.51303  -0.51043  -0.50654  -0.50306
 Alpha  occ. eigenvalues --   -0.50095  -0.50006  -0.49811  -0.49716  -0.49615
 Alpha  occ. eigenvalues --   -0.49328  -0.49305  -0.49199  -0.49018  -0.48895
 Alpha  occ. eigenvalues --   -0.48714  -0.48554  -0.48536  -0.48375  -0.48262
 Alpha  occ. eigenvalues --   -0.48181  -0.47789  -0.47418  -0.47391  -0.46953
 Alpha  occ. eigenvalues --   -0.46887  -0.46655  -0.46543  -0.46460  -0.46346
 Alpha  occ. eigenvalues --   -0.46267  -0.46110  -0.45952  -0.45950  -0.45665
 Alpha  occ. eigenvalues --   -0.45272  -0.45094  -0.44702  -0.44591  -0.44360
 Alpha  occ. eigenvalues --   -0.44277  -0.44239  -0.44179  -0.44128  -0.43944
 Alpha  occ. eigenvalues --   -0.43925  -0.43771  -0.43629  -0.43472  -0.43407
 Alpha  occ. eigenvalues --   -0.43209  -0.43128  -0.42858  -0.42789  -0.42745
 Alpha  occ. eigenvalues --   -0.42727  -0.42423  -0.42092  -0.41821  -0.41808
 Alpha  occ. eigenvalues --   -0.41625  -0.41507  -0.41275  -0.41233  -0.40953
 Alpha  occ. eigenvalues --   -0.40906  -0.40801  -0.40642  -0.40563  -0.40522
 Alpha  occ. eigenvalues --   -0.40346  -0.40325  -0.40035  -0.39487  -0.39323
 Alpha  occ. eigenvalues --   -0.38535  -0.38224  -0.37845  -0.37464  -0.37396
 Alpha  occ. eigenvalues --   -0.37366  -0.37119  -0.37003  -0.36866  -0.36642
 Alpha  occ. eigenvalues --   -0.36302  -0.36074  -0.34386  -0.34083  -0.33952
 Alpha  occ. eigenvalues --   -0.33720  -0.33291  -0.33004  -0.31428  -0.31140
 Alpha  occ. eigenvalues --   -0.31133  -0.30802  -0.30173  -0.29805  -0.29551
 Alpha  occ. eigenvalues --   -0.29434  -0.29157  -0.29043  -0.24179  -0.23861
 Alpha  occ. eigenvalues --   -0.21224  -0.20941
 Alpha virt. eigenvalues --   -0.08874  -0.08618  -0.01840  -0.01519  -0.00155
 Alpha virt. eigenvalues --    0.00145   0.02082   0.02360   0.03012   0.03386
 Alpha virt. eigenvalues --    0.04625   0.04920   0.04926   0.05306   0.06079

 Mulliken charges:
               1
     1  Mg   0.838742
     2  C   -0.003307
     3  C   -0.093972
     4  C   -0.045668
     5  C   -0.063989
     6  N   -0.256880
     7  C   -0.052429
     8  C   -0.014120
     9  C   -0.087064
    10  C    0.046495
    11  C    0.104747
    12  C    0.053402
    13  C   -0.071848
    14  H    0.035820
    15  N   -0.433203
    16  C    0.168639
    17  C   -0.176978
    18  C   -0.003818
    19  C    0.148888
    20  C    0.110109
    21  C    0.012364
    22  O   -0.249065
    23  C    0.062468
    24  N   -0.341189
    25  C    0.041423
    26  C   -0.028344
    27  C   -0.024018
    28  C    0.074873
    29  C    0.076043
    30  C    0.035020
    31  C   -0.004558
    32  N   -0.310217
    33  C    0.080013
    34  C   -0.170518
    35  C    0.007921
    36  C    0.082543
    37  C    0.127553
    38  C    0.045281
    39  O   -0.189387
    40  C   -0.005038
    41  C    0.212881
    42  O   -0.258536
    43  O   -0.304328
    44  C    0.158127
    45  H   -0.017320
    46  H   -0.016349
    47  H   -0.041520
    48  H    0.000836
    49  H   -0.003713
    50  H    0.025454
    51  H    0.016567
    52  H    0.016932
    53  H    0.011762
    54  H    0.043386
    55  H    0.017885
    56  H    0.018605
    57  H    0.006152
    58  H    0.027127
    59  H    0.039669
    60  H    0.037570
    61  H    0.035862
    62  H    0.031151
    63  H    0.017186
    64  H    0.009569
    65  H    0.023769
    66  H    0.012441
    67  H    0.004929
    68  H    0.007349
    69  H    0.004398
    70  H    0.009874
    71  H    0.018325
    72  H    0.028018
    73  H    0.046293
    74  H    0.009171
    75  H    0.046285
    76  H    0.035404
    77  H    0.042932
    78  H    0.046990
    79  H    0.052133
    80  Mg   0.837915
    81  C   -0.016810
    82  C   -0.086707
    83  C   -0.045747
    84  C   -0.065048
    85  N   -0.254643
    86  C   -0.049622
    87  C   -0.015165
    88  C   -0.090328
    89  C    0.045141
    90  C    0.113710
    91  C    0.062460
    92  C   -0.077689
    93  H    0.033980
    94  N   -0.423687
    95  C    0.162603
    96  C   -0.173057
    97  C   -0.008288
    98  C    0.152680
    99  C    0.098939
   100  C    0.015450
   101  O   -0.254116
   102  C    0.061251
   103  N   -0.350003
   104  C    0.037581
   105  C   -0.019668
   106  C   -0.034741
   107  C    0.088752
   108  C    0.074070
   109  C    0.034901
   110  C   -0.007544
   111  N   -0.323992
   112  C    0.078192
   113  C   -0.163351
   114  C    0.002106
   115  C    0.096052
   116  C    0.131528
   117  C    0.042072
   118  O   -0.188667
   119  C    0.001063
   120  C    0.211289
   121  O   -0.251143
   122  O   -0.305689
   123  C    0.152126
   124  H   -0.016277
   125  H   -0.016432
   126  H   -0.040963
   127  H   -0.001006
   128  H   -0.003915
   129  H    0.020952
   130  H    0.017154
   131  H    0.019564
   132  H    0.013843
   133  H    0.037126
   134  H    0.020979
   135  H    0.020039
   136  H    0.010454
   137  H    0.027326
   138  H    0.039103
   139  H    0.038607
   140  H    0.035558
   141  H    0.033904
   142  H    0.013994
   143  H    0.011861
   144  H    0.024048
   145  H    0.011773
   146  H    0.004399
   147  H    0.005391
   148  H    0.003541
   149  H    0.010617
   150  H    0.017625
   151  H    0.030571
   152  H    0.045516
   153  H    0.008113
   154  H    0.047177
   155  H    0.034674
   156  H    0.043397
   157  H    0.049749
   158  H    0.053384
 Sum of Mulliken charges =  -0.00000

 Dipole moment (field-independent basis, Debye):
    X=              4.9918    Y=              3.4466    Z=              1.4536  Tot=              6.2378
 Quadrupole moment (field-independent basis, Debye-Ang):
   XX=           -520.5642   YY=           -515.7805   ZZ=           -482.9966
   XY=            -11.6645   XZ=             36.2063   YZ=             11.5898

 Normal termination of Gaussian 16 at Sat Sep  4 01:16:31 2021.
