 Gaussian 16, Revision A.03,
 Gaussian 16:  ES64L-G16RevA.03 25-Dec-2016

 -----------------------------------
 #p cam-b3lyp/Def2SVP td=(nstates=5)
 -----------------------------------

 --------------------------------
 TDDFT excited states in gaussian
 --------------------------------
 Symbolic Z-matrix:
 Charge =  0 Multiplicity = 1

                         Standard orientation:
 ---------------------------------------------------------------------
 Center     Atomic      Atomic             Coordinates (Angstroms)
 Number     Number       Type             X           Y           Z
 ---------------------------------------------------------------------
      1         12           0        5.398612   -0.535504    0.823141
      2          6           0        5.831199    2.430641   -1.133147
      3          6           0        5.822908    1.409389    3.594500
      4          6           0        5.473612   -3.196839    2.546014
      5          6           0        6.136702   -2.361850   -2.051810
      6          7           0        5.771013    1.632653    1.070236
      7          6           0        5.855746    2.669561    0.242702
      8          6           0        5.897200    4.043535    0.976085
      9          6           0        6.457142    3.558504    2.387896
     10          6           0        5.957901    2.124534    2.367562
     11          6           0        7.980285    3.547223    2.467970
     12          6           0        4.476424    4.687106    1.113713
     13          6           0        4.464513    6.163601    1.520130
     14          1           0        3.440660    7.034921    0.963465
     15          7           0        5.133313   -0.815292    2.760713
     16          6           0        5.338229    0.092139    3.745530
     17          6           0        5.001856   -0.596127    5.010371
     18          6           0        4.767222   -2.033280    4.697910
     19          6           0        5.145839   -2.078344    3.308667
     20          6           0        4.883516    0.110914    6.325604
     21          6           0        4.289208   -3.185678    5.523510
     22          8           0        4.377920   -4.395257    5.119008
     23          6           0        3.789028   -2.864586    6.872495
     24          7           0        5.967170   -2.495584    0.384433
     25          6           0        5.846718   -3.468972    1.293824
     26          6           0        6.042638   -4.821363    0.675284
     27          6           0        6.082683   -4.583899   -0.903247
     28          6           0        5.978477   -3.038800   -0.912173
     29          6           0        7.304709   -5.579414    1.109502
     30          6           0        5.080803   -5.395692   -1.762112
     31          6           0        3.668424   -4.940282   -1.470764
     32          7           0        5.724631   -0.088977   -1.275756
     33          6           0        6.040502   -1.001490   -2.292722
     34          6           0        6.272529   -0.217551   -3.519780
     35          6           0        6.090577    1.106404   -3.124959
     36          6           0        5.791284    1.148751   -1.733226
     37          6           0        6.662021   -0.743129   -4.783306
     38          6           0        6.103604    2.496842   -3.549659
     39          8           0        6.204099    3.071198   -4.634789
     40          6           0        6.056253    3.417765   -2.251396
     41          6           0        5.007863    4.472219   -2.480121
     42          8           0        3.800584    4.166936   -2.561635
     43          8           0        5.558594    5.686595   -2.330028
     44          6           0        4.565100    6.777921   -2.514777
     45          1           0        6.173899    1.874369    4.517830
     46          1           0        5.402699   -4.147790    3.078088
     47          1           0        6.288047   -2.869179   -3.006360
     48          1           0        6.577599    4.773048    0.536436
     49          1           0        6.004765    4.105556    3.214825
     50          1           0        8.431792    3.751540    1.497240
     51          1           0        8.246435    2.546391    2.808546
     52          1           0        8.332594    4.230423    3.241205
     53          1           0        3.967348    4.253622    1.974523
     54          1           0        3.905380    4.561967    0.193075
     55          1           0        5.450995    6.615057    1.410816
     56          1           0        4.256730    6.222077    2.588590
     57          1           0        5.274296    1.126228    6.271073
     58          1           0        5.548601   -0.399071    7.022228
     59          1           0        3.863909    0.093040    6.710851
     60          1           0        4.578789   -2.373964    7.441807
     61          1           0        3.407647   -3.799241    7.282152
     62          1           0        2.978627   -2.140278    6.785450
     63          1           0        5.213226   -5.485212    0.915712
     64          1           0        7.056340   -4.827682   -1.328964
     65          1           0        7.100391   -6.561471    1.536730
     66          1           0        7.848987   -4.951766    1.814563
     67          1           0        8.047571   -5.717874    0.324389
     68          1           0        5.135169   -6.454006   -1.509206
     69          1           0        5.257334   -5.301273   -2.833640
     70          1           0        3.408500   -5.508813   -0.578552
     71          1           0        3.008259   -5.193332   -2.301041
     72          1           0        3.637856   -3.883632   -1.204226
     73          1           0        6.056017   -0.227398   -5.528120
     74          1           0        6.510802   -1.821463   -4.827268
     75          1           0        7.716569   -0.468340   -4.799920
     76          1           0        7.050719    3.847568   -2.135516
     77          1           0        4.951094    7.434784   -3.294375
     78          1           0        4.392352    7.209872   -1.528886
     79          1           0        3.605899    6.488715   -2.945627
     80         12           0       -5.058025   -0.764714   -0.746320
     81          6           0       -7.441183    1.515493    0.667986
     82          6           0       -3.572713    1.932297   -2.214164
     83          6           0       -3.220670   -2.782599   -2.364859
     84          6           0       -7.346121   -3.320305   -0.130503
     85          7           0       -5.537327    1.394137   -0.703024
     86          6           0       -6.429539    2.150817   -0.081943
     87          6           0       -6.178696    3.677352   -0.209744
     88          6           0       -5.321893    3.667374   -1.567924
     89          6           0       -4.741500    2.257346   -1.480424
     90          6           0       -6.178180    3.754553   -2.820326
     91          6           0       -5.345540    4.248758    0.990818
     92          6           0       -5.326745    5.775602    1.091566
     93          1           0       -5.314236    6.385500    2.418344
     94          7           0       -3.336588   -0.462538   -1.686494
     95          6           0       -2.881831    0.700744   -2.197626
     96          6           0       -1.577676    0.391260   -2.803900
     97          6           0       -1.374906   -1.082205   -2.753793
     98          6           0       -2.673709   -1.510880   -2.274797
     99          6           0       -0.631343    1.452790   -3.284563
    100          6           0       -0.209686   -1.961104   -3.094365
    101          8           0       -0.333725   -3.232337   -3.201247
    102          6           0        1.059757   -1.281237   -3.390614
    103          7           0       -5.334373   -2.725648   -1.379312
    104          6           0       -4.356074   -3.389874   -2.019354
    105          6           0       -4.677870   -4.861109   -2.130332
    106          6           0       -5.969173   -5.088707   -1.214741
    107          6           0       -6.235113   -3.629256   -0.785008
    108          6           0       -4.958017   -5.376160   -3.541942
    109          6           0       -5.866570   -6.177123   -0.111330
    110          6           0       -4.878231   -5.746222    0.948335
    111          7           0       -6.954780   -0.941938    0.272968
    112          6           0       -7.755692   -2.099114    0.389425
    113          6           0       -9.003962   -1.697936    1.070086
    114          6           0       -8.851235   -0.319673    1.283522
    115          6           0       -7.605079    0.111757    0.753928
    116          6           0      -10.103152   -2.553259    1.363909
    117          6           0       -9.465454    0.870346    1.826909
    118          8           0      -10.483415    1.102771    2.477670
    119          6           0       -8.635075    2.135091    1.339795
    120          6           0       -8.388326    3.016543    2.533403
    121          8           0       -7.672839    2.624051    3.471826
    122          8           0       -8.855419    4.251286    2.273420
    123          6           0       -8.623831    5.165107    3.423692
    124          1           0       -3.167790    2.675973   -2.901098
    125          1           0       -2.577748   -3.541443   -2.816840
    126          1           0       -8.067143   -4.077234    0.185512
    127          1           0       -7.072847    4.275413   -0.338579
    128          1           0       -4.527830    4.409004   -1.539465
    129          1           0       -7.231911    3.689548   -2.593257
    130          1           0       -5.873483    2.923908   -3.443411
    131          1           0       -5.932003    4.659581   -3.383044
    132          1           0       -4.279751    4.059311    0.809325
    133          1           0       -5.679299    3.829394    1.919994
    134          1           0       -6.096066    6.239698    0.462510
    135          1           0       -4.384411    6.139307    0.674740
    136          1           0       -1.122109    2.432064   -3.344333
    137          1           0       -0.380291    1.210956   -4.322999
    138          1           0        0.289330    1.493014   -2.698561
    139          1           0        0.918178   -0.600129   -4.226380
    140          1           0        1.794122   -2.078162   -3.522919
    141          1           0        1.337189   -0.666427   -2.527094
    142          1           0       -3.864447   -5.464872   -1.747025
    143          1           0       -6.839234   -5.404906   -1.808747
    144          1           0       -4.293441   -6.207898   -3.842973
    145          1           0       -4.866840   -4.547780   -4.231885
    146          1           0       -5.978864   -5.711413   -3.717082
    147          1           0       -5.482568   -7.109142   -0.533278
    148          1           0       -6.816566   -6.404606    0.360637
    149          1           0       -3.914503   -6.037456    0.519961
    150          1           0       -5.068082   -6.268060    1.884112
    151          1           0       -4.872741   -4.655877    1.061304
    152          1           0      -10.419375   -2.318824    2.371656
    153          1           0       -9.828420   -3.601483    1.266325
    154          1           0      -10.807132   -2.239517    0.588512
    155          1           0       -9.225314    2.639233    0.573621
    156          1           0       -9.596259    5.584922    3.699029
    157          1           0       -7.845044    5.875712    3.088615
    158          1           0       -8.311937    4.720984    4.361732
 ---------------------------------------------------------------------

 SCF Done:  E(RCAM-B3LYP) =  -4069.81359559     A.U. after   18 cycles

 Excitation energies and oscillator strengths:

 Excited State   1:      Singlet-A      1.6546 eV  749.31 nm  f=0.1800  <S**2>=0.000
     309 -> 315        0.11672
     310 -> 316        0.12271
     311 -> 313       -0.47191
     312 -> 314        0.49955
 This state for optimization and/or second-order correction.
 Total Energy, E(TD-HF/TD-DFT) =  -4069.75278881
 Copying the excited state density for this state as the 1-particle RhoCI density.

 Excited State   2:      Singlet-A      1.6967 eV  730.73 nm  f=0.5794  <S**2>=0.000
     309 -> 315       -0.13108
     310 -> 316        0.12255
     311 -> 313        0.49774
     312 -> 314        0.47041

 Excited State   3:      Singlet-A      2.1875 eV  566.78 nm  f=0.0109  <S**2>=0.000
     309 -> 313       -0.34484
     310 -> 314        0.54310
     311 -> 315       -0.14536
     312 -> 316       -0.23082

 Excited State   4:      Singlet-A      2.1973 eV  564.26 nm  f=0.1688  <S**2>=0.000
     309 -> 313        0.54042
     310 -> 314        0.34186
     311 -> 315        0.23745
     312 -> 316       -0.14995

 Excited State   5:      Singlet-A      2.4508 eV  505.89 nm  f=0.0000  <S**2>=0.000
     312 -> 313        0.70683

 The electronic state is 1-A.
 Alpha  occ. eigenvalues --  -46.87946 -46.87424 -19.26642 -19.26232 -19.19426
 Alpha  occ. eigenvalues --  -19.19030 -19.18881 -19.18429 -19.18389 -19.17837
 Alpha  occ. eigenvalues --  -14.42599 -14.42265 -14.41560 -14.41125 -14.39536
 Alpha  occ. eigenvalues --  -14.39103 -14.38766 -14.38364 -10.39457 -10.38954
 Alpha  occ. eigenvalues --  -10.35509 -10.35066 -10.34616 -10.34022 -10.32041
 Alpha  occ. eigenvalues --  -10.31673 -10.31577 -10.31086 -10.31064 -10.30765
 Alpha  occ. eigenvalues --  -10.30732 -10.30643 -10.30268 -10.30173 -10.30110
 Alpha  occ. eigenvalues --  -10.30028 -10.29883 -10.29770 -10.29698 -10.29379
 Alpha  occ. eigenvalues --  -10.29156 -10.29113 -10.28943 -10.28783 -10.28541
 Alpha  occ. eigenvalues --  -10.28534 -10.28522 -10.28286 -10.28145 -10.27946
 Alpha  occ. eigenvalues --  -10.27926 -10.27863 -10.27735 -10.27712 -10.27568
 Alpha  occ. eigenvalues --  -10.27559 -10.27443 -10.27431 -10.27409 -10.27403
 Alpha  occ. eigenvalues --  -10.27327 -10.27253 -10.27201 -10.27162 -10.26952
 Alpha  occ. eigenvalues --  -10.26862 -10.26738 -10.26535 -10.26425 -10.26381
 Alpha  occ. eigenvalues --  -10.26119 -10.25993 -10.25972 -10.25965 -10.25909
 Alpha  occ. eigenvalues --  -10.25817 -10.25695 -10.25655 -10.25429 -10.25246
 Alpha  occ. eigenvalues --  -10.25006 -10.24901 -10.24623 -10.24567 -10.24463
 Alpha  occ. eigenvalues --  -10.24276  -3.16690  -3.16175  -1.91573  -1.91158
 Alpha  occ. eigenvalues --   -1.91058  -1.91001  -1.90646  -1.90483  -1.16994
 Alpha  occ. eigenvalues --   -1.16522  -1.08864  -1.08457  -1.07276  -1.07031
 Alpha  occ. eigenvalues --   -1.06812  -1.06672  -1.04736  -1.04259  -1.03878
 Alpha  occ. eigenvalues --   -1.03427  -1.03374  -1.02800  -1.02548  -1.01870
 Alpha  occ. eigenvalues --   -0.92154  -0.91761  -0.89551  -0.89359  -0.89279
 Alpha  occ. eigenvalues --   -0.88948  -0.88294  -0.88027  -0.88019  -0.87811
 Alpha  occ. eigenvalues --   -0.87564  -0.87446  -0.87374  -0.86710  -0.85146
 Alpha  occ. eigenvalues --   -0.84786  -0.83929  -0.83687  -0.82993  -0.82785
 Alpha  occ. eigenvalues --   -0.82606  -0.82345  -0.81802  -0.81414  -0.80755
 Alpha  occ. eigenvalues --   -0.80216  -0.78914  -0.78290  -0.77324  -0.77076
 Alpha  occ. eigenvalues --   -0.76887  -0.76714  -0.76093  -0.75601  -0.74940
 Alpha  occ. eigenvalues --   -0.74592  -0.72897  -0.72451  -0.71803  -0.71362
 Alpha  occ. eigenvalues --   -0.69806  -0.69565  -0.69021  -0.68596  -0.67785
 Alpha  occ. eigenvalues --   -0.67383  -0.67366  -0.66948  -0.65463  -0.65066
 Alpha  occ. eigenvalues --   -0.65022  -0.64749  -0.64552  -0.64448  -0.64286
 Alpha  occ. eigenvalues --   -0.63998  -0.62519  -0.62104  -0.60529  -0.60003
 Alpha  occ. eigenvalues --   -0.59972  -0.59573  -0.59122  -0.58770  -0.58646
 Alpha  occ. eigenvalues --   -0.58194  -0.57833  -0.57399  -0.57365  -0.56983
 Alpha  occ. eigenvalues --   -0.56470  -0.56222  -0.55939  -0.55689  -0.55650
 Alpha  occ. eigenvalues --   -0.55437  -0.55168  -0.55054  -0.54627  -0.54314
 Alpha  occ. eigenvalues --   -0.54076  -0.53707  -0.53406  -0.53375  -0.53104
 Alpha  occ. eigenvalues --   -0.52992  -0.52879  -0.52862  -0.52689  -0.52319
 Alpha  occ. eigenvalues --   -0.52265  -0.52203  -0.52074  -0.51785  -0.51675
 Alpha  occ. eigenvalues --   -0.51393  -0.51323  -0.50988  -0.50624  -0.50076
 Alpha  occ. eigenvalues --   -0.50049  -0.49943  -0.49658  -0.49649  -0.49598
 Alpha  occ. eigenvalues --   -0.49378  -0.49258  -0.49202  -0.48919  -0.48891
 Alpha  occ. eigenvalues --   -0.48793  -0.48578  -0.48508  -0.48343  -0.48183
 Alpha  occ. eigenvalues --   -0.48009  -0.47803  -0.47412  -0.47316  -0.46899
 Alpha  occ. eigenvalues --   -0.46798  -0.46726  -0.46495  -0.46485  -0.46325
 Alpha  occ. eigenvalues --   -0.46275  -0.46022  -0.45995  -0.45867  -0.45639
 Alpha  occ. eigenvalues --   -0.45225  -0.45001  -0.44762  -0.44595  -0.44308
 Alpha  occ. eigenvalues --   -0.44288  -0.44248  -0.44178  -0.44112  -0.43909
 Alpha  occ. eigenvalues --   -0.43836  -0.43691  -0.43596  -0.43496  -0.43380
 Alpha  occ. eigenvalues --   -0.43168  -0.43161  -0.42987  -0.42759  -0.42676
 Alpha  occ. eigenvalues --   -0.42626  -0.42308  -0.42023  -0.41839  -0.41770
 Alpha  occ. eigenvalues --   -0.41656  -0.41451  -0.41274  -0.41253  -0.40989
 Alpha  occ. eigenvalues --   -0.40907  -0.40769  -0.40560  -0.40508  -0.40425
 Alpha  occ. eigenvalues --   -0.40421  -0.40301  -0.40013  -0.39301  -0.39239
 Alpha  occ. eigenvalues --   -0.38498  -0.38160  -0.37939  -0.37473  -0.37447
 Alpha  occ. eigenvalues --   -0.37368  -0.37055  -0.36994  -0.36967  -0.36627
 Alpha  occ. eigenvalues --   -0.36319  -0.36026  -0.34439  -0.34133  -0.34024
 Alpha  occ. eigenvalues --   -0.33711  -0.33337  -0.32941  -0.31413  -0.31171
 Alpha  occ. eigenvalues --   -0.30981  -0.30739  -0.30256  -0.29751  -0.29592
 Alpha  occ. eigenvalues --   -0.29484  -0.29046  -0.28951  -0.24226  -0.23804
 Alpha  occ. eigenvalues --   -0.21260  -0.20867
 Alpha virt. eigenvalues --   -0.08911  -0.08528  -0.01868  -0.01449  -0.00183
 Alpha virt. eigenvalues --    0.00260   0.02031   0.02420   0.02686   0.03435
 Alpha virt. eigenvalues --    0.04561   0.04751   0.04937   0.05312   0.05951

 Mulliken charges:
               1
     1  Mg   0.835550
     2  C   -0.004819
     3  C   -0.094180
     4  C   -0.044881
     5  C   -0.063950
     6  N   -0.257009
     7  C   -0.053057
     8  C   -0.013809
     9  C   -0.087056
    10  C    0.046447
    11  C    0.104686
    12  C    0.053433
    13  C   -0.071618
    14  H    0.034558
    15  N   -0.433544
    16  C    0.168895
    17  C   -0.176678
    18  C   -0.003256
    19  C    0.149088
    20  C    0.109996
    21  C    0.013034
    22  O   -0.248541
    23  C    0.062138
    24  N   -0.341548
    25  C    0.042038
    26  C   -0.028289
    27  C   -0.023884
    28  C    0.075691
    29  C    0.076120
    30  C    0.034364
    31  C   -0.006654
    32  N   -0.310064
    33  C    0.078666
    34  C   -0.171150
    35  C    0.007423
    36  C    0.079923
    37  C    0.127676
    38  C    0.043892
    39  O   -0.189469
    40  C   -0.004693
    41  C    0.213835
    42  O   -0.261797
    43  O   -0.303708
    44  C    0.158062
    45  H   -0.017159
    46  H   -0.015774
    47  H   -0.040560
    48  H    0.000879
    49  H   -0.003735
    50  H    0.025527
    51  H    0.016905
    52  H    0.017087
    53  H    0.011667
    54  H    0.041599
    55  H    0.018483
    56  H    0.018865
    57  H    0.005973
    58  H    0.027391
    59  H    0.040729
    60  H    0.037316
    61  H    0.036537
    62  H    0.032324
    63  H    0.017995
    64  H    0.009091
    65  H    0.023699
    66  H    0.012005
    67  H    0.004960
    68  H    0.006300
    69  H    0.004504
    70  H    0.007948
    71  H    0.030475
    72  H    0.025817
    73  H    0.045965
    74  H    0.010336
    75  H    0.046361
    76  H    0.035799
    77  H    0.043622
    78  H    0.047064
    79  H    0.051439
    80  Mg   0.836750
    81  C   -0.016900
    82  C   -0.086500
    83  C   -0.045883
    84  C   -0.065083
    85  N   -0.254397
    86  C   -0.050771
    87  C   -0.015008
    88  C   -0.090454
    89  C    0.045235
    90  C    0.114365
    91  C    0.062474
    92  C   -0.077347
    93  H    0.033067
    94  N   -0.423688
    95  C    0.162394
    96  C   -0.173901
    97  C   -0.008216
    98  C    0.152389
    99  C    0.098313
   100  C    0.014232
   101  O   -0.256367
   102  C    0.059880
   103  N   -0.350082
   104  C    0.037948
   105  C   -0.019841
   106  C   -0.034466
   107  C    0.088358
   108  C    0.073880
   109  C    0.034918
   110  C   -0.007480
   111  N   -0.323807
   112  C    0.077537
   113  C   -0.163957
   114  C    0.001862
   115  C    0.095484
   116  C    0.131669
   117  C    0.041724
   118  O   -0.189271
   119  C    0.001031
   120  C    0.211177
   121  O   -0.251624
   122  O   -0.305525
   123  C    0.152325
   124  H   -0.018024
   125  H   -0.016254
   126  H   -0.041276
   127  H   -0.001202
   128  H   -0.003775
   129  H    0.022019
   130  H    0.014765
   131  H    0.016338
   132  H    0.014241
   133  H    0.037026
   134  H    0.020720
   135  H    0.019690
   136  H    0.009805
   137  H    0.027732
   138  H    0.052087
   139  H    0.042086
   140  H    0.034894
   141  H    0.038794
   142  H    0.013917
   143  H    0.011884
   144  H    0.024355
   145  H    0.011832
   146  H    0.005379
   147  H    0.005590
   148  H    0.003261
   149  H    0.010812
   150  H    0.017497
   151  H    0.030306
   152  H    0.045162
   153  H    0.007956
   154  H    0.046301
   155  H    0.034619
   156  H    0.043493
   157  H    0.049272
   158  H    0.052963
 Sum of Mulliken charges =  -0.00000

 Dipole moment (field-independent basis, Debye):
    X=              4.1406    Y=              2.9958    Z=              1.1618  Tot=              5.2411
 Quadrupole moment (field-independent basis, Debye-Ang):
   XX=           -539.3010   YY=           -465.0436   ZZ=           -517.7466
   XY=              9.8347   XZ=             50.8865   YZ=             25.0334

 Normal termination of Gaussian 16 at Fri Sep 10 10:35:01 2021.
