 Gaussian 16, Revision A.03,
 Gaussian 16:  ES64L-G16RevA.03 25-Dec-2016

 -----------------------------------
 #p cam-b3lyp/Def2SVP td=(nstates=5)
 -----------------------------------

 --------------------------------
 TDDFT excited states in gaussian
 --------------------------------
 Symbolic Z-matrix:
 Charge =  0 Multiplicity = 1

                         Standard orientation:
 ---------------------------------------------------------------------
 Center     Atomic      Atomic             Coordinates (Angstroms)
 Number     Number       Type             X           Y           Z
 ---------------------------------------------------------------------
      1         12           0       -6.516048    0.571379   -0.591330
      2          6           0       -6.799978   -2.619062    1.006382
      3          6           0       -7.652561    1.959634    2.311109
      4          6           0       -6.706787    3.343652   -2.119317
      5          6           0       -6.503321   -1.120503   -3.638137
      6          7           0       -7.114783   -0.320781    1.344184
      7          6           0       -7.120338   -1.551136    1.847541
      8          6           0       -7.425585   -1.592464    3.374790
      9          6           0       -8.213646   -0.213227    3.511402
     10          6           0       -7.599499    0.534390    2.341010
     11          6           0       -9.715218   -0.343713    3.277401
     12          6           0       -6.121743   -1.595609    4.241807
     13          6           0       -6.318116   -1.961862    5.715798
     14          1           0       -5.281909   -2.728558    6.390928
     15          7           0       -6.621761    2.415632    0.108960
     16          6           0       -7.096994    2.796386    1.319111
     17          6           0       -6.963429    4.268379    1.364693
     18          6           0       -6.548658    4.729775    0.010746
     19          6           0       -6.635679    3.501648   -0.737258
     20          6           0       -7.172287    5.075382    2.609231
     21          6           0       -6.149007    6.067626   -0.526439
     22          8           0       -6.050837    6.295277   -1.780676
     23          6           0       -5.958923    7.143025    0.463726
     24          7           0       -6.815020    1.070179   -2.596186
     25          6           0       -6.796464    2.345078   -3.000257
     26          6           0       -6.747759    2.443064   -4.496240
     27          6           0       -6.490597    0.959635   -5.028274
     28          6           0       -6.519475    0.213929   -3.671307
     29          6           0       -8.001596    3.016867   -5.170518
     30          6           0       -5.271038    0.748353   -5.960183
     31          6           0       -3.990101    0.968338   -5.186939
     32          7           0       -6.451524   -1.501449   -1.231851
     33          6           0       -6.477659   -1.977602   -2.550665
     34          6           0       -6.525163   -3.449499   -2.477661
     35          6           0       -6.540195   -3.728620   -1.112483
     36          6           0       -6.530857   -2.507702   -0.379295
     37          6           0       -6.606846   -4.336704   -3.586998
     38          6           0       -6.586848   -4.773696   -0.102782
     39          8           0       -6.516497   -6.003374   -0.123634
     40          6           0       -6.879906   -4.095000    1.307650
     41          6           0       -5.901212   -4.664477    2.298186
     42          8           0       -4.680491   -4.423686    2.202128
     43          8           0       -6.572821   -5.200148    3.328982
     44          6           0       -5.659680   -5.757007    4.362537
     45          1           0       -8.220118    2.483000    3.083060
     46          1           0       -6.662827    4.275290   -2.687256
     47          1           0       -6.416120   -1.717842   -4.547552
     48          1           0       -8.063927   -2.418618    3.688498
     49          1           0       -7.984869    0.295160    4.447845
     50          1           0       -9.978674   -1.341807    2.927660
     51          1           0       -9.957528    0.401534    2.519519
     52          1           0      -10.272653   -0.056286    4.169270
     53          1           0       -5.760427   -0.573096    4.351255
     54          1           0       -5.369084   -2.252430    3.804295
     55          1           0       -7.297605   -2.408775    5.888368
     56          1           0       -6.334632   -1.040139    6.297481
     57          1           0       -7.629704    4.481522    3.399576
     58          1           0       -7.917387    5.835318    2.374642
     59          1           0       -6.252955    5.553884    2.947163
     60          1           0       -6.885884    7.289272    1.018616
     61          1           0       -5.588812    8.002877   -0.093520
     62          1           0       -5.212621    6.824479    1.192088
     63          1           0       -5.929660    3.085371   -4.819632
     64          1           0       -7.334553    0.579744   -5.604551
     65          1           0       -7.803750    3.891115   -5.791205
     66          1           0       -8.727947    3.246641   -4.391475
     67          1           0       -8.557255    2.306589   -5.782208
     68          1           0       -5.284154    1.474425   -6.772337
     69          1           0       -5.236505   -0.246227   -6.405007
     70          1           0       -3.866669    2.050138   -5.223084
     71          1           0       -3.157631    0.463768   -5.678481
     72          1           0       -4.104245    0.688214   -4.139568
     73          1           0       -5.910233   -5.148987   -3.379885
     74          1           0       -6.358072   -3.829439   -4.518876
     75          1           0       -7.656219   -4.626784   -3.536726
     76          1           0       -7.910495   -4.338080    1.564397
     77          1           0       -5.936300   -6.801575    4.506038
     78          1           0       -5.725822   -5.093047    5.224620
     79          1           0       -4.612382   -5.858962    4.075988
     80         12           0        6.674928    0.770206    0.489194
     81          6           0        6.681553   -2.170459   -1.567859
     82          6           0        5.616157   -1.209894    3.056830
     83          6           0        6.226214    3.402632    2.202801
     84          6           0        6.616669    2.652517   -2.443251
     85          7           0        6.241691   -1.395644    0.605894
     86          6           0        6.339226   -2.423927   -0.223245
     87          6           0        6.132197   -3.810088    0.444023
     88          6           0        5.259470   -3.340714    1.707720
     89          6           0        5.756803   -1.901606    1.827255
     90          6           0        3.765945   -3.308338    1.429024
     91          6           0        7.485412   -4.465812    0.892182
     92          6           0        7.389310   -5.946100    1.268051
     93          1           0        8.514359   -6.820106    0.947337
     94          7           0        6.494998    1.010459    2.450949
     95          6           0        6.072062    0.094714    3.347498
     96          6           0        6.100116    0.768749    4.654807
     97          6           0        6.416623    2.206145    4.434747
     98          6           0        6.370037    2.267781    2.987646
     99          6           0        5.919653    0.035693    5.952289
    100          6           0        6.700084    3.340695    5.372118
    101          8           0        6.714788    4.557937    4.970962
    102          6           0        6.867532    2.992812    6.790723
    103          7           0        6.240110    2.735174   -0.032517
    104          6           0        6.149037    3.695248    0.904435
    105          6           0        6.104308    5.067831    0.276435
    106          6           0        6.429268    4.842136   -1.273088
    107          6           0        6.521753    3.300532   -1.290331
    108          6           0        4.780615    5.819657    0.414310
    109          6           0        7.606329    5.659959   -1.871722
    110          6           0        8.914046    5.198861   -1.269516
    111          7           0        6.838300    0.360083   -1.625789
    112          6           0        6.761947    1.292212   -2.683800
    113          6           0        6.812313    0.524456   -3.944937
    114          6           0        6.891925   -0.813371   -3.529753
    115          6           0        6.870855   -0.876335   -2.110223
    116          6           0        6.735002    1.072700   -5.256256
    117          6           0        6.978271   -2.187316   -3.969675
    118          8           0        7.117795   -2.743815   -5.058055
    119          6           0        6.718408   -3.135179   -2.720509
    120          6           0        7.784847   -4.195923   -2.712529
    121          8           0        8.976025   -3.893173   -2.522715
    122          8           0        7.200722   -5.408017   -2.712747
    123          6           0        8.217678   -6.493026   -2.693887
    124          1           0        5.067565   -1.694540    3.864956
    125          1           0        6.179182    4.349042    2.746463
    126          1           0        6.702224    3.172456   -3.399814
    127          1           0        5.572204   -4.521566   -0.150951
    128          1           0        5.516839   -3.908291    2.598209
    129          1           0        3.546247   -3.493412    0.388054
    130          1           0        3.434632   -2.318774    1.715490
    131          1           0        3.243678   -4.004546    2.091487
    132          1           0        7.783673   -4.044943    1.861023
    133          1           0        8.240537   -4.331703    0.142235
    134          1           0        6.446136   -6.395681    0.934483
    135          1           0        7.353844   -6.025965    2.357258
    136          1           0        5.539123   -0.980417    5.790679
    137          1           0        5.116237    0.543136    6.497190
    138          1           0        6.821816    0.040328    6.567720
    139          1           0        5.968023    2.498569    7.149963
    140          1           0        7.151498    3.922313    7.287990
    141          1           0        7.682614    2.265835    6.878809
    142          1           0        6.861568    5.713544    0.703883
    143          1           0        5.575881    5.112912   -1.912033
    144          1           0        4.888034    6.806616    0.902607
    145          1           0        4.089588    5.195861    0.965579
    146          1           0        4.245821    5.988111   -0.518869
    147          1           0        7.502106    6.717060   -1.615119
    148          1           0        7.671053    5.595847   -2.952781
    149          1           0        8.960482    5.752482   -0.326950
    150          1           0        9.747338    5.456547   -1.920091
    151          1           0        8.879198    4.131228   -1.023343
    152          1           0        7.484872    0.566913   -5.849880
    153          1           0        6.893511    2.149069   -5.247158
    154          1           0        5.705758    0.811542   -5.516475
    155          1           0        5.719931   -3.559335   -2.833224
    156          1           0        8.013122   -7.137636   -3.554315
    157          1           0        8.144553   -6.953617   -1.690768
    158          1           0        9.249275   -6.216313   -2.877452
 ---------------------------------------------------------------------

 SCF Done:  E(RCAM-B3LYP) =  -4069.81196758     A.U. after   19 cycles

 Excitation energies and oscillator strengths:

 Excited State   1:      Singlet-A      1.6711 eV  741.94 nm  f=0.1980  <S**2>=0.000
     310 -> 316        0.14383
     311 -> 313       -0.37686
     312 -> 314        0.57356
 This state for optimization and/or second-order correction.
 Total Energy, E(TD-HF/TD-DFT) =  -4069.75055627
 Copying the excited state density for this state as the 1-particle RhoCI density.

 Excited State   2:      Singlet-A      1.6828 eV  736.78 nm  f=0.5374  <S**2>=0.000
     309 -> 315        0.14754
     311 -> 313        0.57284
     312 -> 314        0.37641

 Excited State   3:      Singlet-A      2.1847 eV  567.51 nm  f=0.0835  <S**2>=0.000
     309 -> 313       -0.11795
     310 -> 314        0.63200
     312 -> 316       -0.26699

 Excited State   4:      Singlet-A      2.1933 eV  565.30 nm  f=0.1126  <S**2>=0.000
     309 -> 313        0.62980
     310 -> 314        0.11698
     311 -> 315       -0.27397

 Excited State   5:      Singlet-A      2.6461 eV  468.56 nm  f=0.0000  <S**2>=0.000
     312 -> 313        0.70710

 The electronic state is 1-A.
 Alpha  occ. eigenvalues --  -46.87860 -46.87544 -19.26421 -19.26211 -19.19155
 Alpha  occ. eigenvalues --  -19.19032 -19.18866 -19.18642 -19.18248 -19.17937
 Alpha  occ. eigenvalues --  -14.42516 -14.42369 -14.41508 -14.41247 -14.39464
 Alpha  occ. eigenvalues --  -14.39240 -14.38651 -14.38485 -10.39209 -10.38959
 Alpha  occ. eigenvalues --  -10.35498 -10.35322 -10.34470 -10.34111 -10.31837
 Alpha  occ. eigenvalues --  -10.31618 -10.31475 -10.31169 -10.30981 -10.30893
 Alpha  occ. eigenvalues --  -10.30635 -10.30568 -10.30291 -10.30257 -10.30243
 Alpha  occ. eigenvalues --  -10.30038 -10.29977 -10.29789 -10.29691 -10.29329
 Alpha  occ. eigenvalues --  -10.29311 -10.29297 -10.28841 -10.28673 -10.28545
 Alpha  occ. eigenvalues --  -10.28493 -10.28432 -10.28288 -10.28197 -10.27944
 Alpha  occ. eigenvalues --  -10.27892 -10.27854 -10.27791 -10.27643 -10.27539
 Alpha  occ. eigenvalues --  -10.27535 -10.27532 -10.27488 -10.27474 -10.27430
 Alpha  occ. eigenvalues --  -10.27380 -10.27366 -10.27362 -10.27292 -10.27249
 Alpha  occ. eigenvalues --  -10.26917 -10.26823 -10.26539 -10.26451 -10.26367
 Alpha  occ. eigenvalues --  -10.26306 -10.26202 -10.26073 -10.26063 -10.25890
 Alpha  occ. eigenvalues --  -10.25826 -10.25758 -10.25741 -10.25468 -10.25324
 Alpha  occ. eigenvalues --  -10.24897 -10.24847 -10.24762 -10.24705 -10.24661
 Alpha  occ. eigenvalues --  -10.24584  -3.16603  -3.16294  -1.91484  -1.91176
 Alpha  occ. eigenvalues --   -1.91071  -1.90913  -1.90765  -1.90602  -1.16768
 Alpha  occ. eigenvalues --   -1.16507  -1.08710  -1.08542  -1.07266  -1.06897
 Alpha  occ. eigenvalues --   -1.06816  -1.06775  -1.04649  -1.04366  -1.03821
 Alpha  occ. eigenvalues --   -1.03547  -1.03295  -1.02929  -1.02472  -1.01998
 Alpha  occ. eigenvalues --   -0.92045  -0.91864  -0.89568  -0.89394  -0.89272
 Alpha  occ. eigenvalues --   -0.88976  -0.88333  -0.88125  -0.87929  -0.87741
 Alpha  occ. eigenvalues --   -0.87686  -0.87559  -0.87329  -0.87030  -0.85064
 Alpha  occ. eigenvalues --   -0.84852  -0.83983  -0.83785  -0.83015  -0.82854
 Alpha  occ. eigenvalues --   -0.82726  -0.82519  -0.81681  -0.81472  -0.80673
 Alpha  occ. eigenvalues --   -0.80324  -0.78854  -0.78534  -0.77282  -0.77020
 Alpha  occ. eigenvalues --   -0.77018  -0.76762  -0.76006  -0.75687  -0.74952
 Alpha  occ. eigenvalues --   -0.74700  -0.72834  -0.72585  -0.71738  -0.71451
 Alpha  occ. eigenvalues --   -0.69944  -0.69668  -0.68950  -0.68688  -0.67708
 Alpha  occ. eigenvalues --   -0.67492  -0.67305  -0.67073  -0.65370  -0.65126
 Alpha  occ. eigenvalues --   -0.64928  -0.64695  -0.64652  -0.64526  -0.64321
 Alpha  occ. eigenvalues --   -0.64102  -0.62397  -0.62155  -0.60496  -0.60246
 Alpha  occ. eigenvalues --   -0.59881  -0.59644  -0.59053  -0.58877  -0.58572
 Alpha  occ. eigenvalues --   -0.58311  -0.57676  -0.57429  -0.57370  -0.57135
 Alpha  occ. eigenvalues --   -0.56376  -0.56092  -0.56088  -0.55758  -0.55584
 Alpha  occ. eigenvalues --   -0.55405  -0.55344  -0.55143  -0.54602  -0.54379
 Alpha  occ. eigenvalues --   -0.53981  -0.53746  -0.53359  -0.53297  -0.53123
 Alpha  occ. eigenvalues --   -0.53019  -0.52999  -0.52820  -0.52778  -0.52559
 Alpha  occ. eigenvalues --   -0.52475  -0.52316  -0.51972  -0.51783  -0.51699
 Alpha  occ. eigenvalues --   -0.51524  -0.51266  -0.51085  -0.50621  -0.50392
 Alpha  occ. eigenvalues --   -0.50077  -0.49977  -0.49857  -0.49769  -0.49587
 Alpha  occ. eigenvalues --   -0.49367  -0.49286  -0.49175  -0.49078  -0.48948
 Alpha  occ. eigenvalues --   -0.48674  -0.48519  -0.48508  -0.48423  -0.48282
 Alpha  occ. eigenvalues --   -0.48243  -0.47763  -0.47474  -0.47359  -0.47014
 Alpha  occ. eigenvalues --   -0.46859  -0.46641  -0.46591  -0.46422  -0.46403
 Alpha  occ. eigenvalues --   -0.46228  -0.46165  -0.45979  -0.45903  -0.45698
 Alpha  occ. eigenvalues --   -0.45251  -0.45111  -0.44655  -0.44570  -0.44397
 Alpha  occ. eigenvalues --   -0.44338  -0.44205  -0.44162  -0.44091  -0.43984
 Alpha  occ. eigenvalues --   -0.43979  -0.43831  -0.43584  -0.43454  -0.43429
 Alpha  occ. eigenvalues --   -0.43255  -0.43094  -0.42809  -0.42807  -0.42779
 Alpha  occ. eigenvalues --   -0.42707  -0.42460  -0.42070  -0.41852  -0.41774
 Alpha  occ. eigenvalues --   -0.41615  -0.41548  -0.41323  -0.41208  -0.40942
 Alpha  occ. eigenvalues --   -0.40884  -0.40851  -0.40624  -0.40623  -0.40567
 Alpha  occ. eigenvalues --   -0.40380  -0.40334  -0.40082  -0.39476  -0.39339
 Alpha  occ. eigenvalues --   -0.38522  -0.38245  -0.37845  -0.37513  -0.37374
 Alpha  occ. eigenvalues --   -0.37346  -0.37156  -0.37062  -0.36820  -0.36647
 Alpha  occ. eigenvalues --   -0.36272  -0.36101  -0.34350  -0.34136  -0.33893
 Alpha  occ. eigenvalues --   -0.33736  -0.33253  -0.33061  -0.31396  -0.31199
 Alpha  occ. eigenvalues --   -0.31101  -0.30855  -0.30109  -0.29839  -0.29509
 Alpha  occ. eigenvalues --   -0.29385  -0.29226  -0.29102  -0.24145  -0.23918
 Alpha  occ. eigenvalues --   -0.21189  -0.21002
 Alpha virt. eigenvalues --   -0.08836  -0.08682  -0.01809  -0.01573  -0.00119
 Alpha virt. eigenvalues --    0.00075   0.02133   0.02316   0.03051   0.03330
 Alpha virt. eigenvalues --    0.04640   0.04868   0.04976   0.05296   0.06066

 Mulliken charges:
               1
     1  Mg   0.838613
     2  C   -0.003280
     3  C   -0.094233
     4  C   -0.045780
     5  C   -0.063691
     6  N   -0.256799
     7  C   -0.052588
     8  C   -0.014034
     9  C   -0.087004
    10  C    0.046266
    11  C    0.104778
    12  C    0.053527
    13  C   -0.071477
    14  H    0.034930
    15  N   -0.433190
    16  C    0.168449
    17  C   -0.177087
    18  C   -0.003883
    19  C    0.148713
    20  C    0.110125
    21  C    0.012320
    22  O   -0.249522
    23  C    0.062434
    24  N   -0.341136
    25  C    0.041311
    26  C   -0.028226
    27  C   -0.024009
    28  C    0.074745
    29  C    0.076128
    30  C    0.035066
    31  C   -0.004598
    32  N   -0.310423
    33  C    0.080287
    34  C   -0.169607
    35  C    0.008257
    36  C    0.082875
    37  C    0.127318
    38  C    0.045937
    39  O   -0.188681
    40  C   -0.005311
    41  C    0.212939
    42  O   -0.257887
    43  O   -0.304509
    44  C    0.157963
    45  H   -0.017535
    46  H   -0.016674
    47  H   -0.041151
    48  H    0.000911
    49  H   -0.004115
    50  H    0.025507
    51  H    0.016645
    52  H    0.016727
    53  H    0.011190
    54  H    0.043520
    55  H    0.018167
    56  H    0.018100
    57  H    0.005833
    58  H    0.026990
    59  H    0.039744
    60  H    0.037434
    61  H    0.035775
    62  H    0.031628
    63  H    0.016634
    64  H    0.009625
    65  H    0.023353
    66  H    0.012518
    67  H    0.004924
    68  H    0.006588
    69  H    0.005072
    70  H    0.008641
    71  H    0.018769
    72  H    0.028652
    73  H    0.047514
    74  H    0.009497
    75  H    0.046090
    76  H    0.035272
    77  H    0.043041
    78  H    0.046355
    79  H    0.052730
    80  Mg   0.837956
    81  C   -0.016765
    82  C   -0.087560
    83  C   -0.045846
    84  C   -0.064986
    85  N   -0.254680
    86  C   -0.049325
    87  C   -0.015227
    88  C   -0.090542
    89  C    0.045871
    90  C    0.114282
    91  C    0.062487
    92  C   -0.077861
    93  H    0.034335
    94  N   -0.423484
    95  C    0.162868
    96  C   -0.174647
    97  C   -0.008210
    98  C    0.152287
    99  C    0.099433
   100  C    0.015293
   101  O   -0.253646
   102  C    0.061307
   103  N   -0.350058
   104  C    0.037619
   105  C   -0.019798
   106  C   -0.034820
   107  C    0.088975
   108  C    0.073699
   109  C    0.034796
   110  C   -0.007605
   111  N   -0.324123
   112  C    0.078574
   113  C   -0.163259
   114  C    0.002344
   115  C    0.096187
   116  C    0.131479
   117  C    0.042323
   118  O   -0.187976
   119  C    0.000948
   120  C    0.211196
   121  O   -0.251316
   122  O   -0.305272
   123  C    0.152137
   124  H   -0.019167
   125  H   -0.016078
   126  H   -0.040698
   127  H    0.000196
   128  H   -0.004544
   129  H    0.023522
   130  H    0.014636
   131  H    0.018079
   132  H    0.013560
   133  H    0.037330
   134  H    0.021653
   135  H    0.019479
   136  H    0.009040
   137  H    0.025658
   138  H    0.039452
   139  H    0.037950
   140  H    0.035910
   141  H    0.033923
   142  H    0.014090
   143  H    0.012504
   144  H    0.024598
   145  H    0.011537
   146  H    0.005903
   147  H    0.006008
   148  H    0.003578
   149  H    0.010743
   150  H    0.017718
   151  H    0.030250
   152  H    0.045809
   153  H    0.008306
   154  H    0.046930
   155  H    0.035884
   156  H    0.043913
   157  H    0.049707
   158  H    0.053234
 Sum of Mulliken charges =  -0.00000

 Dipole moment (field-independent basis, Debye):
    X=             -4.6603    Y=              1.9539    Z=              6.1427  Tot=              7.9542
 Quadrupole moment (field-independent basis, Debye-Ang):
   XX=           -518.1831   YY=           -524.1803   ZZ=           -475.3875
   XY=            -21.4093   XZ=              4.8017   YZ=            -23.7066

 Normal termination of Gaussian 16 at Sat Sep  4 11:24:02 2021.
