 Gaussian 16, Revision A.03,
 Gaussian 16:  ES64L-G16RevA.03 25-Dec-2016

 -----------------------------------
 #p cam-b3lyp/Def2SVP td=(nstates=5)
 -----------------------------------

 --------------------------------
 TDDFT excited states in gaussian
 --------------------------------
 Symbolic Z-matrix:
 Charge =  0 Multiplicity = 1

                         Standard orientation:
 ---------------------------------------------------------------------
 Center     Atomic      Atomic             Coordinates (Angstroms)
 Number     Number       Type             X           Y           Z
 ---------------------------------------------------------------------
      1         12           0        3.267906   -2.037638    0.400086
      2          6           0        4.753573    1.177065   -0.120193
      3          6           0        3.944582   -1.647662    3.721696
      4          6           0        2.378541   -5.051939    0.823925
      5          6           0        3.741669   -2.643009   -2.999140
      6          7           0        4.228933   -0.397829    1.535031
      7          6           0        4.700375    0.805877    1.225182
      8          6           0        5.063141    1.667014    2.471864
      9          6           0        5.303507    0.495197    3.525935
     10          6           0        4.412277   -0.570155    2.912208
     11          6           0        6.739368   -0.018898    3.548548
     12          6           0        3.886125    2.601098    2.912148
     13          6           0        4.262891    3.701604    3.908285
     14          1           0        3.603497    4.994676    3.805750
     15          7           0        2.727962   -2.995417    2.041418
     16          6           0        3.083065   -2.688320    3.312196
     17          6           0        2.427789   -3.696138    4.173356
     18          6           0        1.818194   -4.725453    3.286226
     19          6           0        2.312633   -4.307453    1.999298
     20          6           0        2.381976   -3.597110    5.667292
     21          6           0        0.939427   -5.905573    3.556812
     22          8           0        0.713423   -6.802014    2.673698
     23          6           0        0.414362   -6.032898    4.928358
     24          7           0        3.282377   -3.711278   -0.847453
     25          6           0        2.786837   -4.883330   -0.435484
     26          6           0        2.643773   -5.846873   -1.576124
     27          6           0        2.919078   -5.003923   -2.904053
     28          6           0        3.272335   -3.644554   -2.251677
     29          6           0        3.575692   -7.066075   -1.543191
     30          6           0        1.821042   -5.034488   -3.996666
     31          6           0        0.580693   -4.327658   -3.497645
     32          7           0        3.931428   -0.889203   -1.318017
     33          6           0        4.073241   -1.348540   -2.635428
     34          6           0        4.653271   -0.242088   -3.418625
     35          6           0        4.825095    0.785172   -2.492850
     36          6           0        4.404992    0.339268   -1.207169
     37          6           0        5.004310   -0.290955   -4.796601
     38          6           0        5.288815    2.147506   -2.285805
     39          8           0        5.667513    3.056530   -3.025910
     40          6           0        5.374757    2.414772   -0.718320
     41          6           0        4.710663    3.736857   -0.445594
     42          8           0        3.482694    3.882649   -0.613528
     43          8           0        5.572884    4.544593    0.190551
     44          6           0        4.967060    5.863109    0.517118
     45          1           0        4.315814   -1.739351    4.744301
     46          1           0        1.976767   -6.064269    0.902693
     47          1           0        3.838833   -2.730154   -4.082845
     48          1           0        5.969687    2.262888    2.364469
     49          1           0        4.945404    0.762234    4.520005
     50          1           0        7.331425    0.417299    2.744110
     51          1           0        6.663750   -1.099173    3.422923
     52          1           0        7.191561    0.137908    4.528195
     53          1           0        3.184097    2.031824    3.521365
     54          1           0        3.404730    3.050862    2.043069
     55          1           0        5.343997    3.828157    3.972331
     56          1           0        3.968854    3.374711    4.905724
     57          1           0        3.055783   -2.825868    6.038390
     58          1           0        2.791046   -4.527464    6.060755
     59          1           0        1.366697   -3.455996    6.038275
     60          1           0        1.247764   -6.092198    5.628696
     61          1           0       -0.264718   -6.884632    4.912509
     62          1           0       -0.135044   -5.125760    5.181737
     63          1           0        1.635966   -6.258107   -1.616583
     64          1           0        3.818553   -5.338223   -3.421607
     65          1           0        3.049186   -8.020462   -1.568546
     66          1           0        4.201365   -6.988103   -0.654515
     67          1           0        4.324796   -7.090305   -2.334186
     68          1           0        1.536666   -6.062250   -4.219785
     69          1           0        2.130365   -4.565696   -4.930906
     70          1           0        0.072684   -5.102679   -2.924844
     71          1           0       -0.032381   -3.997195   -4.336779
     72          1           0        0.831959   -3.523221   -2.806101
     73          1           0        4.658198    0.645940   -5.232953
     74          1           0        4.550260   -1.149633   -5.290678
     75          1           0        6.088644   -0.375073   -4.725884
     76          1           0        6.433178    2.427301   -0.460035
     77          1           0        5.608719    6.628265    0.080031
     78          1           0        4.824202    5.879371    1.597734
     79          1           0        4.016725    6.090179    0.032719
     80         12           0       -4.122525    0.735582   -0.508586
     81          6           0       -1.754076    3.428559   -0.640491
     82          6           0       -4.492969    1.422330    2.811920
     83          6           0       -5.865138   -1.904155   -0.258676
     84          6           0       -2.738264   -0.443092   -3.481834
     85          7           0       -3.189927    2.254387    0.801280
     86          6           0       -2.350349    3.263897    0.627099
     87          6           0       -2.199217    4.194816    1.860029
     88          6           0       -2.634257    3.153409    3.002427
     89          6           0       -3.524639    2.234096    2.168899
     90          6           0       -1.474386    2.333624    3.542782
     91          6           0       -3.172012    5.424643    1.803234
     92          6           0       -2.865860    6.533884    2.811995
     93          1           0       -3.096953    7.919785    2.414048
     94          7           0       -5.407272    0.172986    0.895506
     95          6           0       -5.426367    0.567085    2.186093
     96          6           0       -6.552193   -0.146857    2.808149
     97          6           0       -7.094053   -1.119401    1.820602
     98          6           0       -6.108424   -0.999981    0.764959
     99          6           0       -7.062413    0.178103    4.182018
    100          6           0       -8.292949   -2.018712    1.830742
    101          8           0       -8.440296   -2.954167    0.967010
    102          6           0       -9.242914   -1.832349    2.937234
    103          7           0       -4.143469   -1.046663   -1.578854
    104          6           0       -5.037129   -2.011259   -1.298012
    105          6           0       -5.044502   -3.076439   -2.368398
    106          6           0       -4.137998   -2.500867   -3.553541
    107          6           0       -3.670358   -1.183220   -2.897398
    108          6           0       -4.518456   -4.447927   -1.945704
    109          6           0       -4.783194   -2.435436   -4.964953
    110          6           0       -5.895163   -1.411338   -4.977151
    111          7           0       -2.666624    1.448984   -1.936686
    112          6           0       -2.215602    0.785517   -3.098785
    113          6           0       -1.141090    1.613668   -3.683607
    114          6           0       -1.024836    2.698565   -2.801570
    115          6           0       -1.946903    2.546326   -1.731003
    116          6           0       -0.389950    1.298685   -4.850943
    117          6           0       -0.324409    3.932555   -2.527035
    118          8           0        0.504140    4.613740   -3.129713
    119          6           0       -0.677772    4.395987   -1.048262
    120          6           0       -1.029294    5.857877   -1.091150
    121          8           0       -2.042651    6.246726   -1.698207
    122          8           0       -0.238353    6.526624   -0.232340
    123          6           0       -0.556509    7.979423   -0.230957
    124          1           0       -4.514300    1.405057    3.901936
    125          1           0       -6.518047   -2.779814   -0.279383
    126          1           0       -2.323989   -0.692276   -4.461098
    127          1           0       -1.191035    4.547081    2.042397
    128          1           0       -3.213688    3.641388    3.781849
    129          1           0       -0.565940    2.504019    2.984365
    130          1           0       -1.781270    1.299246    3.459538
    131          1           0       -1.343891    2.524166    4.611895
    132          1           0       -4.162580    5.114404    2.159983
    133          1           0       -3.208305    5.836334    0.813381
    134          1           0       -1.869576    6.422860    3.257007
    135          1           0       -3.550077    6.432201    3.657883
    136          1           0       -6.362347    0.821302    4.729384
    137          1           0       -7.071209   -0.758668    4.749698
    138          1           0       -8.072566    0.592939    4.168987
    139          1           0       -8.727457   -1.976249    3.883846
    140          1           0      -10.076681   -2.503696    2.722759
    141          1           0       -9.594933   -0.794783    2.925112
    142          1           0       -6.047506   -3.242353   -2.741963
    143          1           0       -3.236434   -3.111180   -3.710165
    144          1           0       -5.249262   -5.263404   -2.103802
    145          1           0       -4.226220   -4.395609   -0.905323
    146          1           0       -3.593866   -4.757279   -2.430102
    147          1           0       -5.242034   -3.394804   -5.216453
    148          1           0       -4.075451   -2.200535   -5.752937
    149          1           0       -6.746803   -1.966969   -4.573349
    150          1           0       -6.091309   -1.070921   -5.991878
    151          1           0       -5.680234   -0.588766   -4.285176
    152          1           0       -0.313608    2.210897   -5.427609
    153          1           0       -0.861278    0.503196   -5.424378
    154          1           0        0.550361    0.975363   -4.396476
    155          1           0        0.197492    4.203456   -0.426651
    156          1           0        0.374328    8.510541   -0.452673
    157          1           0       -1.030262    8.180564    0.748250
    158          1           0       -1.204389    8.351360   -1.016048
 ---------------------------------------------------------------------

 SCF Done:  E(RCAM-B3LYP) =  -4069.81103513     A.U. after   19 cycles

 Excitation energies and oscillator strengths:

 Excited State   1:      Singlet-A      1.6347 eV  758.45 nm  f=0.0493  <S**2>=0.000
     309 -> 315       -0.11507
     310 -> 316       -0.11606
     311 -> 313       -0.48256
     312 -> 314        0.49075
 This state for optimization and/or second-order correction.
 Total Energy, E(TD-HF/TD-DFT) =  -4069.75096057
 Copying the excited state density for this state as the 1-particle RhoCI density.

 Excited State   2:      Singlet-A      1.7160 eV  722.52 nm  f=0.6402  <S**2>=0.000
     309 -> 315        0.13203
     310 -> 316       -0.12836
     311 -> 313        0.48721
     312 -> 314        0.47922

 Excited State   3:      Singlet-A      2.1775 eV  569.39 nm  f=0.0054  <S**2>=0.000
     309 -> 313        0.37527
     310 -> 314        0.52578
     311 -> 315       -0.15353
     312 -> 316        0.21790

 Excited State   4:      Singlet-A      2.1995 eV  563.71 nm  f=0.1592  <S**2>=0.000
     309 -> 313        0.51907
     310 -> 314       -0.36782
     311 -> 315       -0.23227
     312 -> 316       -0.16592

 Excited State   5:      Singlet-A      2.2131 eV  560.23 nm  f=0.0003  <S**2>=0.000
     312 -> 313        0.70626

 The electronic state is 1-A.
 Alpha  occ. eigenvalues --  -46.87829 -46.87276 -19.26127 -19.25846 -19.18898
 Alpha  occ. eigenvalues --  -19.18834 -19.18623 -19.18369 -19.18030 -19.17246
 Alpha  occ. eigenvalues --  -14.42500 -14.42143 -14.41492 -14.40968 -14.39433
 Alpha  occ. eigenvalues --  -14.38960 -14.38604 -14.38173 -10.38943 -10.38525
 Alpha  occ. eigenvalues --  -10.35469 -10.35056 -10.34259 -10.33412 -10.31487
 Alpha  occ. eigenvalues --  -10.31441 -10.31424 -10.30955 -10.30898 -10.30649
 Alpha  occ. eigenvalues --  -10.30594 -10.30529 -10.30272 -10.29969 -10.29955
 Alpha  occ. eigenvalues --  -10.29911 -10.29829 -10.29652 -10.29478 -10.29300
 Alpha  occ. eigenvalues --  -10.29087 -10.28971 -10.28844 -10.28727 -10.28470
 Alpha  occ. eigenvalues --  -10.28404 -10.28373 -10.28196 -10.27950 -10.27864
 Alpha  occ. eigenvalues --  -10.27797 -10.27776 -10.27609 -10.27605 -10.27551
 Alpha  occ. eigenvalues --  -10.27534 -10.27528 -10.27425 -10.27320 -10.27235
 Alpha  occ. eigenvalues --  -10.27186 -10.27079 -10.27052 -10.27050 -10.27049
 Alpha  occ. eigenvalues --  -10.26895 -10.26439 -10.26426 -10.26365 -10.26293
 Alpha  occ. eigenvalues --  -10.26206 -10.26153 -10.26076 -10.25918 -10.25839
 Alpha  occ. eigenvalues --  -10.25801 -10.25577 -10.25495 -10.25362 -10.25062
 Alpha  occ. eigenvalues --  -10.24954 -10.24825 -10.24820 -10.24504 -10.24376
 Alpha  occ. eigenvalues --  -10.24278  -3.16571  -3.16027  -1.91452  -1.91040
 Alpha  occ. eigenvalues --   -1.90910  -1.90881  -1.90498  -1.90334  -1.16475
 Alpha  occ. eigenvalues --   -1.16125  -1.08468  -1.07809  -1.07234  -1.06629
 Alpha  occ. eigenvalues --   -1.06480  -1.06394  -1.04623  -1.04114  -1.03803
 Alpha  occ. eigenvalues --   -1.03272  -1.03261  -1.02639  -1.02441  -1.01699
 Alpha  occ. eigenvalues --   -0.91965  -0.91467  -0.89597  -0.89274  -0.89125
 Alpha  occ. eigenvalues --   -0.88853  -0.88361  -0.87874  -0.87869  -0.87733
 Alpha  occ. eigenvalues --   -0.87347  -0.87309  -0.87308  -0.86764  -0.85060
 Alpha  occ. eigenvalues --   -0.84676  -0.84022  -0.83532  -0.83013  -0.82694
 Alpha  occ. eigenvalues --   -0.82611  -0.82312  -0.81542  -0.81158  -0.80597
 Alpha  occ. eigenvalues --   -0.80042  -0.78824  -0.78245  -0.77285  -0.76983
 Alpha  occ. eigenvalues --   -0.76817  -0.76544  -0.75928  -0.75451  -0.74945
 Alpha  occ. eigenvalues --   -0.74430  -0.72806  -0.72296  -0.71704  -0.71198
 Alpha  occ. eigenvalues --   -0.70031  -0.69464  -0.68934  -0.68490  -0.67655
 Alpha  occ. eigenvalues --   -0.67312  -0.67179  -0.66885  -0.65348  -0.64911
 Alpha  occ. eigenvalues --   -0.64876  -0.64645  -0.64390  -0.64331  -0.64267
 Alpha  occ. eigenvalues --   -0.63844  -0.62227  -0.61829  -0.60481  -0.59971
 Alpha  occ. eigenvalues --   -0.59863  -0.59452  -0.59014  -0.58582  -0.58514
 Alpha  occ. eigenvalues --   -0.57982  -0.57526  -0.57311  -0.56966  -0.56768
 Alpha  occ. eigenvalues --   -0.56324  -0.55921  -0.55803  -0.55543  -0.55464
 Alpha  occ. eigenvalues --   -0.55362  -0.55079  -0.54846  -0.54511  -0.54080
 Alpha  occ. eigenvalues --   -0.53974  -0.53601  -0.53328  -0.53264  -0.52916
 Alpha  occ. eigenvalues --   -0.52860  -0.52809  -0.52777  -0.52547  -0.52512
 Alpha  occ. eigenvalues --   -0.52365  -0.52094  -0.51896  -0.51678  -0.51398
 Alpha  occ. eigenvalues --   -0.51335  -0.51196  -0.50730  -0.50627  -0.50177
 Alpha  occ. eigenvalues --   -0.50129  -0.49965  -0.49671  -0.49560  -0.49533
 Alpha  occ. eigenvalues --   -0.49214  -0.49151  -0.49129  -0.48816  -0.48674
 Alpha  occ. eigenvalues --   -0.48583  -0.48485  -0.48410  -0.48150  -0.48018
 Alpha  occ. eigenvalues --   -0.47863  -0.47728  -0.47321  -0.47228  -0.46854
 Alpha  occ. eigenvalues --   -0.46768  -0.46623  -0.46392  -0.46358  -0.46243
 Alpha  occ. eigenvalues --   -0.46162  -0.45900  -0.45783  -0.45660  -0.45364
 Alpha  occ. eigenvalues --   -0.45262  -0.44835  -0.44584  -0.44543  -0.44213
 Alpha  occ. eigenvalues --   -0.44202  -0.44146  -0.44042  -0.43982  -0.43764
 Alpha  occ. eigenvalues --   -0.43717  -0.43480  -0.43450  -0.43421  -0.43169
 Alpha  occ. eigenvalues --   -0.43042  -0.42994  -0.42787  -0.42555  -0.42502
 Alpha  occ. eigenvalues --   -0.42403  -0.42224  -0.42083  -0.41696  -0.41631
 Alpha  occ. eigenvalues --   -0.41604  -0.41170  -0.41143  -0.41114  -0.40961
 Alpha  occ. eigenvalues --   -0.40878  -0.40641  -0.40596  -0.40411  -0.40405
 Alpha  occ. eigenvalues --   -0.40361  -0.40131  -0.39949  -0.39594  -0.39138
 Alpha  occ. eigenvalues --   -0.38558  -0.38034  -0.37858  -0.37392  -0.37367
 Alpha  occ. eigenvalues --   -0.37324  -0.36918  -0.36841  -0.36651  -0.36317
 Alpha  occ. eigenvalues --   -0.36158  -0.35828  -0.34313  -0.33850  -0.33642
 Alpha  occ. eigenvalues --   -0.33338  -0.33197  -0.32767  -0.31365  -0.31064
 Alpha  occ. eigenvalues --   -0.30930  -0.30562  -0.29892  -0.29467  -0.29310
 Alpha  occ. eigenvalues --   -0.29142  -0.28926  -0.28692  -0.24112  -0.23621
 Alpha  occ. eigenvalues --   -0.21167  -0.20725
 Alpha virt. eigenvalues --   -0.08796  -0.08363  -0.01791  -0.01314  -0.00075
 Alpha virt. eigenvalues --    0.00370   0.02231   0.02482   0.02916   0.03713
 Alpha virt. eigenvalues --    0.04640   0.05029   0.05195   0.05735   0.06006

 Mulliken charges:
               1
     1  Mg   0.838736
     2  C   -0.003537
     3  C   -0.094856
     4  C   -0.045614
     5  C   -0.065105
     6  N   -0.256369
     7  C   -0.053552
     8  C   -0.013321
     9  C   -0.086876
    10  C    0.045632
    11  C    0.104814
    12  C    0.051759
    13  C   -0.071137
    14  H    0.034853
    15  N   -0.433196
    16  C    0.168117
    17  C   -0.177636
    18  C   -0.003976
    19  C    0.148924
    20  C    0.110316
    21  C    0.012690
    22  O   -0.249441
    23  C    0.062494
    24  N   -0.340954
    25  C    0.041093
    26  C   -0.028475
    27  C   -0.023807
    28  C    0.075040
    29  C    0.076086
    30  C    0.035819
    31  C   -0.009431
    32  N   -0.310558
    33  C    0.079473
    34  C   -0.171223
    35  C    0.010137
    36  C    0.083342
    37  C    0.126283
    38  C    0.050571
    39  O   -0.183806
    40  C   -0.007461
    41  C    0.216445
    42  O   -0.251363
    43  O   -0.305743
    44  C    0.154960
    45  H   -0.017921
    46  H   -0.016911
    47  H   -0.041844
    48  H    0.001796
    49  H   -0.004912
    50  H    0.025880
    51  H    0.016685
    52  H    0.016488
    53  H    0.010185
    54  H    0.043526
    55  H    0.019152
    56  H    0.016908
    57  H    0.005286
    58  H    0.026942
    59  H    0.038473
    60  H    0.037070
    61  H    0.036109
    62  H    0.031038
    63  H    0.016225
    64  H    0.009942
    65  H    0.023285
    66  H    0.012880
    67  H    0.004838
    68  H    0.006408
    69  H    0.004337
    70  H    0.009842
    71  H    0.016649
    72  H    0.032006
    73  H    0.050638
    74  H    0.007966
    75  H    0.046235
    76  H    0.034986
    77  H    0.043042
    78  H    0.043795
    79  H    0.060057
    80  Mg   0.835056
    81  C   -0.016091
    82  C   -0.088264
    83  C   -0.046029
    84  C   -0.067085
    85  N   -0.253852
    86  C   -0.050353
    87  C   -0.014241
    88  C   -0.090943
    89  C    0.044663
    90  C    0.113099
    91  C    0.062827
    92  C   -0.076745
    93  H    0.033961
    94  N   -0.423207
    95  C    0.161809
    96  C   -0.176096
    97  C   -0.008726
    98  C    0.151362
    99  C    0.099980
   100  C    0.014784
   101  O   -0.254159
   102  C    0.061553
   103  N   -0.350600
   104  C    0.037531
   105  C   -0.020233
   106  C   -0.035515
   107  C    0.090189
   108  C    0.073366
   109  C    0.034589
   110  C   -0.007114
   111  N   -0.324832
   112  C    0.078742
   113  C   -0.163658
   114  C    0.005469
   115  C    0.093610
   116  C    0.130379
   117  C    0.053088
   118  O   -0.178559
   119  C   -0.001294
   120  C    0.209096
   121  O   -0.253358
   122  O   -0.303654
   123  C    0.152626
   124  H   -0.022132
   125  H   -0.016460
   126  H   -0.041823
   127  H    0.000179
   128  H   -0.005817
   129  H    0.025109
   130  H    0.013469
   131  H    0.012486
   132  H    0.013478
   133  H    0.038179
   134  H    0.019132
   135  H    0.018584
   136  H    0.007210
   137  H    0.024242
   138  H    0.038619
   139  H    0.037378
   140  H    0.035380
   141  H    0.033371
   142  H    0.013534
   143  H    0.012910
   144  H    0.024152
   145  H    0.013298
   146  H    0.005135
   147  H    0.005331
   148  H    0.002178
   149  H    0.010778
   150  H    0.017156
   151  H    0.030822
   152  H    0.046325
   153  H    0.004762
   154  H    0.051573
   155  H    0.049598
   156  H    0.041101
   157  H    0.047298
   158  H    0.053071
 Sum of Mulliken charges =  -0.00000

 Dipole moment (field-independent basis, Debye):
    X=              1.5644    Y=             -1.6334    Z=              7.8591  Tot=              8.1781
 Quadrupole moment (field-independent basis, Debye-Ang):
   XX=           -519.1807   YY=           -525.9633   ZZ=           -462.5265
   XY=            -21.3543   XZ=              9.1430   YZ=             53.0356

 Normal termination of Gaussian 16 at Thu Sep  9 06:10:41 2021.
