 Gaussian 16, Revision A.03,
 Gaussian 16:  ES64L-G16RevA.03 25-Dec-2016

 -----------------------------------
 #p cam-b3lyp/Def2SVP td=(nstates=5)
 -----------------------------------

 --------------------------------
 TDDFT excited states in gaussian
 --------------------------------
 Symbolic Z-matrix:
 Charge =  0 Multiplicity = 1

                         Standard orientation:
 ---------------------------------------------------------------------
 Center     Atomic      Atomic             Coordinates (Angstroms)
 Number     Number       Type             X           Y           Z
 ---------------------------------------------------------------------
      1         12           0       15.772231   -0.817129   -0.063101
      2          6           0       16.157410    2.731149   -0.334350
      3          6           0       16.680958   -0.515811    3.212031
      4          6           0       15.880722   -3.983016    0.085247
      5          6           0       16.008600   -0.960037   -3.537201
      6          7           0       16.323255    0.938734    1.167332
      7          6           0       16.373802    2.250698    0.959089
      8          6           0       16.604074    3.074520    2.261267
      9          6           0       17.304323    1.950837    3.149516
     10          6           0       16.707877    0.717189    2.495079
     11          6           0       18.820722    1.906244    2.991257
     12          6           0       15.260771    3.558372    2.904040
     13          6           0       15.403690    4.634196    3.984564
     14          1           0       14.380424    5.663601    4.087515
     15          7           0       15.737349   -2.028556    1.497052
     16          6           0       16.128906   -1.733934    2.760051
     17          6           0       15.909452   -2.963276    3.552035
     18          6           0       15.537328   -4.052809    2.607294
     19          6           0       15.731619   -3.396373    1.339729
     20          6           0       16.009359   -3.008437    5.045932
     21          6           0       15.089383   -5.465185    2.813868
     22          8           0       15.041291   -6.310500    1.855900
     23          6           0       14.788917   -5.862823    4.201185
     24          7           0       16.142239   -2.293802   -1.491445
     25          6           0       16.071218   -3.591769   -1.176451
     26          6           0       16.091949   -4.453473   -2.404041
     27          6           0       15.946807   -3.458881   -3.644796
     28          6           0       15.950224   -2.116407   -2.872770
     29          6           0       17.343182   -5.322769   -2.590463
     30          6           0       14.789473   -3.736312   -4.636778
     31          6           0       13.460972   -3.492228   -3.956626
     32          7           0       15.858233    0.619547   -1.687790
     33          6           0       15.977480    0.338362   -3.056508
     34          6           0       16.105180    1.631341   -3.753620
     35          6           0       16.067756    2.580248   -2.733806
     36          6           0       15.952077    1.920485   -1.476976
     37          6           0       16.292784    1.808772   -5.152819
     38          6           0       16.123363    3.996908   -2.411563
     39          8           0       16.124424    5.036979   -3.071671
     40          6           0       16.306244    4.145734   -0.836687
     41          6           0       15.313283    5.169821   -0.358585
     42          8           0       14.087153    4.942002   -0.404087
     43          8           0       15.961920    6.148594    0.290889
     44          6           0       15.031449    7.182834    0.816938
     45          1           0       17.178370   -0.573219    4.182198
     46          1           0       15.812159   -5.072841    0.080872
     47          1           0       16.001259   -0.921998   -4.628050
     48          1           0       17.272011    3.928429    2.146713
     49          1           0       17.000320    2.009951    4.194413
     50          1           0       19.157877    2.569819    2.195069
     51          1           0       19.057748    0.870048    2.749162
     52          1           0       19.315502    2.112862    3.940614
     53          1           0       14.836674    2.751021    3.501022
     54          1           0       14.569663    3.908057    2.136306
     55          1           0       16.397215    5.083231    3.970977
     56          1           0       15.338446    4.150249    4.959110
     57          1           0       16.459779   -2.100391    5.444829
     58          1           0       16.720691   -3.796012    5.293808
     59          1           0       15.048460   -3.219895    5.515284
     60          1           0       15.677082   -5.719629    4.816983
     61          1           0       14.398705   -6.878420    4.145095
     62          1           0       14.026484   -5.194692    4.602739
     63          1           0       15.255749   -5.151464   -2.406033
     64          1           0       16.838853   -3.454006   -4.271617
     65          1           0       17.127092   -6.387603   -2.680677
     66          1           0       18.015328   -5.129551   -1.754893
     67          1           0       17.968387   -5.047865   -3.439559
     68          1           0       14.801777   -4.779213   -4.951660
     69          1           0       14.834058   -3.118501   -5.533757
     70          1           0       13.277977   -4.431400   -3.435760
     71          1           0       12.684300   -3.298796   -4.697286
     72          1           0       13.538341   -2.710245   -3.200980
     73          1           0       15.634162    2.625606   -5.447723
     74          1           0       16.062432    0.896169   -5.702088
     75          1           0       17.353165    2.058690   -5.184289
     76          1           0       17.334878    4.463515   -0.669208
     77          1           0       15.359691    8.142677    0.417948
     78          1           0       15.016359    7.063770    1.900451
     79          1           0       14.007334    7.144343    0.444049
     80         12           0      -15.942835    0.822814    0.091737
     81          6           0      -15.921325   -2.762518    0.246542
     82          6           0      -15.096170    0.536817   -3.200064
     83          6           0      -15.512858    3.965903    0.031761
     84          6           0      -15.656781    0.835996    3.565016
     85          7           0      -15.584249   -0.939302   -1.196140
     86          6           0      -15.665381   -2.252475   -1.043342
     87          6           0      -15.540281   -3.062346   -2.361681
     88          6           0      -14.728065   -1.983356   -3.230575
     89          6           0      -15.186742   -0.707716   -2.526989
     90          6           0      -13.220630   -2.098239   -3.076392
     91          6           0      -16.936800   -3.381556   -3.001891
     92          6           0      -16.908428   -4.427883   -4.118207
     93          1           0      -18.039518   -5.343010   -4.243325
     94          7           0      -15.869403    2.079959   -1.442145
     95          6           0      -15.527584    1.791114   -2.715336
     96          6           0      -15.610394    3.061646   -3.452258
     97          6           0      -15.869033    4.154365   -2.475641
     98          6           0      -15.736892    3.429405   -1.227813
     99          6           0      -15.528074    3.141022   -4.949030
    100          6           0      -16.171053    5.613389   -2.637617
    101          8           0      -16.124871    6.424662   -1.646381
    102          6           0      -16.431004    6.080975   -4.007016
    103          7           0      -15.417995    2.202307    1.555938
    104          6           0      -15.351659    3.515816    1.276254
    105          6           0      -15.228236    4.336593    2.537793
    106          6           0      -15.469798    3.312384    3.742057
    107          6           0      -15.608758    2.002281    2.936020
    108          6           0      -13.892134    5.051447    2.738285
    109          6           0      -16.584390    3.674855    4.761356
    110          6           0      -17.938395    3.602768    4.092879
    111          7           0      -15.996139   -0.659825    1.662404
    112          6           0      -15.829881   -0.441376    3.047586
    113          6           0      -15.830890   -1.766553    3.700518
    114          6           0      -15.975725   -2.672476    2.639007
    115          6           0      -16.038811   -1.963113    1.409246
    116          6           0      -15.660908   -2.007968    5.092978
    117          6           0      -16.078920   -4.068131    2.278172
    118          8           0      -16.172360   -5.122777    2.904843
    119          6           0      -15.921224   -4.195508    0.701689
    120          6           0      -17.018618   -5.091331    0.195991
    121          8           0      -18.208864   -4.739986    0.276511
    122          8           0      -16.473222   -6.110961   -0.491957
    123          6           0      -17.522628   -7.021169   -1.023068
    124          1           0      -14.610524    0.564766   -4.175902
    125          1           0      -15.468125    5.056440    0.078615
    126          1           0      -15.670718    0.760423    4.654410
    127          1           0      -14.969069   -3.979217   -2.279093
    128          1           0      -15.053962   -1.985164   -4.267462
    129          1           0      -12.946875   -2.812324   -2.313966
    130          1           0      -12.876011   -1.108014   -2.808553
    131          1           0      -12.759359   -2.327117   -4.041358
    132          1           0      -17.277467   -2.507709   -3.572043
    133          1           0      -17.642748   -3.674977   -2.249445
    134          1           0      -15.961887   -4.981529   -4.140256
    135          1           0      -16.938544   -3.910101   -5.079979
    136          1           0      -15.170429    2.199008   -5.382743
    137          1           0      -14.742240    3.865723   -5.188073
    138          1           0      -16.463769    3.470930   -5.405434
    139          1           0      -15.569499    5.861511   -4.633198
    140          1           0      -16.714392    7.130673   -3.908536
    141          1           0      -17.271902    5.510969   -4.417631
    142          1           0      -15.988643    5.107038    2.573843
    143          1           0      -14.572900    3.201929    4.369118
    144          1           0      -13.997067    6.145696    2.863585
    145          1           0      -13.253791    4.824784    1.894675
    146          1           0      -13.299279    4.695058    3.578940
    147          1           0      -16.462557    4.704887    5.105400
    148          1           0      -16.588402    3.039858    5.640990
    149          1           0      -18.022171    4.575750    3.599558
    150          1           0      -18.724277    3.466568    4.833069
    151          1           0      -17.950890    2.834579    3.310980
    152          1           0      -16.390444   -2.757176    5.370414
    153          1           0      -15.786323   -1.095928    5.672836
    154          1           0      -14.626893   -2.362856    5.104601
    155          1           0      -14.931484   -4.608832    0.503795
    156          1           0      -17.288641   -8.025994   -0.657986
    157          1           0      -17.521964   -6.870587   -2.119004
    158          1           0      -18.532820   -6.891510   -0.652728
 ---------------------------------------------------------------------

 SCF Done:  E(RCAM-B3LYP) =  -4069.81178455     A.U. after   19 cycles

 Excitation energies and oscillator strengths:

 Excited State   1:      Singlet-A      1.6753 eV  740.06 nm  f=0.2124  <S**2>=0.000
     310 -> 316        0.16859
     311 -> 314        0.16280
     312 -> 313        0.66646
     310 <- 316        0.10164
 This state for optimization and/or second-order correction.
 Total Energy, E(TD-HF/TD-DFT) =  -4069.75021728
 Copying the excited state density for this state as the 1-particle RhoCI density.

 Excited State   2:      Singlet-A      1.6802 eV  737.93 nm  f=0.5649  <S**2>=0.000
     309 -> 315        0.17060
     311 -> 314        0.66609
     312 -> 313       -0.16275
     309 <- 315        0.10214

 Excited State   3:      Singlet-A      2.1861 eV  567.14 nm  f=0.0950  <S**2>=0.000
     310 -> 313        0.64209
     312 -> 316       -0.27296

 Excited State   4:      Singlet-A      2.1926 eV  565.47 nm  f=0.1050  <S**2>=0.000
     309 -> 314        0.64032
     311 -> 315       -0.27815

 Excited State   5:      Singlet-A      3.0659 eV  404.40 nm  f=0.0000  <S**2>=0.000
     311 -> 313        0.70711

 The electronic state is 1-A.
 Alpha  occ. eigenvalues --  -46.87796 -46.87661 -19.26351 -19.26284 -19.19162
 Alpha  occ. eigenvalues --  -19.19020 -19.18812 -19.18712 -19.18170 -19.18053
 Alpha  occ. eigenvalues --  -14.42497 -14.42449 -14.41449 -14.41360 -14.39402
 Alpha  occ. eigenvalues --  -14.39352 -14.38600 -14.38587 -10.39092 -10.39079
 Alpha  occ. eigenvalues --  -10.35446 -10.35389 -10.34390 -10.34230 -10.31758
 Alpha  occ. eigenvalues --  -10.31679 -10.31405 -10.31309 -10.31022 -10.30907
 Alpha  occ. eigenvalues --  -10.30570 -10.30507 -10.30398 -10.30361 -10.30207
 Alpha  occ. eigenvalues --  -10.30141 -10.29921 -10.29896 -10.29630 -10.29436
 Alpha  occ. eigenvalues --  -10.29401 -10.29253 -10.28747 -10.28717 -10.28652
 Alpha  occ. eigenvalues --  -10.28534 -10.28404 -10.28364 -10.28138 -10.28114
 Alpha  occ. eigenvalues --  -10.28001 -10.27793 -10.27726 -10.27668 -10.27583
 Alpha  occ. eigenvalues --  -10.27520 -10.27503 -10.27484 -10.27477 -10.27466
 Alpha  occ. eigenvalues --  -10.27461 -10.27451 -10.27403 -10.27377 -10.27158
 Alpha  occ. eigenvalues --  -10.27051 -10.26702 -10.26691 -10.26410 -10.26405
 Alpha  occ. eigenvalues --  -10.26232 -10.26188 -10.26141 -10.26020 -10.26020
 Alpha  occ. eigenvalues --  -10.25935 -10.25855 -10.25846 -10.25437 -10.25398
 Alpha  occ. eigenvalues --  -10.24873 -10.24833 -10.24787 -10.24734 -10.24692
 Alpha  occ. eigenvalues --  -10.24690  -3.16539  -3.16410  -1.91421  -1.91293
 Alpha  occ. eigenvalues --   -1.91007  -1.90881  -1.90849  -1.90718  -1.16645
 Alpha  occ. eigenvalues --   -1.16633  -1.08660  -1.08628  -1.07213  -1.06964
 Alpha  occ. eigenvalues --   -1.06947  -1.06642  -1.04580  -1.04495  -1.03760
 Alpha  occ. eigenvalues --   -1.03663  -1.03233  -1.03039  -1.02411  -1.02112
 Alpha  occ. eigenvalues --   -0.91987  -0.91972  -0.89521  -0.89496  -0.89186
 Alpha  occ. eigenvalues --   -0.89149  -0.88288  -0.88221  -0.87871  -0.87795
 Alpha  occ. eigenvalues --   -0.87683  -0.87672  -0.87272  -0.87118  -0.84998
 Alpha  occ. eigenvalues --   -0.84980  -0.83938  -0.83878  -0.82965  -0.82930
 Alpha  occ. eigenvalues --   -0.82651  -0.82647  -0.81597  -0.81585  -0.80596
 Alpha  occ. eigenvalues --   -0.80443  -0.78796  -0.78635  -0.77218  -0.77144
 Alpha  occ. eigenvalues --   -0.76933  -0.76898  -0.75922  -0.75838  -0.74899
 Alpha  occ. eigenvalues --   -0.74803  -0.72774  -0.72700  -0.71672  -0.71581
 Alpha  occ. eigenvalues --   -0.69909  -0.69759  -0.68871  -0.68826  -0.67640
 Alpha  occ. eigenvalues --   -0.67601  -0.67217  -0.67198  -0.65285  -0.65271
 Alpha  occ. eigenvalues --   -0.64853  -0.64771  -0.64654  -0.64620  -0.64270
 Alpha  occ. eigenvalues --   -0.64205  -0.62298  -0.62279  -0.60441  -0.60339
 Alpha  occ. eigenvalues --   -0.59803  -0.59795  -0.58993  -0.58987  -0.58503
 Alpha  occ. eigenvalues --   -0.58426  -0.57584  -0.57556  -0.57309  -0.57237
 Alpha  occ. eigenvalues --   -0.56309  -0.56204  -0.55978  -0.55887  -0.55519
 Alpha  occ. eigenvalues --   -0.55451  -0.55340  -0.55249  -0.54524  -0.54489
 Alpha  occ. eigenvalues --   -0.53911  -0.53893  -0.53298  -0.53228  -0.53220
 Alpha  occ. eigenvalues --   -0.53141  -0.52914  -0.52902  -0.52753  -0.52665
 Alpha  occ. eigenvalues --   -0.52441  -0.52404  -0.51916  -0.51888  -0.51657
 Alpha  occ. eigenvalues --   -0.51614  -0.51202  -0.51196  -0.50569  -0.50472
 Alpha  occ. eigenvalues --   -0.50032  -0.49978  -0.49916  -0.49867  -0.49513
 Alpha  occ. eigenvalues --   -0.49486  -0.49214  -0.49202  -0.49104  -0.49095
 Alpha  occ. eigenvalues --   -0.48593  -0.48558  -0.48461  -0.48444  -0.48377
 Alpha  occ. eigenvalues --   -0.48337  -0.47694  -0.47594  -0.47296  -0.47117
 Alpha  occ. eigenvalues --   -0.46797  -0.46709  -0.46553  -0.46552  -0.46359
 Alpha  occ. eigenvalues --   -0.46271  -0.46163  -0.46087  -0.45824  -0.45822
 Alpha  occ. eigenvalues --   -0.45209  -0.45202  -0.44578  -0.44515  -0.44505
 Alpha  occ. eigenvalues --   -0.44475  -0.44145  -0.44127  -0.44087  -0.44078
 Alpha  occ. eigenvalues --   -0.44018  -0.43938  -0.43554  -0.43495  -0.43385
 Alpha  occ. eigenvalues --   -0.43385  -0.43027  -0.42931  -0.42902  -0.42699
 Alpha  occ. eigenvalues --   -0.42656  -0.42554  -0.42010  -0.41965  -0.41704
 Alpha  occ. eigenvalues --   -0.41670  -0.41532  -0.41458  -0.41140  -0.40989
 Alpha  occ. eigenvalues --   -0.40868  -0.40821  -0.40720  -0.40697  -0.40572
 Alpha  occ. eigenvalues --   -0.40494  -0.40231  -0.40225  -0.39443  -0.39428
 Alpha  occ. eigenvalues --   -0.38470  -0.38351  -0.37746  -0.37653  -0.37321
 Alpha  occ. eigenvalues --   -0.37267  -0.37262  -0.37199  -0.36772  -0.36713
 Alpha  occ. eigenvalues --   -0.36218  -0.36193  -0.34286  -0.34254  -0.33863
 Alpha  occ. eigenvalues --   -0.33770  -0.33186  -0.33176  -0.31342  -0.31271
 Alpha  occ. eigenvalues --   -0.31035  -0.30973  -0.30029  -0.29957  -0.29448
 Alpha  occ. eigenvalues --   -0.29327  -0.29322  -0.29212  -0.24080  -0.24036
 Alpha  occ. eigenvalues --   -0.21127  -0.21117
 Alpha virt. eigenvalues --   -0.08792  -0.08774  -0.01749  -0.01684  -0.00056
 Alpha virt. eigenvalues --   -0.00027   0.02200   0.02206   0.03124   0.03226
 Alpha virt. eigenvalues --    0.04719   0.04731   0.05098   0.05164   0.06180

 Mulliken charges:
               1
     1  Mg   0.838755
     2  C   -0.002950
     3  C   -0.094088
     4  C   -0.045879
     5  C   -0.063983
     6  N   -0.256785
     7  C   -0.052456
     8  C   -0.014023
     9  C   -0.086999
    10  C    0.046331
    11  C    0.104802
    12  C    0.053453
    13  C   -0.071826
    14  H    0.036152
    15  N   -0.433147
    16  C    0.168440
    17  C   -0.177135
    18  C   -0.003986
    19  C    0.148715
    20  C    0.110176
    21  C    0.012296
    22  O   -0.249622
    23  C    0.062469
    24  N   -0.341170
    25  C    0.041275
    26  C   -0.028212
    27  C   -0.023914
    28  C    0.074823
    29  C    0.076167
    30  C    0.035114
    31  C   -0.004485
    32  N   -0.310452
    33  C    0.080403
    34  C   -0.169746
    35  C    0.008337
    36  C    0.082947
    37  C    0.127323
    38  C    0.046098
    39  O   -0.188486
    40  C   -0.005323
    41  C    0.212881
    42  O   -0.257123
    43  O   -0.304796
    44  C    0.157699
    45  H   -0.017568
    46  H   -0.016832
    47  H   -0.041541
    48  H    0.000937
    49  H   -0.003997
    50  H    0.025467
    51  H    0.016448
    52  H    0.016687
    53  H    0.011228
    54  H    0.044110
    55  H    0.017870
    56  H    0.017987
    57  H    0.005899
    58  H    0.026853
    59  H    0.039612
    60  H    0.037364
    61  H    0.035688
    62  H    0.031537
    63  H    0.016550
    64  H    0.009440
    65  H    0.023213
    66  H    0.012567
    67  H    0.004739
    68  H    0.006344
    69  H    0.004688
    70  H    0.008792
    71  H    0.018074
    72  H    0.029002
    73  H    0.047520
    74  H    0.009068
    75  H    0.045997
    76  H    0.035150
    77  H    0.042933
    78  H    0.046430
    79  H    0.053672
    80  Mg   0.837881
    81  C   -0.016842
    82  C   -0.087765
    83  C   -0.045478
    84  C   -0.064899
    85  N   -0.254569
    86  C   -0.049841
    87  C   -0.015106
    88  C   -0.090496
    89  C    0.045768
    90  C    0.114358
    91  C    0.062520
    92  C   -0.077903
    93  H    0.034889
    94  N   -0.423512
    95  C    0.162919
    96  C   -0.174560
    97  C   -0.007773
    98  C    0.152127
    99  C    0.099329
   100  C    0.015595
   101  O   -0.253164
   102  C    0.061189
   103  N   -0.350070
   104  C    0.037531
   105  C   -0.019830
   106  C   -0.034824
   107  C    0.088921
   108  C    0.073640
   109  C    0.034736
   110  C   -0.007672
   111  N   -0.324116
   112  C    0.078439
   113  C   -0.163169
   114  C    0.002241
   115  C    0.096186
   116  C    0.131483
   117  C    0.042355
   118  O   -0.187920
   119  C    0.000941
   120  C    0.211228
   121  O   -0.251018
   122  O   -0.305620
   123  C    0.152030
   124  H   -0.019575
   125  H   -0.015543
   126  H   -0.040496
   127  H   -0.000645
   128  H   -0.004291
   129  H    0.022459
   130  H    0.014461
   131  H    0.016358
   132  H    0.013926
   133  H    0.037657
   134  H    0.020807
   135  H    0.019625
   136  H    0.008809
   137  H    0.026244
   138  H    0.039830
   139  H    0.038318
   140  H    0.036436
   141  H    0.033895
   142  H    0.014403
   143  H    0.012402
   144  H    0.025164
   145  H    0.011699
   146  H    0.005668
   147  H    0.006258
   148  H    0.003615
   149  H    0.010946
   150  H    0.017905
   151  H    0.030111
   152  H    0.045972
   153  H    0.008483
   154  H    0.046918
   155  H    0.035036
   156  H    0.043899
   157  H    0.049518
   158  H    0.053567
 Sum of Mulliken charges =  -0.00000

 Dipole moment (field-independent basis, Debye):
    X=              3.9957    Y=             -0.2277    Z=              0.1212  Tot=              4.0041
 Quadrupole moment (field-independent basis, Debye-Ang):
   XX=           -519.0478   YY=           -551.5214   ZZ=           -447.1504
   XY=            -40.6649   XZ=            126.9809   YZ=             48.1238

 Normal termination of Gaussian 16 at Sun Sep 12 12:43:50 2021.
