 Gaussian 16, Revision A.03,
 Gaussian 16:  ES64L-G16RevA.03 25-Dec-2016

 -----------------------------------
 #p cam-b3lyp/Def2SVP td=(nstates=5)
 -----------------------------------

 --------------------------------
 TDDFT excited states in gaussian
 --------------------------------
 Symbolic Z-matrix:
 Charge =  0 Multiplicity = 1

                         Standard orientation:
 ---------------------------------------------------------------------
 Center     Atomic      Atomic             Coordinates (Angstroms)
 Number     Number       Type             X           Y           Z
 ---------------------------------------------------------------------
      1         12           0       -5.223472   -0.673645    0.142001
      2          6           0       -5.350371    2.896773    0.361608
      3          6           0       -6.132842   -0.355959   -3.131406
      4          6           0       -5.560519   -3.825334    0.042636
      5          6           0       -5.443305   -0.747930    3.619329
      6          7           0       -5.656033    1.099021   -1.111472
      7          6           0       -5.610508    2.414145   -0.922932
      8          6           0       -5.790739    3.233130   -2.236003
      9          6           0       -6.576678    2.149838   -3.102476
     10          6           0       -6.065595    0.886211   -2.433175
     11          6           0       -8.091120    2.216932   -2.933764
     12          6           0       -4.420998    3.609433   -2.894741
     13          6           0       -4.494306    4.676713   -3.990595
     14          1           0       -3.400451    5.628104   -4.115835
     15          7           0       -5.287584   -1.907302   -1.399696
     16          6           0       -5.666447   -1.603889   -2.664484
     17          6           0       -5.541965   -2.857386   -3.439036
     18          6           0       -5.242062   -3.956850   -2.480219
     19          6           0       -5.379069   -3.269511   -1.221580
     20          6           0       -5.656124   -2.917248   -4.931394
     21          6           0       -4.898439   -5.400715   -2.668127
     22          8           0       -4.904053   -6.233086   -1.697715
     23          6           0       -4.637823   -5.839370   -4.051132
     24          7           0       -5.687958   -2.098613    1.595050
     25          6           0       -5.712860   -3.402826    1.299428
     26          6           0       -5.786263   -4.242609    2.540120
     27          6           0       -5.560605   -3.242875    3.764605
     28          6           0       -5.473270   -1.915169    2.972241
     29          6           0       -7.095341   -5.016672    2.747851
     30          6           0       -4.418777   -3.588302    4.753204
     31          6           0       -3.081326   -3.450603    4.060843
     32          7           0       -5.193659    0.789285    1.745120
     33          6           0       -5.322499    0.537627    3.118707
     34          6           0       -5.351605    1.846581    3.796838
     35          6           0       -5.253714    2.775191    2.762457
     36          6           0       -5.195271    2.090355    1.515109
     37          6           0       -5.515404    2.057670    5.194352
     38          6           0       -5.209705    4.187272    2.419019
     39          8           0       -5.130974    5.234334    3.063189
     40          6           0       -5.393277    4.325655    0.843273
     41          6           0       -4.332859    5.268395    0.343209
     42          8           0       -3.125984    4.953539    0.384258
     43          8           0       -4.914292    6.281670   -0.316906
     44          6           0       -3.915832    7.238330   -0.864660
     45          1           0       -6.640397   -0.391681   -4.097352
     46          1           0       -5.570494   -4.917083    0.063183
     47          1           0       -5.425023   -0.694444    4.709402
     48          1           0       -6.394641    4.134531   -2.130167
     49          1           0       -6.277098    2.171492   -4.150095
     50          1           0       -8.373658    2.914733   -2.145623
     51          1           0       -8.400233    1.204183   -2.674374
     52          1           0       -8.576901    2.444638   -3.882944
     53          1           0       -4.060584    2.764919   -3.482073
     54          1           0       -3.700758    3.919705   -2.136908
     55          1           0       -5.452828    5.196301   -3.977437
     56          1           0       -4.471391    4.175012   -4.958050
     57          1           0       -6.043056   -1.985093   -5.341170
     58          1           0       -6.424112   -3.655104   -5.162635
     59          1           0       -4.716491   -3.204270   -5.403665
     60          1           0       -5.518005   -5.641662   -4.663292
     61          1           0       -4.321262   -6.879501   -3.982088
     62          1           0       -3.832356   -5.233888   -4.467742
     63          1           0       -5.002444   -4.998917    2.547351
     64          1           0       -6.445237   -3.164516    4.397028
     65          1           0       -6.955730   -6.092860    2.852890
     66          1           0       -7.758130   -4.787876    1.913792
     67          1           0       -7.692733   -4.684960    3.596678
     68          1           0       -4.503690   -4.622853    5.084022
     69          1           0       -4.412043   -2.955730    5.640930
     70          1           0       -2.970293   -4.408092    3.553184
     71          1           0       -2.287191   -3.302724    4.793435
     72          1           0       -3.107943   -2.676301    3.293879
     73          1           0       -4.797528    2.829195    5.472509
     74          1           0       -5.347156    1.139040    5.755970
     75          1           0       -6.554794    2.383760    5.228857
     76          1           0       -6.397622    4.714205    0.677617
     77          1           0       -4.171165    8.225101   -0.478238
     78          1           0       -3.917516    7.102530   -1.946308
     79          1           0       -2.894356    7.131668   -0.497851
     80         12           0        5.364250   -0.887129    0.004105
     81          6           0        5.233887    2.692573    0.222747
     82          6           0        4.452948   -0.571298   -3.267650
     83          6           0        5.031273   -4.040663   -0.104426
     84          6           0        5.138157   -0.968997    3.480868
     85          7           0        4.929071    0.884746   -1.246230
     86          6           0        4.971923    2.196994   -1.071553
     87          6           0        4.799175    3.025085   -2.373085
     88          6           0        4.006174    1.936234   -3.247398
     89          6           0        4.516264    0.663711   -2.574221
     90          6           0        2.498748    2.001059   -3.066278
     91          6           0        6.173937    3.398947   -3.030559
     92          6           0        6.093960    4.462902   -4.127536
     93          1           0        7.193731    5.415106   -4.255133
     94          7           0        5.303737   -2.119394   -1.550382
     95          6           0        4.931381   -1.819578   -2.812420
     96          6           0        5.041060   -3.074024   -3.573012
     97          6           0        5.350218   -4.174715   -2.620324
     98          6           0        5.216941   -3.475824   -1.357836
     99          6           0        4.935670   -3.130204   -5.069394
    100          6           0        5.694651   -5.620538   -2.813101
    101          8           0        5.690676   -6.449779   -1.835771
    102          6           0        5.945570   -6.056124   -4.194692
    103          7           0        4.907676   -2.307390    1.452117
    104          6           0        4.877450   -3.617330    1.150343
    105          6           0        4.801198   -4.463141    2.399014
    106          6           0        5.031343   -3.452717    3.617069
    107          6           0        5.115684   -2.125227    2.832182
    108          6           0        3.491598   -5.222937    2.608886
    109          6           0        6.173930   -3.797487    4.611203
    110          6           0        7.513413   -3.671442    3.921795
    111          7           0        5.398252    0.569229    1.599698
    112          6           0        5.262581    0.321887    2.983352
    113          6           0        5.233539    1.635020    3.659566
    114          6           0        5.331959    2.563161    2.612018
    115          6           0        5.396044    1.877373    1.369003
    116          6           0        5.079959    1.847002    5.058707
    117          6           0        5.385507    3.967365    2.274316
    118          8           0        5.456801    5.013501    2.917940
    119          6           0        5.196999    4.116812    0.703163
    120          6           0        6.257197    5.055212    0.195322
    121          8           0        7.458994    4.740070    0.249894
    122          8           0        5.668671    6.068892   -0.465331
    123          6           0        6.680029    7.020598   -0.997525
    124          1           0        3.951793   -0.597696   -4.235654
    125          1           0        5.021286   -5.132715   -0.076170
    126          1           0        5.168359   -0.911762    4.571045
    127          1           0        4.201213    3.922021   -2.264823
    128          1           0        4.314084    1.966097   -4.289349
    129          1           0        2.215995    2.692983   -2.286898
    130          1           0        2.189724    0.996043   -2.810363
    131          1           0        2.014152    2.231902   -4.019279
    132          1           0        6.531825    2.546160   -3.621669
    133          1           0        6.883183    3.701406   -2.284827
    134          1           0        5.130421    4.986856   -4.124112
    135          1           0        6.123717    3.962936   -5.098703
    136          1           0        4.541545   -2.192565   -5.480369
    137          1           0        4.168785   -3.875003   -5.308194
    138          1           0        5.873233   -3.422679   -5.546995
    139          1           0        5.067079   -5.853078   -4.802547
    140          1           0        6.263115   -7.097945   -4.119529
    141          1           0        6.761191   -5.453024   -4.608996
    142          1           0        5.585699   -5.209843    2.408814
    143          1           0        4.142292   -3.381266    4.260746
    144          1           0        3.632635   -6.315337    2.713024
    145          1           0        2.832180   -5.001955    1.780108
    146          1           0        2.902398   -4.899838    3.465421
    147          1           0        6.090092   -4.836589    4.938911
    148          1           0        6.173221   -3.177894    5.501762
    149          1           0        7.618957   -4.632689    3.409982
    150          1           0        8.307218   -3.523381    4.651173
    151          1           0        7.488634   -2.889903    3.153527
    152          1           0        5.790472    2.613867    5.337255
    153          1           0        5.243563    0.929514    5.620152
    154          1           0        4.035757    2.169003    5.093724
    155          1           0        4.191651    4.502204    0.529028
    156          1           0        6.421183    8.011147   -0.610878
    157          1           0        6.665311    6.888929   -2.095795
    158          1           0        7.699947    6.916364   -0.646309
 ---------------------------------------------------------------------

 SCF Done:  E(RCAM-B3LYP) =  -4069.81141288     A.U. after   19 cycles

 Excitation energies and oscillator strengths:

 Excited State   1:      Singlet-A      1.6568 eV  748.32 nm  f=0.0024  <S**2>=0.000
     309 -> 315       -0.11361
     310 -> 316        0.12523
     311 -> 313       -0.45975
     312 -> 314        0.51070
 This state for optimization and/or second-order correction.
 Total Energy, E(TD-HF/TD-DFT) =  -4069.75052505
 Copying the excited state density for this state as the 1-particle RhoCI density.

 Excited State   2:      Singlet-A      1.6968 eV  730.68 nm  f=0.7184  <S**2>=0.000
     309 -> 315        0.13390
     310 -> 316        0.11961
     311 -> 313        0.50876
     312 -> 314        0.45809

 Excited State   3:      Singlet-A      2.1827 eV  568.04 nm  f=0.0220  <S**2>=0.000
     309 -> 313       -0.27462
     310 -> 314        0.58262
     311 -> 315        0.11450
     312 -> 316       -0.24450

 Excited State   4:      Singlet-A      2.1947 eV  564.93 nm  f=0.1591  <S**2>=0.000
     309 -> 313        0.57885
     310 -> 314        0.27138
     311 -> 315       -0.25397
     312 -> 316       -0.12005

 Excited State   5:      Singlet-A      2.4842 eV  499.09 nm  f=0.0000  <S**2>=0.000
     312 -> 313        0.70710

 The electronic state is 1-A.
 Alpha  occ. eigenvalues --  -46.87877 -46.87486 -19.26346 -19.26161 -19.19083
 Alpha  occ. eigenvalues --  -19.18974 -19.18883 -19.18576 -19.18220 -19.17833
 Alpha  occ. eigenvalues --  -14.42536 -14.42323 -14.41528 -14.41188 -14.39483
 Alpha  occ. eigenvalues --  -14.39182 -14.38662 -14.38417 -10.39144 -10.38898
 Alpha  occ. eigenvalues --  -10.35518 -10.35257 -10.34442 -10.34007 -10.31737
 Alpha  occ. eigenvalues --  -10.31595 -10.31489 -10.31124 -10.31001 -10.30854
 Alpha  occ. eigenvalues --  -10.30648 -10.30579 -10.30287 -10.30219 -10.30179
 Alpha  occ. eigenvalues --  -10.29990 -10.29990 -10.29716 -10.29705 -10.29334
 Alpha  occ. eigenvalues --  -10.29276 -10.29229 -10.28864 -10.28712 -10.28546
 Alpha  occ. eigenvalues --  -10.28542 -10.28443 -10.28225 -10.28222 -10.27962
 Alpha  occ. eigenvalues --  -10.27864 -10.27822 -10.27813 -10.27662 -10.27591
 Alpha  occ. eigenvalues --  -10.27573 -10.27514 -10.27505 -10.27483 -10.27380
 Alpha  occ. eigenvalues --  -10.27372 -10.27302 -10.27301 -10.27227 -10.27222
 Alpha  occ. eigenvalues --  -10.26862 -10.26817 -10.26553 -10.26492 -10.26325
 Alpha  occ. eigenvalues --  -10.26319 -10.26262 -10.26097 -10.26020 -10.25886
 Alpha  occ. eigenvalues --  -10.25801 -10.25769 -10.25639 -10.25491 -10.25248
 Alpha  occ. eigenvalues --  -10.24901 -10.24861 -10.24778 -10.24684 -10.24617
 Alpha  occ. eigenvalues --  -10.24517  -3.16620  -3.16236  -1.91502  -1.91118
 Alpha  occ. eigenvalues --   -1.91088  -1.90930  -1.90707  -1.90544  -1.16695
 Alpha  occ. eigenvalues --   -1.16455  -1.08675  -1.08435  -1.07283  -1.06830
 Alpha  occ. eigenvalues --   -1.06757  -1.06705  -1.04667  -1.04319  -1.03840
 Alpha  occ. eigenvalues --   -1.03490  -1.03310  -1.02866  -1.02488  -1.01935
 Alpha  occ. eigenvalues --   -0.92046  -0.91795  -0.89595  -0.89336  -0.89297
 Alpha  occ. eigenvalues --   -0.88977  -0.88361  -0.88067  -0.87935  -0.87764
 Alpha  occ. eigenvalues --   -0.87604  -0.87518  -0.87358  -0.86981  -0.85086
 Alpha  occ. eigenvalues --   -0.84836  -0.84009  -0.83725  -0.83047  -0.82804
 Alpha  occ. eigenvalues --   -0.82741  -0.82493  -0.81658  -0.81419  -0.80675
 Alpha  occ. eigenvalues --   -0.80273  -0.78877  -0.78478  -0.77307  -0.77025
 Alpha  occ. eigenvalues --   -0.76985  -0.76734  -0.76007  -0.75660  -0.74969
 Alpha  occ. eigenvalues --   -0.74643  -0.72850  -0.72525  -0.71750  -0.71405
 Alpha  occ. eigenvalues --   -0.69985  -0.69618  -0.68970  -0.68664  -0.67718
 Alpha  occ. eigenvalues --   -0.67434  -0.67333  -0.67056  -0.65386  -0.65100
 Alpha  occ. eigenvalues --   -0.64930  -0.64704  -0.64600  -0.64485  -0.64345
 Alpha  occ. eigenvalues --   -0.64047  -0.62365  -0.62102  -0.60521  -0.60190
 Alpha  occ. eigenvalues --   -0.59901  -0.59621  -0.59064  -0.58820  -0.58579
 Alpha  occ. eigenvalues --   -0.58251  -0.57650  -0.57381  -0.57350  -0.57071
 Alpha  occ. eigenvalues --   -0.56385  -0.56055  -0.56036  -0.55717  -0.55598
 Alpha  occ. eigenvalues --   -0.55408  -0.55294  -0.55083  -0.54593  -0.54325
 Alpha  occ. eigenvalues --   -0.54003  -0.53744  -0.53376  -0.53313  -0.53069
 Alpha  occ. eigenvalues --   -0.52992  -0.52979  -0.52849  -0.52737  -0.52533
 Alpha  occ. eigenvalues --   -0.52516  -0.52265  -0.51971  -0.51718  -0.51682
 Alpha  occ. eigenvalues --   -0.51503  -0.51270  -0.51024  -0.50664  -0.50356
 Alpha  occ. eigenvalues --   -0.50113  -0.50004  -0.49824  -0.49719  -0.49604
 Alpha  occ. eigenvalues --   -0.49332  -0.49290  -0.49186  -0.49027  -0.48917
 Alpha  occ. eigenvalues --   -0.48667  -0.48532  -0.48513  -0.48381  -0.48219
 Alpha  occ. eigenvalues --   -0.48184  -0.47780  -0.47439  -0.47376  -0.46970
 Alpha  occ. eigenvalues --   -0.46880  -0.46660  -0.46548  -0.46435  -0.46395
 Alpha  occ. eigenvalues --   -0.46231  -0.46111  -0.45911  -0.45888  -0.45636
 Alpha  occ. eigenvalues --   -0.45273  -0.45049  -0.44647  -0.44599  -0.44339
 Alpha  occ. eigenvalues --   -0.44314  -0.44224  -0.44185  -0.44092  -0.43953
 Alpha  occ. eigenvalues --   -0.43928  -0.43776  -0.43564  -0.43476  -0.43382
 Alpha  occ. eigenvalues --   -0.43216  -0.43102  -0.42768  -0.42756  -0.42726
 Alpha  occ. eigenvalues --   -0.42717  -0.42407  -0.42094  -0.41812  -0.41778
 Alpha  occ. eigenvalues --   -0.41638  -0.41481  -0.41302  -0.41222  -0.40969
 Alpha  occ. eigenvalues --   -0.40910  -0.40815  -0.40649  -0.40583  -0.40547
 Alpha  occ. eigenvalues --   -0.40367  -0.40336  -0.40084  -0.39522  -0.39290
 Alpha  occ. eigenvalues --   -0.38552  -0.38199  -0.37871  -0.37507  -0.37400
 Alpha  occ. eigenvalues --   -0.37364  -0.37108  -0.37033  -0.36780  -0.36595
 Alpha  occ. eigenvalues --   -0.36268  -0.36052  -0.34364  -0.34078  -0.33836
 Alpha  occ. eigenvalues --   -0.33677  -0.33263  -0.33002  -0.31413  -0.31134
 Alpha  occ. eigenvalues --   -0.31114  -0.30798  -0.30079  -0.29735  -0.29525
 Alpha  occ. eigenvalues --   -0.29390  -0.29163  -0.29020  -0.24160  -0.23857
 Alpha  occ. eigenvalues --   -0.21207  -0.20945
 Alpha virt. eigenvalues --   -0.08851  -0.08618  -0.01828  -0.01515  -0.00136
 Alpha virt. eigenvalues --    0.00132   0.02138   0.02404   0.03020   0.03387
 Alpha virt. eigenvalues --    0.04618   0.04898   0.05033   0.05358   0.06046

 Mulliken charges:
               1
     1  Mg   0.838548
     2  C   -0.003150
     3  C   -0.094781
     4  C   -0.045614
     5  C   -0.063868
     6  N   -0.256699
     7  C   -0.052703
     8  C   -0.013867
     9  C   -0.086897
    10  C    0.046052
    11  C    0.104800
    12  C    0.053754
    13  C   -0.071409
    14  H    0.035046
    15  N   -0.433133
    16  C    0.168205
    17  C   -0.177584
    18  C   -0.003971
    19  C    0.148682
    20  C    0.110280
    21  C    0.012488
    22  O   -0.249123
    23  C    0.062561
    24  N   -0.341104
    25  C    0.041129
    26  C   -0.028237
    27  C   -0.024025
    28  C    0.074873
    29  C    0.076084
    30  C    0.035112
    31  C   -0.004505
    32  N   -0.310568
    33  C    0.080525
    34  C   -0.169377
    35  C    0.008688
    36  C    0.083051
    37  C    0.127193
    38  C    0.046499
    39  O   -0.187495
    40  C   -0.005480
    41  C    0.213177
    42  O   -0.257235
    43  O   -0.304805
    44  C    0.157414
    45  H   -0.017762
    46  H   -0.016581
    47  H   -0.041277
    48  H    0.001246
    49  H   -0.004599
    50  H    0.025697
    51  H    0.016647
    52  H    0.016619
    53  H    0.010093
    54  H    0.043825
    55  H    0.018574
    56  H    0.017346
    57  H    0.005538
    58  H    0.027043
    59  H    0.038537
    60  H    0.037252
    61  H    0.036125
    62  H    0.030707
    63  H    0.016734
    64  H    0.009669
    65  H    0.023422
    66  H    0.012593
    67  H    0.004864
    68  H    0.006485
    69  H    0.004795
    70  H    0.009019
    71  H    0.017275
    72  H    0.029231
    73  H    0.048270
    74  H    0.009110
    75  H    0.046208
    76  H    0.035287
    77  H    0.043624
    78  H    0.045706
    79  H    0.054149
    80  Mg   0.838081
    81  C   -0.016306
    82  C   -0.087990
    83  C   -0.045516
    84  C   -0.064836
    85  N   -0.254538
    86  C   -0.048890
    87  C   -0.015171
    88  C   -0.090800
    89  C    0.046042
    90  C    0.114124
    91  C    0.062623
    92  C   -0.077439
    93  H    0.034312
    94  N   -0.423399
    95  C    0.162802
    96  C   -0.175288
    97  C   -0.008050
    98  C    0.151896
    99  C    0.099735
   100  C    0.015319
   101  O   -0.253352
   102  C    0.061370
   103  N   -0.349977
   104  C    0.037405
   105  C   -0.019737
   106  C   -0.034778
   107  C    0.089182
   108  C    0.073737
   109  C    0.034782
   110  C   -0.007586
   111  N   -0.324392
   112  C    0.078986
   113  C   -0.162558
   114  C    0.003302
   115  C    0.096169
   116  C    0.131108
   117  C    0.043598
   118  O   -0.186963
   119  C    0.000329
   120  C    0.210941
   121  O   -0.251610
   122  O   -0.305058
   123  C    0.152245
   124  H   -0.020878
   125  H   -0.015800
   126  H   -0.040638
   127  H    0.000308
   128  H   -0.005501
   129  H    0.026577
   130  H    0.014113
   131  H    0.014187
   132  H    0.013523
   133  H    0.037641
   134  H    0.020696
   135  H    0.018912
   136  H    0.007951
   137  H    0.024960
   138  H    0.039249
   139  H    0.037655
   140  H    0.036037
   141  H    0.033622
   142  H    0.014044
   143  H    0.012134
   144  H    0.024827
   145  H    0.012418
   146  H    0.005087
   147  H    0.005866
   148  H    0.003481
   149  H    0.010789
   150  H    0.017638
   151  H    0.030294
   152  H    0.045810
   153  H    0.007813
   154  H    0.049030
   155  H    0.038266
   156  H    0.043912
   157  H    0.048914
   158  H    0.053211
 Sum of Mulliken charges =  -0.00000

 Dipole moment (field-independent basis, Debye):
    X=             -4.2620    Y=             -2.1008    Z=             -7.3688  Tot=              8.7680
 Quadrupole moment (field-independent basis, Debye-Ang):
   XX=           -518.2599   YY=           -551.3543   ZZ=           -448.0406
   XY=             -5.6360   XZ=              0.3323   YZ=            -48.3346

 Normal termination of Gaussian 16 at Fri Sep 10 08:49:30 2021.
