 Gaussian 16, Revision A.03,
 Gaussian 16:  ES64L-G16RevA.03 25-Dec-2016

 -----------------------------------
 #p cam-b3lyp/Def2SVP td=(nstates=5)
 -----------------------------------

 --------------------------------
 TDDFT excited states in gaussian
 --------------------------------
 Symbolic Z-matrix:
 Charge =  0 Multiplicity = 1

                         Standard orientation:
 ---------------------------------------------------------------------
 Center     Atomic      Atomic             Coordinates (Angstroms)
 Number     Number       Type             X           Y           Z
 ---------------------------------------------------------------------
      1         12           0       -5.245138   -0.677123   -0.423167
      2          6           0       -5.660279    1.893285    2.033023
      3          6           0       -5.947787    1.677863   -2.790316
      4          6           0       -5.331877   -3.013498   -2.565700
      5          6           0       -5.698414   -2.994698    2.139848
      6          7           0       -5.724673    1.478857   -0.273361
      7          6           0       -5.793251    2.356977    0.722316
      8          6           0       -5.944566    3.829942    0.237700
      9          6           0       -6.583371    3.558346   -1.197626
     10          6           0       -6.024389    2.169819   -1.453476
     11          6           0       -8.106527    3.479372   -1.181563
     12          6           0       -4.565468    4.562312    0.121710
     13          6           0       -4.644480    6.084450   -0.027316
     14          1           0       -3.620756    6.903914    0.603409
     15          7           0       -5.107778   -0.614831   -2.392965
     16          6           0       -5.420472    0.432091   -3.193878
     17          6           0       -5.147022   -0.016331   -4.576204
     18          6           0       -4.830687   -1.470894   -4.528527
     19          6           0       -5.106643   -1.767473   -3.146041
     20          6           0       -5.152847    0.905730   -5.756678
     21          6           0       -4.365213   -2.442061   -5.566939
     22          8           0       -4.374042   -3.705194   -5.369475
     23          6           0       -3.976780   -1.873968   -6.870562
     24          7           0       -5.698308   -2.710438   -0.289371
     25          6           0       -5.602654   -3.510446   -1.356995
     26          6           0       -5.697020   -4.955644   -0.966562
     27          6           0       -5.633839   -4.987626    0.628661
     28          6           0       -5.594007   -3.462391    0.893882
     29          6           0       -6.954115   -5.696751   -1.442467
     30          6           0       -4.539947   -5.876847    1.271393
     31          6           0       -3.172350   -5.304498    0.972741
     32          7           0       -5.438436   -0.605440    1.737514
     33          6           0       -5.642219   -1.690512    2.602248
     34          6           0       -5.818391   -1.136023    3.957081
     35          6           0       -5.720735    0.243069    3.782689
     36          6           0       -5.523896    0.533159    2.402329
     37          6           0       -6.094080   -1.885258    5.134823
     38          6           0       -5.761491    1.540347    4.437874
     39          8           0       -5.807976    1.919218    5.609108
     40          6           0       -5.845795    2.666356    3.315010
     41          6           0       -4.828762    3.722197    3.652876
     42          8           0       -3.607031    3.472423    3.604390
     43          8           0       -5.439158    4.913456    3.747008
     44          6           0       -4.481524    6.010015    4.051395
     45          1           0       -6.383137    2.271127   -3.596820
     46          1           0       -5.259514   -3.857075   -3.255323
     47          1           0       -5.759663   -3.661661    3.001742
     48          1           0       -6.621668    4.438439    0.837441
     49          1           0       -6.214652    4.259159   -1.946378
     50          1           0       -8.495523    3.494319   -0.163536
     51          1           0       -8.354268    2.536725   -1.669965
     52          1           0       -8.541575    4.262337   -1.803235
     53          1           0       -4.101641    4.306460   -0.830899
     54          1           0       -3.925236    4.315813    0.969453
     55          1           0       -5.638628    6.458039    0.219686
     56          1           0       -4.516363    6.331547   -1.081227
     57          1           0       -5.580862    1.875367   -5.505378
     58          1           0       -5.844181    0.484514   -6.486297
     59          1           0       -4.163589    1.006857   -6.203303
     60          1           0       -4.825114   -1.337989   -7.296712
     61          1           0       -3.586934   -2.705387   -7.456747
     62          1           0       -3.193246   -1.132191   -6.713112
     63          1           0       -4.859902   -5.524817   -1.368682
     64          1           0       -6.563460   -5.350666    1.067616
     65          1           0       -6.739997   -6.581346   -2.042758
     66          1           0       -7.573264   -4.990102   -1.994366
     67          1           0       -7.632409   -6.003812   -0.646824
     68          1           0       -4.567950   -6.879431    0.845967
     69          1           0       -4.643098   -5.972263    2.352368
     70          1           0       -2.953415   -5.701351   -0.017920
     71          1           0       -2.444422   -5.657083    1.704189
     72          1           0       -3.205186   -4.218069    0.888598
     73          1           0       -5.458415   -1.469584    5.916561
     74          1           0       -5.895112   -2.946166    4.984859
     75          1           0       -7.155304   -1.673747    5.264913
     76          1           0       -6.863117    3.055813    3.337387
     77          1           0       -4.837853    6.505914    4.954361
     78          1           0       -4.398036    6.609145    3.144489
     79          1           0       -3.482676    5.704494    4.364921
     80         12           0        5.297227   -0.607190    0.424991
     81          6           0        5.449030    1.993283   -2.043516
     82          6           0        6.194966    1.737497    2.733904
     83          6           0        5.611687   -2.952764    2.538480
     84          6           0        5.539135   -2.906104   -2.183115
     85          7           0        5.736641    1.553175    0.246160
     86          6           0        5.702092    2.445790   -0.731790
     87          6           0        5.873460    3.916708   -0.266391
     88          6           0        6.656135    3.644083    1.109101
     89          6           0        6.141948    2.237380    1.408230
     90          6           0        8.164739    3.575208    0.939663
     91          6           0        4.497787    4.627688   -0.013322
     92          6           0        4.578691    6.147807    0.143088
     93          1           0        3.483786    6.960534   -0.379523
     94          7           0        5.343419   -0.551231    2.408240
     95          6           0        5.711556    0.489475    3.184567
     96          6           0        5.591154    0.018130    4.572912
     97          6           0        5.280193   -1.437010    4.548961
     98          6           0        5.423372   -1.713897    3.133713
     99          6           0        5.689208    0.937293    5.755689
    100          6           0        4.926620   -2.419753    5.623860
    101          8           0        4.930445   -3.683294    5.408749
    102          6           0        4.666742   -1.864471    6.960127
    103          7           0        5.752467   -2.626641    0.232795
    104          6           0        5.773801   -3.435733    1.306499
    105          6           0        5.851078   -4.886567    0.894781
    106          6           0        5.632417   -4.895818   -0.689409
    107          6           0        5.551979   -3.374377   -0.942662
    108          6           0        7.157296   -5.605145    1.232180
    109          6           0        4.492551   -5.797622   -1.237270
    110          6           0        3.150597   -5.255920   -0.800125
    111          7           0        5.279011   -0.518024   -1.733663
    112          6           0        5.419752   -1.597448   -2.633175
    113          6           0        5.459454   -1.026790   -3.995230
    114          6           0        5.361427    0.357774   -3.790636
    115          6           0        5.287601    0.632083   -2.398219
    116          6           0        5.620799   -1.764449   -5.201854
    117          6           0        5.314308    1.650339   -4.435435
    118          8           0        5.252002    2.037627   -5.601556
    119          6           0        5.496294    2.774933   -3.327033
    120          6           0        4.439101    3.821570   -3.549301
    121          8           0        3.235795    3.546777   -3.397158
    122          8           0        5.030304    5.021895   -3.691000
    123          6           0        4.021902    6.094323   -3.902817
    124          1           0        6.691417    2.339125    3.495783
    125          1           0        5.615573   -3.807215    3.219192
    126          1           0        5.514378   -3.563321   -3.054963
    127          1           0        6.477032    4.533135   -0.921751
    128          1           0        6.343514    4.337451    1.885554
    129          1           0        8.455079    3.603465   -0.100073
    130          1           0        8.469215    2.640590    1.392237
    131          1           0        8.646163    4.364205    1.524506
    132          1           0        4.132275    4.355268    0.985150
    133          1           0        3.793783    4.380689   -0.784032
    134          1           0        5.545216    6.545535   -0.189482
    135          1           0        4.541533    6.389543    1.208075
    136          1           0        6.086747    1.919081    5.470291
    137          1           0        6.450707    0.519475    6.423090
    138          1           0        4.747766    1.021741    6.302697
    139          1           0        5.543516   -1.319264    7.301409
    140          1           0        4.343617   -2.710183    7.570236
    141          1           0        3.852644   -1.135086    6.883631
    142          1           0        5.062390   -5.463608    1.361770
    143          1           0        6.524868   -5.256261   -1.221816
    144          1           0        7.010516   -6.508460    1.853915
    145          1           0        7.814067   -4.903830    1.729508
    146          1           0        7.752333   -5.909353    0.372777
    147          1           0        4.572000   -6.804208   -0.819384
    148          1           0        4.500973   -5.895863   -2.317674
    149          1           0        3.037173   -5.662737    0.209196
    150          1           0        2.361075   -5.610531   -1.459638
    151          1           0        3.176229   -4.163396   -0.714222
    152          1           0        4.915988   -1.355370   -5.913464
    153          1           0        5.454597   -2.827892   -5.042962
    154          1           0        6.666977   -1.541802   -5.428153
    155          1           0        6.503000    3.180684   -3.434225
    156          1           0        4.288210    6.603864   -4.834026
    157          1           0        4.030720    6.699769   -2.977028
    158          1           0        3.003070    5.790015   -4.112144
 ---------------------------------------------------------------------

 SCF Done:  E(RCAM-B3LYP) =  -4069.81218641     A.U. after   19 cycles

 Excitation energies and oscillator strengths:

 Excited State   1:      Singlet-A      1.6581 eV  747.73 nm  f=0.0076  <S**2>=0.000
     309 -> 315        0.12711
     310 -> 316        0.11220
     311 -> 313        0.51592
     312 -> 314        0.45381
 This state for optimization and/or second-order correction.
 Total Energy, E(TD-HF/TD-DFT) =  -4069.75125097
 Copying the excited state density for this state as the 1-particle RhoCI density.

 Excited State   2:      Singlet-A      1.6964 eV  730.87 nm  f=0.7165  <S**2>=0.000
     309 -> 315       -0.11822
     310 -> 316        0.13491
     311 -> 313       -0.45228
     312 -> 314        0.51411

 Excited State   3:      Singlet-A      2.1847 eV  567.51 nm  f=0.0248  <S**2>=0.000
     309 -> 313        0.58472
     310 -> 314       -0.26895
     311 -> 315       -0.24668
     312 -> 316        0.11270

 Excited State   4:      Singlet-A      2.1951 eV  564.83 nm  f=0.1578  <S**2>=0.000
     309 -> 313        0.26640
     310 -> 314        0.58152
     311 -> 315       -0.11727
     312 -> 316       -0.25460

 Excited State   5:      Singlet-A      2.5670 eV  482.98 nm  f=0.0000  <S**2>=0.000
     312 -> 313        0.70710

 The electronic state is 1-A.
 Alpha  occ. eigenvalues --  -46.87585 -46.87527 -19.26348 -19.26198 -19.19145
 Alpha  occ. eigenvalues --  -19.18918 -19.18578 -19.18556 -19.18012 -19.17978
 Alpha  occ. eigenvalues --  -14.42367 -14.42243 -14.41247 -14.41234 -14.39214
 Alpha  occ. eigenvalues --  -14.39185 -14.38477 -14.38385 -10.39068 -10.38972
 Alpha  occ. eigenvalues --  -10.35230 -10.35207 -10.34234 -10.34157 -10.31794
 Alpha  occ. eigenvalues --  -10.31632 -10.31212 -10.31195 -10.30891 -10.30697
 Alpha  occ. eigenvalues --  -10.30370 -10.30307 -10.30275 -10.30241 -10.30003
 Alpha  occ. eigenvalues --  -10.29994 -10.29784 -10.29736 -10.29424 -10.29296
 Alpha  occ. eigenvalues --  -10.29273 -10.29035 -10.28607 -10.28566 -10.28559
 Alpha  occ. eigenvalues --  -10.28378 -10.28279 -10.28158 -10.28027 -10.27927
 Alpha  occ. eigenvalues --  -10.27879 -10.27589 -10.27538 -10.27518 -10.27401
 Alpha  occ. eigenvalues --  -10.27365 -10.27364 -10.27329 -10.27320 -10.27279
 Alpha  occ. eigenvalues --  -10.27275 -10.27268 -10.27208 -10.27197 -10.27009
 Alpha  occ. eigenvalues --  -10.26982 -10.26566 -10.26499 -10.26205 -10.26113
 Alpha  occ. eigenvalues --  -10.26067 -10.26017 -10.26009 -10.25931 -10.25817
 Alpha  occ. eigenvalues --  -10.25808 -10.25770 -10.25686 -10.25305 -10.25282
 Alpha  occ. eigenvalues --  -10.24758 -10.24638 -10.24594 -10.24589 -10.24569
 Alpha  occ. eigenvalues --  -10.24500  -3.16327  -3.16276  -1.91208  -1.91158
 Alpha  occ. eigenvalues --   -1.90795  -1.90747  -1.90637  -1.90584  -1.16637
 Alpha  occ. eigenvalues --   -1.16542  -1.08595  -1.08478  -1.06979  -1.06929
 Alpha  occ. eigenvalues --   -1.06808  -1.06540  -1.04376  -1.04368  -1.03557
 Alpha  occ. eigenvalues --   -1.03535  -1.03027  -1.02913  -1.02208  -1.01987
 Alpha  occ. eigenvalues --   -0.91881  -0.91787  -0.89375  -0.89330  -0.89037
 Alpha  occ. eigenvalues --   -0.88998  -0.88104  -0.88102  -0.87687  -0.87683
 Alpha  occ. eigenvalues --   -0.87560  -0.87470  -0.87031  -0.86960  -0.84884
 Alpha  occ. eigenvalues --   -0.84789  -0.83767  -0.83761  -0.82777  -0.82731
 Alpha  occ. eigenvalues --   -0.82529  -0.82453  -0.81529  -0.81439  -0.80412
 Alpha  occ. eigenvalues --   -0.80342  -0.78574  -0.78496  -0.77025  -0.77025
 Alpha  occ. eigenvalues --   -0.76808  -0.76768  -0.75753  -0.75745  -0.74724
 Alpha  occ. eigenvalues --   -0.74700  -0.72580  -0.72579  -0.71488  -0.71473
 Alpha  occ. eigenvalues --   -0.69724  -0.69638  -0.68712  -0.68679  -0.67486
 Alpha  occ. eigenvalues --   -0.67446  -0.67069  -0.67012  -0.65165  -0.65100
 Alpha  occ. eigenvalues --   -0.64676  -0.64666  -0.64554  -0.64443  -0.64090
 Alpha  occ. eigenvalues --   -0.64082  -0.62218  -0.62161  -0.60219  -0.60197
 Alpha  occ. eigenvalues --   -0.59679  -0.59609  -0.58882  -0.58799  -0.58321
 Alpha  occ. eigenvalues --   -0.58318  -0.57488  -0.57434  -0.57122  -0.57120
 Alpha  occ. eigenvalues --   -0.56117  -0.56093  -0.55844  -0.55821  -0.55339
 Alpha  occ. eigenvalues --   -0.55311  -0.55179  -0.55156  -0.54409  -0.54375
 Alpha  occ. eigenvalues --   -0.53799  -0.53705  -0.53110  -0.53102  -0.53032
 Alpha  occ. eigenvalues --   -0.53017  -0.52805  -0.52746  -0.52521  -0.52508
 Alpha  occ. eigenvalues --   -0.52282  -0.52258  -0.51796  -0.51745  -0.51534
 Alpha  occ. eigenvalues --   -0.51414  -0.51106  -0.51022  -0.50306  -0.50301
 Alpha  occ. eigenvalues --   -0.49848  -0.49836  -0.49743  -0.49698  -0.49357
 Alpha  occ. eigenvalues --   -0.49313  -0.49092  -0.49024  -0.49008  -0.48920
 Alpha  occ. eigenvalues --   -0.48471  -0.48430  -0.48293  -0.48283  -0.48227
 Alpha  occ. eigenvalues --   -0.48196  -0.47499  -0.47478  -0.47096  -0.46995
 Alpha  occ. eigenvalues --   -0.46608  -0.46597  -0.46439  -0.46369  -0.46165
 Alpha  occ. eigenvalues --   -0.46155  -0.45991  -0.45990  -0.45748  -0.45671
 Alpha  occ. eigenvalues --   -0.45100  -0.45021  -0.44425  -0.44415  -0.44359
 Alpha  occ. eigenvalues --   -0.44295  -0.44027  -0.43963  -0.43954  -0.43909
 Alpha  occ. eigenvalues --   -0.43819  -0.43806  -0.43492  -0.43346  -0.43280
 Alpha  occ. eigenvalues --   -0.43195  -0.42881  -0.42845  -0.42803  -0.42580
 Alpha  occ. eigenvalues --   -0.42478  -0.42428  -0.41850  -0.41830  -0.41570
 Alpha  occ. eigenvalues --   -0.41522  -0.41346  -0.41345  -0.40955  -0.40881
 Alpha  occ. eigenvalues --   -0.40681  -0.40598  -0.40589  -0.40555  -0.40392
 Alpha  occ. eigenvalues --   -0.40382  -0.40096  -0.40031  -0.39302  -0.39257
 Alpha  occ. eigenvalues --   -0.38286  -0.38236  -0.37563  -0.37546  -0.37150
 Alpha  occ. eigenvalues --   -0.37130  -0.37081  -0.37069  -0.36735  -0.36588
 Alpha  occ. eigenvalues --   -0.36121  -0.36030  -0.34136  -0.34088  -0.33826
 Alpha  occ. eigenvalues --   -0.33650  -0.33055  -0.32989  -0.31119  -0.31112
 Alpha  occ. eigenvalues --   -0.30851  -0.30837  -0.29886  -0.29876  -0.29232
 Alpha  occ. eigenvalues --   -0.29191  -0.29120  -0.29092  -0.23913  -0.23879
 Alpha  occ. eigenvalues --   -0.20989  -0.20922
 Alpha virt. eigenvalues --   -0.08664  -0.08565  -0.01553  -0.01542   0.00111
 Alpha virt. eigenvalues --    0.00163   0.02308   0.02381   0.03314   0.03493
 Alpha virt. eigenvalues --    0.04845   0.04910   0.05197   0.05215   0.06269

 Mulliken charges:
               1
     1  Mg   0.840014
     2  C   -0.002927
     3  C   -0.093032
     4  C   -0.045993
     5  C   -0.064038
     6  N   -0.256801
     7  C   -0.052449
     8  C   -0.014231
     9  C   -0.087240
    10  C    0.046834
    11  C    0.104870
    12  C    0.053150
    13  C   -0.071263
    14  H    0.034609
    15  N   -0.433248
    16  C    0.169370
    17  C   -0.175924
    18  C   -0.003383
    19  C    0.149119
    20  C    0.109996
    21  C    0.012900
    22  O   -0.250332
    23  C    0.061796
    24  N   -0.341191
    25  C    0.041432
    26  C   -0.028099
    27  C   -0.023794
    28  C    0.074646
    29  C    0.076326
    30  C    0.035218
    31  C   -0.004503
    32  N   -0.310259
    33  C    0.080089
    34  C   -0.170173
    35  C    0.007832
    36  C    0.082795
    37  C    0.127469
    38  C    0.045555
    39  O   -0.189850
    40  C   -0.005252
    41  C    0.212667
    42  O   -0.257423
    43  O   -0.304658
    44  C    0.158212
    45  H   -0.017642
    46  H   -0.017138
    47  H   -0.041932
    48  H    0.000243
    49  H   -0.003630
    50  H    0.025119
    51  H    0.016398
    52  H    0.016392
    53  H    0.013432
    54  H    0.043905
    55  H    0.017218
    56  H    0.018472
    57  H    0.005824
    58  H    0.026274
    59  H    0.042469
    60  H    0.036913
    61  H    0.035318
    62  H    0.034380
    63  H    0.016279
    64  H    0.009034
    65  H    0.022830
    66  H    0.012499
    67  H    0.004462
    68  H    0.005745
    69  H    0.004638
    70  H    0.008159
    71  H    0.018603
    72  H    0.029485
    73  H    0.046732
    74  H    0.009030
    75  H    0.045504
    76  H    0.034770
    77  H    0.042250
    78  H    0.046528
    79  H    0.052600
    80  Mg   0.839065
    81  C   -0.016889
    82  C   -0.087060
    83  C   -0.045482
    84  C   -0.064831
    85  N   -0.254621
    86  C   -0.049801
    87  C   -0.015324
    88  C   -0.090717
    89  C    0.046256
    90  C    0.114425
    91  C    0.062264
    92  C   -0.077443
    93  H    0.033555
    94  N   -0.423606
    95  C    0.163894
    96  C   -0.173792
    97  C   -0.007173
    98  C    0.152490
    99  C    0.099276
   100  C    0.016209
   101  O   -0.253573
   102  C    0.060616
   103  N   -0.350073
   104  C    0.037684
   105  C   -0.019796
   106  C   -0.034692
   107  C    0.088754
   108  C    0.073785
   109  C    0.034785
   110  C   -0.007778
   111  N   -0.323890
   112  C    0.078175
   113  C   -0.163561
   114  C    0.001636
   115  C    0.096076
   116  C    0.131663
   117  C    0.041736
   118  O   -0.189403
   119  C    0.001053
   120  C    0.210988
   121  O   -0.251460
   122  O   -0.305431
   123  C    0.152587
   124  H   -0.019655
   125  H   -0.015698
   126  H   -0.040708
   127  H   -0.001280
   128  H   -0.003953
   129  H    0.022137
   130  H    0.014401
   131  H    0.016100
   132  H    0.015878
   133  H    0.037461
   134  H    0.020198
   135  H    0.020165
   136  H    0.008740
   137  H    0.025778
   138  H    0.042039
   139  H    0.037881
   140  H    0.036322
   141  H    0.036150
   142  H    0.014310
   143  H    0.012054
   144  H    0.024897
   145  H    0.011558
   146  H    0.005445
   147  H    0.005769
   148  H    0.003697
   149  H    0.010420
   150  H    0.018686
   151  H    0.030463
   152  H    0.045021
   153  H    0.008652
   154  H    0.046507
   155  H    0.034716
   156  H    0.043215
   157  H    0.049759
   158  H    0.052296
 Sum of Mulliken charges =  -0.00000

 Dipole moment (field-independent basis, Debye):
    X=              0.3287    Y=              3.1310    Z=             -0.3550  Tot=              3.1681
 Quadrupole moment (field-independent basis, Debye-Ang):
   XX=           -479.3052   YY=           -461.3346   ZZ=           -539.1771
   XY=              2.5349   XZ=             40.4193   YZ=              0.6212

 Normal termination of Gaussian 16 at Fri Sep 10 13:41:52 2021.
