 Gaussian 16, Revision A.03,
 Gaussian 16:  ES64L-G16RevA.03 25-Dec-2016

 -----------------------------------
 #p cam-b3lyp/Def2SVP td=(nstates=5)
 -----------------------------------

 --------------------------------
 TDDFT excited states in gaussian
 --------------------------------
 Symbolic Z-matrix:
 Charge =  0 Multiplicity = 1

                         Standard orientation:
 ---------------------------------------------------------------------
 Center     Atomic      Atomic             Coordinates (Angstroms)
 Number     Number       Type             X           Y           Z
 ---------------------------------------------------------------------
      1         12           0        4.935673   -1.343890    0.403368
      2          6           0        5.619637    2.062916   -0.455746
      3          6           0        5.661652   -0.519189    3.633831
      4          6           0        4.781046   -4.431080    1.111867
      5          6           0        5.373888   -2.126616   -2.964267
      6          7           0        5.548449    0.563631    1.344916
      7          6           0        5.716606    1.810046    0.914400
      8          6           0        5.931240    2.837655    2.065628
      9          6           0        6.483119    1.847749    3.187017
     10          6           0        5.831390    0.559606    2.715995
     11          6           0        7.997952    1.672707    3.153232
     12          6           0        4.593862    3.519371    2.511063
     13          6           0        4.755446    4.760210    3.393992
     14          1           0        3.813461    5.858232    3.237918
     15          7           0        4.707679   -2.248924    2.144570
     16          6           0        5.042833   -1.758596    3.362164
     17          6           0        4.677206   -2.807227    4.338572
     18          6           0        4.278110   -4.021503    3.574144
     19          6           0        4.602209   -3.619104    2.229372
     20          6           0        4.680752   -2.588919    5.820489
     21          6           0        3.706655   -5.339822    3.990805
     22          8           0        3.650296   -6.338795    3.194910
     23          6           0        3.290246   -5.459481    5.399822
     24          7           0        5.273778   -3.075546   -0.712287
     25          6           0        5.079781   -4.287588   -0.180965
     26          6           0        5.107227   -5.355926   -1.233505
     27          6           0        5.119043   -4.593872   -2.636675
     28          6           0        5.182231   -3.137556   -2.113776
     29          6           0        6.293980   -6.327336   -1.170324
     30          6           0        4.006678   -4.966573   -3.648680
     31          6           0        2.662525   -4.514396   -3.123430
     32          7           0        5.236540   -0.232928   -1.436819
     33          6           0        5.417176   -0.763745   -2.722228
     34          6           0        5.690755    0.370655   -3.623538
     35          6           0        5.666510    1.488227   -2.791497
     36          6           0        5.421016    1.075301   -1.450782
     37          6           0        5.977989    0.279737   -5.014100
     38          6           0        5.815328    2.932694   -2.719218
     39          8           0        5.940389    3.834177   -3.549388
     40          6           0        5.911950    3.350336   -1.185573
     41          6           0        4.976526    4.508737   -0.970169
     42          8           0        3.741252    4.360057   -1.066901
     43          8           0        5.660084    5.542347   -0.455444
     44          6           0        4.784683    6.715121   -0.190062
     45          1           0        6.092022   -0.434276    4.633587
     46          1           0        4.625873   -5.496636    1.293388
     47          1           0        5.436981   -2.285503   -4.042334
     48          1           0        6.671177    3.609656    1.853659
     49          1           0        6.120891    2.114778    4.179594
     50          1           0        8.435652    2.157434    2.280661
     51          1           0        8.165772    0.596202    3.114920
     52          1           0        8.448121    2.013127    4.086098
     53          1           0        4.070456    2.863530    3.206749
     54          1           0        3.981684    3.770889    1.644285
     55          1           0        5.780662    5.131068    3.376506
     56          1           0        4.591630    4.465487    4.430574
     57          1           0        5.176917   -1.656466    6.086754
     58          1           0        5.310096   -3.365240    6.255184
     59          1           0        3.678871   -2.646672    6.246203
     60          1           0        4.147303   -5.268103    6.045869
     61          1           0        2.824206   -6.439732    5.493441
     62          1           0        2.560405   -4.679794    5.619747
     63          1           0        4.219565   -5.984546   -1.175888
     64          1           0        6.045611   -4.762563   -3.185938
     65          1           0        5.999335   -7.373852   -1.088513
     66          1           0        6.926559   -6.032602   -0.333505
     67          1           0        6.990411   -6.253059   -2.005120
     68          1           0        3.954884   -6.047557   -3.774129
     69          1           0        4.155866   -4.525105   -4.634124
     70          1           0        2.373136   -5.329651   -2.461278
     71          1           0        1.951044   -4.405524   -3.942669
     72          1           0        2.755434   -3.616037   -2.512852
     73          1           0        5.406329    1.072717   -5.496134
     74          1           0        5.709682   -0.699214   -5.410673
     75          1           0        7.054884    0.447452   -5.009236
     76          1           0        6.950410    3.622670   -0.999680
     77          1           0        5.212706    7.562797   -0.725298
     78          1           0        4.693243    6.794698    0.893317
     79          1           0        3.785756    6.679499   -0.626199
     80         12           0       -5.546045   -0.073069   -0.431325
     81          6           0       -3.420699    2.816137   -0.551601
     82          6           0       -6.496178    0.940394    2.683912
     83          6           0       -7.078987   -2.832407   -0.109503
     84          6           0       -3.612640   -1.430118   -2.993760
     85          7           0       -4.964190    1.670486    0.799016
     86          6           0       -4.195114    2.734624    0.624438
     87          6           0       -4.320529    3.808548    1.738215
     88          6           0       -4.843018    2.862897    2.926340
     89          6           0       -5.509309    1.769643    2.093556
     90          6           0       -3.719350    2.231881    3.731660
     91          6           0       -5.371426    4.918241    1.382940
     92          6           0       -5.323625    6.159125    2.277176
     93          1           0       -5.603695    7.460667    1.677162
     94          7           0       -6.986113   -0.603013    0.827228
     95          6           0       -7.243193   -0.070630    2.040383
     96          6           0       -8.389863   -0.821636    2.574517
     97          6           0       -8.684357   -1.949143    1.648920
     98          6           0       -7.556857   -1.848745    0.744070
     99          6           0       -9.137527   -0.398479    3.805514
    100          6           0       -9.790025   -2.959506    1.595512
    101          8           0       -9.719239   -3.996111    0.844997
    102          6           0      -10.916139   -2.748324    2.516796
    103          7           0       -5.247145   -1.956892   -1.258493
    104          6           0       -6.090143   -2.970189   -0.992984
    105          6           0       -5.837925   -4.143884   -1.909076
    106          6           0       -4.805855   -3.615239   -3.010413
    107          6           0       -4.560551   -2.191417   -2.464568
    108          6           0       -5.272851   -5.398249   -1.242999
    109          6           0       -5.221491   -3.774930   -4.498506
    110          6           0       -6.399154   -2.877807   -4.804560
    111          7           0       -3.946415    0.620729   -1.707209
    112          6           0       -3.262310   -0.119306   -2.696364
    113          6           0       -2.181615    0.743527   -3.216014
    114          6           0       -2.298418    1.926705   -2.471079
    115          6           0       -3.363018    1.802043   -1.538031
    116          6           0       -1.230637    0.378036   -4.210087
    117          6           0       -1.756403    3.248833   -2.254515
    118          8           0       -0.902517    3.939240   -2.809451
    119          6           0       -2.378064    3.836676   -0.914983
    120          6           0       -2.839448    5.240849   -1.194156
    121          8           0       -3.772280    5.453429   -1.988661
    122          8           0       -2.254013    6.079110   -0.319540
    123          6           0       -2.688857    7.482675   -0.549213
    124          1           0       -6.689119    1.043443    3.752110
    125          1           0       -7.644631   -3.767016   -0.115438
    126          1           0       -3.028465   -1.743922   -3.861483
    127          1           0       -3.387282    4.280297    2.021536
    128          1           0       -5.577856    3.373405    3.543385
    129          1           0       -2.751146    2.430559    3.296648
    130          1           0       -3.921386    1.168765    3.735634
    131          1           0       -3.777024    2.553517    4.775473
    132          1           0       -6.376627    4.550321    1.625706
    133          1           0       -5.284128    5.210385    0.354509
    134          1           0       -4.405059    6.201219    2.875032
    135          1           0       -6.122739    6.083553    3.018603
    136          1           0       -8.589816    0.370287    4.364439
    137          1           0       -9.158055   -1.261591    4.479665
    138          1           0      -10.163892   -0.093239    3.590852
    139          1           0      -10.547630   -2.731617    3.539720
    140          1           0      -11.645999   -3.521234    2.268178
    141          1           0      -11.347380   -1.760143    2.321455
    142          1           0       -6.751277   -4.452381   -2.402772
    143          1           0       -3.842962   -4.143847   -2.953465
    144          1           0       -5.898322   -6.296751   -1.402837
    145          1           0       -5.155272   -5.199910   -0.185941
    146          1           0       -4.260367   -5.663785   -1.542259
    147          1           0       -5.552514   -4.798322   -4.691522
    148          1           0       -4.419602   -3.558780   -5.196529
    149          1           0       -7.254645   -3.468796   -4.464025
    150          1           0       -6.459191   -2.675259   -5.871998
    151          1           0       -6.366692   -1.965143   -4.198227
    152          1           0       -1.140194    1.222783   -4.879960
    153          1           0       -1.536452   -0.520780   -4.741486
    154          1           0       -0.350869    0.205643   -3.584349
    155          1           0       -1.599822    3.805649   -0.151473
    156          1           0       -1.782392    8.077966   -0.696335
    157          1           0       -3.327509    7.742902    0.315752
    158          1           0       -3.232432    7.695946   -1.462165
 ---------------------------------------------------------------------

 SCF Done:  E(RCAM-B3LYP) =  -4069.80978617     A.U. after   19 cycles

 Excitation energies and oscillator strengths:

 Excited State   1:      Singlet-A      1.6560 eV  748.70 nm  f=0.1057  <S**2>=0.000
     309 -> 315       -0.11528
     310 -> 316       -0.12360
     311 -> 313       -0.46777
     312 -> 314        0.50333
 This state for optimization and/or second-order correction.
 Total Energy, E(TD-HF/TD-DFT) =  -4069.74892948
 Copying the excited state density for this state as the 1-particle RhoCI density.

 Excited State   2:      Singlet-A      1.6989 eV  729.77 nm  f=0.6342  <S**2>=0.000
     309 -> 315        0.13184
     310 -> 316       -0.12177
     311 -> 313        0.50136
     312 -> 314        0.46613

 Excited State   3:      Singlet-A      2.1836 eV  567.79 nm  f=0.0071  <S**2>=0.000
     309 -> 313        0.36229
     310 -> 314        0.53221
     311 -> 315       -0.15209
     312 -> 316        0.22451

 Excited State   4:      Singlet-A      2.1954 eV  564.75 nm  f=0.1709  <S**2>=0.000
     309 -> 313        0.52838
     310 -> 314       -0.35878
     311 -> 315       -0.23305
     312 -> 316       -0.15813

 Excited State   5:      Singlet-A      2.4969 eV  496.55 nm  f=0.0000  <S**2>=0.000
     312 -> 313        0.70691

 The electronic state is 1-A.
 Alpha  occ. eigenvalues --  -46.87697 -46.87428 -19.26045 -19.25937 -19.18848
 Alpha  occ. eigenvalues --  -19.18742 -19.18605 -19.18508 -19.17946 -19.17576
 Alpha  occ. eigenvalues --  -14.42351 -14.42281 -14.41358 -14.41127 -14.39304
 Alpha  occ. eigenvalues --  -14.39117 -14.38470 -14.38343 -10.38775 -10.38695
 Alpha  occ. eigenvalues --  -10.35379 -10.35190 -10.34164 -10.33758 -10.31518
 Alpha  occ. eigenvalues --  -10.31350 -10.31285 -10.31063 -10.30810 -10.30802
 Alpha  occ. eigenvalues --  -10.30448 -10.30397 -10.30145 -10.30140 -10.30092
 Alpha  occ. eigenvalues --  -10.29948 -10.29822 -10.29646 -10.29518 -10.29220
 Alpha  occ. eigenvalues --  -10.29167 -10.29141 -10.28641 -10.28537 -10.28528
 Alpha  occ. eigenvalues --  -10.28460 -10.28240 -10.28146 -10.28019 -10.27970
 Alpha  occ. eigenvalues --  -10.27718 -10.27666 -10.27632 -10.27480 -10.27474
 Alpha  occ. eigenvalues --  -10.27452 -10.27425 -10.27408 -10.27339 -10.27286
 Alpha  occ. eigenvalues --  -10.27277 -10.27238 -10.27217 -10.27181 -10.26929
 Alpha  occ. eigenvalues --  -10.26668 -10.26599 -10.26528 -10.26369 -10.26254
 Alpha  occ. eigenvalues --  -10.26211 -10.26144 -10.25988 -10.25936 -10.25902
 Alpha  occ. eigenvalues --  -10.25713 -10.25691 -10.25496 -10.25394 -10.25209
 Alpha  occ. eigenvalues --  -10.24769 -10.24691 -10.24690 -10.24580 -10.24578
 Alpha  occ. eigenvalues --  -10.24449  -3.16440  -3.16179  -1.91322  -1.91061
 Alpha  occ. eigenvalues --   -1.90909  -1.90750  -1.90650  -1.90486  -1.16336
 Alpha  occ. eigenvalues --   -1.16278  -1.08384  -1.08167  -1.07146  -1.06765
 Alpha  occ. eigenvalues --   -1.06624  -1.06244  -1.04474  -1.04268  -1.03667
 Alpha  occ. eigenvalues --   -1.03429  -1.03128  -1.02799  -1.02306  -1.01866
 Alpha  occ. eigenvalues --   -0.91822  -0.91703  -0.89458  -0.89275  -0.89086
 Alpha  occ. eigenvalues --   -0.88970  -0.88227  -0.88014  -0.87738  -0.87576
 Alpha  occ. eigenvalues --   -0.87505  -0.87458  -0.87190  -0.86903  -0.84880
 Alpha  occ. eigenvalues --   -0.84803  -0.83882  -0.83670  -0.82906  -0.82736
 Alpha  occ. eigenvalues --   -0.82536  -0.82449  -0.81393  -0.81332  -0.80453
 Alpha  occ. eigenvalues --   -0.80200  -0.78698  -0.78395  -0.77135  -0.76939
 Alpha  occ. eigenvalues --   -0.76816  -0.76687  -0.75778  -0.75610  -0.74814
 Alpha  occ. eigenvalues --   -0.74586  -0.72669  -0.72451  -0.71564  -0.71356
 Alpha  occ. eigenvalues --   -0.69887  -0.69574  -0.68769  -0.68621  -0.67522
 Alpha  occ. eigenvalues --   -0.67351  -0.67125  -0.67007  -0.65171  -0.65055
 Alpha  occ. eigenvalues --   -0.64730  -0.64539  -0.64492  -0.64423  -0.64195
 Alpha  occ. eigenvalues --   -0.63987  -0.62073  -0.62011  -0.60360  -0.60117
 Alpha  occ. eigenvalues --   -0.59697  -0.59587  -0.58873  -0.58748  -0.58375
 Alpha  occ. eigenvalues --   -0.58167  -0.57383  -0.57223  -0.57163  -0.56987
 Alpha  occ. eigenvalues --   -0.56193  -0.55956  -0.55751  -0.55634  -0.55415
 Alpha  occ. eigenvalues --   -0.55221  -0.55219  -0.55008  -0.54347  -0.54246
 Alpha  occ. eigenvalues --   -0.53785  -0.53724  -0.53201  -0.53108  -0.52998
 Alpha  occ. eigenvalues --   -0.52916  -0.52746  -0.52671  -0.52667  -0.52481
 Alpha  occ. eigenvalues --   -0.52388  -0.52209  -0.51762  -0.51562  -0.51503
 Alpha  occ. eigenvalues --   -0.51457  -0.51061  -0.50917  -0.50517  -0.50290
 Alpha  occ. eigenvalues --   -0.49992  -0.49835  -0.49788  -0.49661  -0.49406
 Alpha  occ. eigenvalues --   -0.49281  -0.49064  -0.48979  -0.48965  -0.48837
 Alpha  occ. eigenvalues --   -0.48445  -0.48363  -0.48305  -0.48298  -0.48154
 Alpha  occ. eigenvalues --   -0.48053  -0.47589  -0.47372  -0.47188  -0.46904
 Alpha  occ. eigenvalues --   -0.46706  -0.46493  -0.46445  -0.46361  -0.46256
 Alpha  occ. eigenvalues --   -0.46041  -0.46016  -0.45831  -0.45640  -0.45539
 Alpha  occ. eigenvalues --   -0.45131  -0.44993  -0.44442  -0.44406  -0.44309
 Alpha  occ. eigenvalues --   -0.44212  -0.44073  -0.43992  -0.43897  -0.43858
 Alpha  occ. eigenvalues --   -0.43855  -0.43657  -0.43320  -0.43313  -0.43288
 Alpha  occ. eigenvalues --   -0.43151  -0.42905  -0.42677  -0.42644  -0.42606
 Alpha  occ. eigenvalues --   -0.42375  -0.42352  -0.41929  -0.41761  -0.41564
 Alpha  occ. eigenvalues --   -0.41436  -0.41352  -0.41264  -0.41033  -0.40795
 Alpha  occ. eigenvalues --   -0.40761  -0.40754  -0.40533  -0.40516  -0.40497
 Alpha  occ. eigenvalues --   -0.40284  -0.40144  -0.40058  -0.39439  -0.39247
 Alpha  occ. eigenvalues --   -0.38414  -0.38158  -0.37648  -0.37472  -0.37249
 Alpha  occ. eigenvalues --   -0.37151  -0.37057  -0.36983  -0.36495  -0.36486
 Alpha  occ. eigenvalues --   -0.35985  -0.35971  -0.34175  -0.34010  -0.33561
 Alpha  occ. eigenvalues --   -0.33424  -0.33035  -0.32933  -0.31271  -0.31069
 Alpha  occ. eigenvalues --   -0.30919  -0.30737  -0.29801  -0.29478  -0.29345
 Alpha  occ. eigenvalues --   -0.29183  -0.29083  -0.28903  -0.23970  -0.23796
 Alpha  occ. eigenvalues --   -0.21026  -0.20880
 Alpha virt. eigenvalues --   -0.08664  -0.08536  -0.01657  -0.01459   0.00045
 Alpha virt. eigenvalues --    0.00209   0.02358   0.02544   0.03162   0.03450
 Alpha virt. eigenvalues --    0.04812   0.04929   0.05442   0.05490   0.06276

 Mulliken charges:
               1
     1  Mg   0.838131
     2  C   -0.001761
     3  C   -0.094467
     4  C   -0.046212
     5  C   -0.064816
     6  N   -0.256542
     7  C   -0.052668
     8  C   -0.013751
     9  C   -0.086877
    10  C    0.045927
    11  C    0.104906
    12  C    0.053481
    13  C   -0.071279
    14  H    0.035799
    15  N   -0.433039
    16  C    0.167944
    17  C   -0.177643
    18  C   -0.004400
    19  C    0.148502
    20  C    0.110332
    21  C    0.011962
    22  O   -0.250129
    23  C    0.062661
    24  N   -0.341051
    25  C    0.040902
    26  C   -0.028044
    27  C   -0.023925
    28  C    0.074813
    29  C    0.076236
    30  C    0.035313
    31  C   -0.004306
    32  N   -0.310896
    33  C    0.080492
    34  C   -0.169186
    35  C    0.009657
    36  C    0.083718
    37  C    0.126758
    38  C    0.049114
    39  O   -0.186176
    40  C   -0.006255
    41  C    0.212178
    42  O   -0.250841
    43  O   -0.306165
    44  C    0.156742
    45  H   -0.018058
    46  H   -0.017362
    47  H   -0.041760
    48  H    0.001232
    49  H   -0.004708
    50  H    0.025596
    51  H    0.016298
    52  H    0.016208
    53  H    0.009885
    54  H    0.045941
    55  H    0.017943
    56  H    0.016763
    57  H    0.005470
    58  H    0.026505
    59  H    0.038575
    60  H    0.037218
    61  H    0.035306
    62  H    0.030980
    63  H    0.015902
    64  H    0.009569
    65  H    0.022879
    66  H    0.012716
    67  H    0.004618
    68  H    0.006130
    69  H    0.004784
    70  H    0.008641
    71  H    0.015804
    72  H    0.029287
    73  H    0.049642
    74  H    0.008335
    75  H    0.045833
    76  H    0.034460
    77  H    0.042216
    78  H    0.044419
    79  H    0.057566
    80  Mg   0.836969
    81  C   -0.016654
    82  C   -0.088090
    83  C   -0.045803
    84  C   -0.065425
    85  N   -0.254230
    86  C   -0.050059
    87  C   -0.014761
    88  C   -0.090455
    89  C    0.045218
    90  C    0.114468
    91  C    0.062680
    92  C   -0.077319
    93  H    0.034491
    94  N   -0.423291
    95  C    0.162279
    96  C   -0.175352
    97  C   -0.008364
    98  C    0.151682
    99  C    0.099675
   100  C    0.015124
   101  O   -0.253845
   102  C    0.061381
   103  N   -0.350120
   104  C    0.037166
   105  C   -0.019614
   106  C   -0.034795
   107  C    0.089498
   108  C    0.073760
   109  C    0.034851
   110  C   -0.007556
   111  N   -0.324477
   112  C    0.078819
   113  C   -0.163960
   114  C    0.004326
   115  C    0.095457
   116  C    0.132066
   117  C    0.045174
   118  O   -0.178990
   119  C    0.000162
   120  C    0.211732
   121  O   -0.251896
   122  O   -0.305032
   123  C    0.152541
   124  H   -0.020825
   125  H   -0.016168
   126  H   -0.040885
   127  H   -0.000707
   128  H   -0.005054
   129  H    0.022525
   130  H    0.014053
   131  H    0.014663
   132  H    0.013729
   133  H    0.038046
   134  H    0.020038
   135  H    0.019019
   136  H    0.007993
   137  H    0.025217
   138  H    0.039089
   139  H    0.037824
   140  H    0.035778
   141  H    0.033628
   142  H    0.013925
   143  H    0.012129
   144  H    0.024582
   145  H    0.011763
   146  H    0.005633
   147  H    0.005755
   148  H    0.003132
   149  H    0.010776
   150  H    0.017558
   151  H    0.030482
   152  H    0.047293
   153  H    0.006299
   154  H    0.050035
   155  H    0.038463
   156  H    0.043276
   157  H    0.048076
   158  H    0.053459
 Sum of Mulliken charges =  -0.00000

 Dipole moment (field-independent basis, Debye):
    X=              0.8462    Y=             -0.6021    Z=              7.9288  Tot=              7.9966
 Quadrupole moment (field-independent basis, Debye-Ang):
   XX=           -498.8776   YY=           -520.4218   ZZ=           -473.6388
   XY=            -22.0093   XZ=             -1.1469   YZ=             58.4039

 Normal termination of Gaussian 16 at Fri Sep 10 21:11:02 2021.
