 Gaussian 16, Revision A.03,
 Gaussian 16:  ES64L-G16RevA.03 25-Dec-2016

 -----------------------------------
 #p cam-b3lyp/Def2SVP td=(nstates=5)
 -----------------------------------

 --------------------------------
 TDDFT excited states in gaussian
 --------------------------------
 Symbolic Z-matrix:
 Charge =  0 Multiplicity = 1

                         Standard orientation:
 ---------------------------------------------------------------------
 Center     Atomic      Atomic             Coordinates (Angstroms)
 Number     Number       Type             X           Y           Z
 ---------------------------------------------------------------------
      1         12           0       -5.219617   -0.689149   -0.088300
      2          6           0       -5.407060    2.747607    0.894446
      3          6           0       -5.980574    0.329269   -3.254818
      4          6           0       -5.507074   -3.745069   -0.885381
      5          6           0       -5.599435   -1.518537    3.275257
      6          7           0       -5.618603    1.312022   -0.946654
      7          6           0       -5.600481    2.554851   -0.475254
      8          6           0       -5.731178    3.639061   -1.586461
      9          6           0       -6.460677    2.767157   -2.704321
     10          6           0       -5.963365    1.390150   -2.301263
     11          6           0       -7.982113    2.790319   -2.598496
     12          6           0       -4.337817    4.154691   -2.080829
     13          6           0       -4.375306    5.434423   -2.921206
     14          1           0       -3.290387    6.394354   -2.783975
     15          7           0       -5.194690   -1.558319   -1.862214
     16          6           0       -5.518733   -0.988581   -3.047828
     17          6           0       -5.340738   -2.043210   -4.068982
     18          6           0       -5.070109   -3.323718   -3.358241
     19          6           0       -5.275060   -2.926998   -1.988574
     20          6           0       -5.384693   -1.777588   -5.542503
     21          6           0       -4.697749   -4.690894   -3.838147
     22          8           0       -4.736594   -5.714360   -3.072913
     23          6           0       -4.367084   -4.817379   -5.269127
     24          7           0       -5.730797   -2.397679    0.996714
     25          6           0       -5.723509   -3.606499    0.424275
     26          6           0       -5.842494   -4.696217    1.448138
     27          6           0       -5.688041   -3.985801    2.869829
     28          6           0       -5.582838   -2.517262    2.389626
     29          6           0       -7.148718   -5.501801    1.419407
     30          6           0       -4.588526   -4.533653    3.813939
     31          6           0       -3.222482   -4.243728    3.233452
     32          7           0       -5.284894    0.390324    1.793593
     33          6           0       -5.473735   -0.154445    3.071967
     34          6           0       -5.552778    0.975634    4.015758
     35          6           0       -5.420159    2.107288    3.213502
     36          6           0       -5.294239    1.710264    1.851589
     37          6           0       -5.784194    0.877205    5.416184
     38          6           0       -5.380247    3.560413    3.187205
     39          8           0       -5.346300    4.442654    4.046269
     40          6           0       -5.492470    4.037409    1.672045
     41          6           0       -4.423441    5.070268    1.440340
     42          8           0       -3.215436    4.758519    1.470392
     43          8           0       -4.987904    6.200654    0.988510
     44          6           0       -3.978745    7.257237    0.710332
     45          1           0       -6.442222    0.502531   -4.228883
     46          1           0       -5.502546   -4.815197   -1.102738
     47          1           0       -5.632493   -1.703272    4.350540
     48          1           0       -6.352031    4.493630   -1.316871
     49          1           0       -6.113163    3.017188   -3.706539
     50          1           0       -8.310747    3.299007   -1.692319
     51          1           0       -8.288567    1.744256   -2.580307
     52          1           0       -8.426516    3.217142   -3.497999
     53          1           0       -3.938637    3.459429   -2.819293
     54          1           0       -3.657965    4.295449   -1.239809
     55          1           0       -5.340660    5.935145   -2.841973
     56          1           0       -4.300446    5.155163   -3.972210
     57          1           0       -5.765349   -0.780086   -5.758457
     58          1           0       -6.130614   -2.450371   -5.965202
     59          1           0       -4.420199   -1.951556   -6.019806
     60          1           0       -5.220633   -4.494584   -5.865622
     61          1           0       -4.039385   -5.846452   -5.412210
     62          1           0       -3.551806   -4.132804   -5.504978
     63          1           0       -5.049234   -5.433078    1.328970
     64          1           0       -6.602076   -4.050119    3.460657
     65          1           0       -6.998920   -6.574554    1.295037
     66          1           0       -7.775276   -5.099604    0.623823
     67          1           0       -7.789472   -5.364811    2.290088
     68          1           0       -4.674049   -5.615692    3.907878
     69          1           0       -4.631926   -4.109208    4.817041
     70          1           0       -3.074487   -5.067512    2.536093
     71          1           0       -2.465354   -4.255712    4.018196
     72          1           0       -3.224445   -3.321297    2.652416
     73          1           0       -5.090979    1.572465    5.889508
     74          1           0       -5.629200   -0.140924    5.772542
     75          1           0       -6.828574    1.184116    5.470332
     76          1           0       -6.493446    4.448936    1.546289
     77          1           0       -4.265660    8.135425    1.288865
     78          1           0       -3.928333    7.359859   -0.373796
     79          1           0       -2.973976    7.077180    1.094205
     80         12           0        5.365065   -0.831249    0.241600
     81          6           0        5.225535    2.705651   -0.349951
     82          6           0        4.586604   -1.261714   -3.051318
     83          6           0        5.037128   -3.932415    0.826999
     84          6           0        4.998750   -0.137378    3.637195
     85          7           0        4.980527    0.612934   -1.388958
     86          6           0        5.016128    1.931408   -1.510185
     87          6           0        4.895981    2.446613   -2.969529
     88          6           0        4.139070    1.182931   -3.609115
     89          6           0        4.621713    0.097403   -2.649247
     90          6           0        2.625558    1.272756   -3.506498
     91          6           0        6.296130    2.676898   -3.639273
     92          6           0        6.260388    3.468499   -4.948413
     93          1           0        7.364298    4.378245   -5.242058
     94          7           0        5.367530   -2.379785   -0.999604
     95          6           0        5.046418   -2.372532   -2.310370
     96          6           0        5.186884   -3.764000   -2.766715
     97          6           0        5.457444   -4.621510   -1.580883
     98          6           0        5.273202   -3.659796   -0.512588
     99          6           0        5.142019   -4.153597   -4.215718
    100          6           0        5.809556   -6.070689   -1.432223
    101          8           0        5.766219   -6.660963   -0.295332
    102          6           0        6.116123   -6.801244   -2.670698
    103          7           0        4.850550   -1.896744    1.951088
    104          6           0        4.832698   -3.241212    1.948509
    105          6           0        4.706181   -3.787757    3.350526
    106          6           0        4.886819   -2.528968    4.320276
    107          6           0        5.002633   -1.409358    3.262714
    108          6           0        3.389273   -4.493507    3.673080
    109          6           0        5.988370   -2.632781    5.410459
    110          6           0        7.354591   -2.651500    4.763560
    111          7           0        5.334418    0.944654    1.471757
    112          6           0        5.143002    1.011034    2.869270
    113          6           0        5.086513    2.441623    3.233500
    114          6           0        5.227050    3.113498    2.009847
    115          6           0        5.341372    2.168267    0.954872
    116          6           0        4.876525    2.959022    4.542813
    117          6           0        5.294021    4.407384    1.369478
    118          8           0        5.339130    5.571358    1.765531
    119          6           0        5.169101    4.200774   -0.201543
    120          6           0        6.248834    5.011861   -0.863999
    121          8           0        7.447483    4.727836   -0.693194
    122          8           0        5.687347    5.847158   -1.756959
    123          6           0        6.719257    6.665333   -2.448031
    124          1           0        4.124956   -1.508003   -4.007928
    125          1           0        5.026148   -4.990673    1.097995
    126          1           0        4.984890    0.161924    4.687389
    127          1           0        4.294028    3.339591   -3.087905
    128          1           0        4.488807    0.982374   -4.618487
    129          1           0        2.311470    2.118517   -2.913054
    130          1           0        2.306568    0.347393   -3.044977
    131          1           0        2.179811    1.280709   -4.505289
    132          1           0        6.677703    1.717031   -4.010478
    133          1           0        6.974638    3.144585   -2.952610
    134          1           0        5.297435    3.971181   -5.099990
    135          1           0        6.329414    2.764744   -5.781470
    136          1           0        4.764696   -3.334931   -4.840881
    137          1           0        4.385493   -4.939881   -4.312152
    138          1           0        6.098140   -4.536685   -4.578683
    139          1           0        5.262875   -6.746975   -3.342619
    140          1           0        6.430509   -7.797087   -2.352352
    141          1           0        6.947741   -6.298352   -3.176794
    142          1           0        5.489745   -4.506251    3.557677
    143          1           0        3.972491   -2.323831    4.896257
    144          1           0        3.526117   -5.533799    4.023995
    145          1           0        2.763839   -4.469050    2.790601
    146          1           0        2.765919   -3.992841    4.411975
    147          1           0        5.891488   -3.573291    5.958373
    148          1           0        5.951614   -1.830140    6.139434
    149          1           0        7.480838   -3.701705    4.483881
    150          1           0        8.118263   -2.337188    5.472102
    151          1           0        7.360762   -2.061337    3.839798
    152          1           0        5.575114    3.775167    4.670816
    153          1           0        5.017432    2.191470    5.300959
    154          1           0        3.831722    3.271161    4.463941
    155          1           0        4.171558    4.528400   -0.496761
    156          1           0        6.444877    7.714770   -2.302827
    157          1           0        6.748921    6.291807   -3.488870
    158          1           0        7.724168    6.651413   -2.042561
 ---------------------------------------------------------------------

 SCF Done:  E(RCAM-B3LYP) =  -4069.81147413     A.U. after   19 cycles

 Excitation energies and oscillator strengths:

 Excited State   1:      Singlet-A      1.6583 eV  747.65 nm  f=0.0392  <S**2>=0.000
     309 -> 315       -0.11430
     310 -> 316        0.12523
     311 -> 313       -0.46162
     312 -> 314        0.50877
 This state for optimization and/or second-order correction.
 Total Energy, E(TD-HF/TD-DFT) =  -4069.75053165
 Copying the excited state density for this state as the 1-particle RhoCI density.

 Excited State   2:      Singlet-A      1.6948 eV  731.55 nm  f=0.6755  <S**2>=0.000
     309 -> 315        0.13282
     310 -> 316        0.12013
     311 -> 313        0.50704
     312 -> 314        0.46017

 Excited State   3:      Singlet-A      2.1838 eV  567.75 nm  f=0.0286  <S**2>=0.000
     309 -> 313       -0.28851
     310 -> 314        0.57528
     311 -> 315        0.12087
     312 -> 316       -0.24282

 Excited State   4:      Singlet-A      2.1934 eV  565.26 nm  f=0.1565  <S**2>=0.000
     309 -> 313        0.57228
     310 -> 314        0.28574
     311 -> 315       -0.25004
     312 -> 316       -0.12581

 Excited State   5:      Singlet-A      2.4853 eV  498.87 nm  f=0.0000  <S**2>=0.000
     312 -> 313        0.70709

 The electronic state is 1-A.
 Alpha  occ. eigenvalues --  -46.87873 -46.87494 -19.26271 -19.26232 -19.19030
 Alpha  occ. eigenvalues --  -19.19017 -19.18914 -19.18565 -19.18216 -19.17858
 Alpha  occ. eigenvalues --  -14.42528 -14.42339 -14.41523 -14.41195 -14.39484
 Alpha  occ. eigenvalues --  -14.39187 -14.38660 -14.38422 -10.39082 -10.38954
 Alpha  occ. eigenvalues --  -10.35551 -10.35245 -10.34434 -10.34035 -10.31670
 Alpha  occ. eigenvalues --  -10.31631 -10.31477 -10.31146 -10.30988 -10.30879
 Alpha  occ. eigenvalues --  -10.30644 -10.30580 -10.30288 -10.30220 -10.30184
 Alpha  occ. eigenvalues --  -10.29987 -10.29986 -10.29719 -10.29710 -10.29339
 Alpha  occ. eigenvalues --  -10.29273 -10.29226 -10.28823 -10.28615 -10.28605
 Alpha  occ. eigenvalues --  -10.28602 -10.28440 -10.28237 -10.28193 -10.28027
 Alpha  occ. eigenvalues --  -10.27869 -10.27822 -10.27807 -10.27670 -10.27608
 Alpha  occ. eigenvalues --  -10.27566 -10.27518 -10.27508 -10.27473 -10.27371
 Alpha  occ. eigenvalues --  -10.27349 -10.27319 -10.27298 -10.27231 -10.27196
 Alpha  occ. eigenvalues --  -10.26868 -10.26791 -10.26605 -10.26552 -10.26301
 Alpha  occ. eigenvalues --  -10.26291 -10.26247 -10.26095 -10.26007 -10.25918
 Alpha  occ. eigenvalues --  -10.25906 -10.25765 -10.25590 -10.25487 -10.25266
 Alpha  occ. eigenvalues --  -10.24904 -10.24859 -10.24753 -10.24685 -10.24608
 Alpha  occ. eigenvalues --  -10.24524  -3.16616  -3.16243  -1.91498  -1.91126
 Alpha  occ. eigenvalues --   -1.91084  -1.90926  -1.90715  -1.90551  -1.16622
 Alpha  occ. eigenvalues --   -1.16522  -1.08668  -1.08464  -1.07316  -1.06819
 Alpha  occ. eigenvalues --   -1.06813  -1.06640  -1.04657  -1.04337  -1.03835
 Alpha  occ. eigenvalues --   -1.03499  -1.03310  -1.02870  -1.02486  -1.01941
 Alpha  occ. eigenvalues --   -0.92035  -0.91816  -0.89588  -0.89338  -0.89263
 Alpha  occ. eigenvalues --   -0.89031  -0.88353  -0.88071  -0.87941  -0.87751
 Alpha  occ. eigenvalues --   -0.87595  -0.87529  -0.87374  -0.86970  -0.85058
 Alpha  occ. eigenvalues --   -0.84872  -0.83996  -0.83731  -0.83071  -0.82793
 Alpha  occ. eigenvalues --   -0.82719  -0.82523  -0.81621  -0.81451  -0.80657
 Alpha  occ. eigenvalues --   -0.80294  -0.78887  -0.78472  -0.77292  -0.77004
 Alpha  occ. eigenvalues --   -0.76990  -0.76768  -0.75978  -0.75700  -0.74956
 Alpha  occ. eigenvalues --   -0.74659  -0.72847  -0.72528  -0.71737  -0.71432
 Alpha  occ. eigenvalues --   -0.69972  -0.69618  -0.68949  -0.68695  -0.67713
 Alpha  occ. eigenvalues --   -0.67445  -0.67306  -0.67079  -0.65356  -0.65139
 Alpha  occ. eigenvalues --   -0.64913  -0.64679  -0.64615  -0.64514  -0.64335
 Alpha  occ. eigenvalues --   -0.64054  -0.62321  -0.62139  -0.60531  -0.60186
 Alpha  occ. eigenvalues --   -0.59880  -0.59658  -0.59054  -0.58833  -0.58568
 Alpha  occ. eigenvalues --   -0.58267  -0.57625  -0.57385  -0.57371  -0.57079
 Alpha  occ. eigenvalues --   -0.56385  -0.56041  -0.56002  -0.55759  -0.55600
 Alpha  occ. eigenvalues --   -0.55387  -0.55306  -0.55099  -0.54559  -0.54350
 Alpha  occ. eigenvalues --   -0.53969  -0.53793  -0.53380  -0.53299  -0.53072
 Alpha  occ. eigenvalues --   -0.53003  -0.52967  -0.52850  -0.52766  -0.52538
 Alpha  occ. eigenvalues --   -0.52501  -0.52263  -0.51978  -0.51696  -0.51657
 Alpha  occ. eigenvalues --   -0.51532  -0.51254  -0.51042  -0.50691  -0.50344
 Alpha  occ. eigenvalues --   -0.50105  -0.50010  -0.49847  -0.49723  -0.49594
 Alpha  occ. eigenvalues --   -0.49349  -0.49283  -0.49163  -0.49054  -0.48954
 Alpha  occ. eigenvalues --   -0.48644  -0.48545  -0.48502  -0.48410  -0.48225
 Alpha  occ. eigenvalues --   -0.48192  -0.47768  -0.47458  -0.47370  -0.46976
 Alpha  occ. eigenvalues --   -0.46867  -0.46629  -0.46562  -0.46432  -0.46428
 Alpha  occ. eigenvalues --   -0.46216  -0.46114  -0.45920  -0.45866  -0.45657
 Alpha  occ. eigenvalues --   -0.45265  -0.45062  -0.44635  -0.44592  -0.44376
 Alpha  occ. eigenvalues --   -0.44328  -0.44217  -0.44164  -0.44081  -0.43984
 Alpha  occ. eigenvalues --   -0.43933  -0.43789  -0.43532  -0.43458  -0.43417
 Alpha  occ. eigenvalues --   -0.43243  -0.43091  -0.42793  -0.42748  -0.42742
 Alpha  occ. eigenvalues --   -0.42672  -0.42408  -0.42073  -0.41829  -0.41767
 Alpha  occ. eigenvalues --   -0.41608  -0.41506  -0.41332  -0.41209  -0.40947
 Alpha  occ. eigenvalues --   -0.40917  -0.40846  -0.40635  -0.40595  -0.40572
 Alpha  occ. eigenvalues --   -0.40350  -0.40319  -0.40124  -0.39506  -0.39286
 Alpha  occ. eigenvalues --   -0.38536  -0.38211  -0.37823  -0.37545  -0.37390
 Alpha  occ. eigenvalues --   -0.37338  -0.37117  -0.37057  -0.36734  -0.36642
 Alpha  occ. eigenvalues --   -0.36235  -0.36074  -0.34358  -0.34089  -0.33783
 Alpha  occ. eigenvalues --   -0.33723  -0.33254  -0.33010  -0.31442  -0.31125
 Alpha  occ. eigenvalues --   -0.31107  -0.30811  -0.30073  -0.29763  -0.29534
 Alpha  occ. eigenvalues --   -0.29394  -0.29159  -0.29020  -0.24153  -0.23867
 Alpha  occ. eigenvalues --   -0.21205  -0.20951
 Alpha virt. eigenvalues --   -0.08853  -0.08621  -0.01827  -0.01522  -0.00145
 Alpha virt. eigenvalues --    0.00128   0.02138   0.02395   0.03023   0.03380
 Alpha virt. eigenvalues --    0.04644   0.04872   0.05088   0.05305   0.06112

 Mulliken charges:
               1
     1  Mg   0.838471
     2  C   -0.002881
     3  C   -0.094668
     4  C   -0.045703
     5  C   -0.064014
     6  N   -0.256710
     7  C   -0.052490
     8  C   -0.013889
     9  C   -0.086887
    10  C    0.046109
    11  C    0.104811
    12  C    0.053659
    13  C   -0.071937
    14  H    0.036695
    15  N   -0.433048
    16  C    0.168128
    17  C   -0.177705
    18  C   -0.004269
    19  C    0.148641
    20  C    0.110289
    21  C    0.012067
    22  O   -0.249241
    23  C    0.062760
    24  N   -0.341146
    25  C    0.041151
    26  C   -0.028216
    27  C   -0.024066
    28  C    0.075034
    29  C    0.076085
    30  C    0.035082
    31  C   -0.004467
    32  N   -0.310555
    33  C    0.080627
    34  C   -0.169676
    35  C    0.008608
    36  C    0.083114
    37  C    0.127279
    38  C    0.046380
    39  O   -0.187611
    40  C   -0.005385
    41  C    0.213003
    42  O   -0.256722
    43  O   -0.305030
    44  C    0.157118
    45  H   -0.017749
    46  H   -0.016685
    47  H   -0.041396
    48  H    0.001324
    49  H   -0.004447
    50  H    0.025691
    51  H    0.016473
    52  H    0.016657
    53  H    0.010062
    54  H    0.044436
    55  H    0.018280
    56  H    0.017224
    57  H    0.005754
    58  H    0.026970
    59  H    0.038097
    60  H    0.037520
    61  H    0.035523
    62  H    0.030063
    63  H    0.016840
    64  H    0.009619
    65  H    0.023428
    66  H    0.012519
    67  H    0.004850
    68  H    0.006708
    69  H    0.004555
    70  H    0.009524
    71  H    0.017399
    72  H    0.028929
    73  H    0.047808
    74  H    0.009015
    75  H    0.046288
    76  H    0.035283
    77  H    0.043489
    78  H    0.046036
    79  H    0.055118
    80  Mg   0.838124
    81  C   -0.016446
    82  C   -0.088003
    83  C   -0.045279
    84  C   -0.064034
    85  N   -0.254447
    86  C   -0.049345
    87  C   -0.015071
    88  C   -0.090675
    89  C    0.045859
    90  C    0.114404
    91  C    0.062659
    92  C   -0.077456
    93  H    0.034462
    94  N   -0.423397
    95  C    0.162745
    96  C   -0.174920
    97  C   -0.007884
    98  C    0.151838
    99  C    0.099504
   100  C    0.015530
   101  O   -0.253455
   102  C    0.061271
   103  N   -0.349826
   104  C    0.037344
   105  C   -0.019764
   106  C   -0.034929
   107  C    0.089034
   108  C    0.073748
   109  C    0.034720
   110  C   -0.007580
   111  N   -0.324435
   112  C    0.078827
   113  C   -0.161795
   114  C    0.003222
   115  C    0.096312
   116  C    0.130907
   117  C    0.043691
   118  O   -0.187418
   119  C    0.000369
   120  C    0.211008
   121  O   -0.251326
   122  O   -0.305553
   123  C    0.152204
   124  H   -0.020889
   125  H   -0.015839
   126  H   -0.040029
   127  H   -0.000757
   128  H   -0.005300
   129  H    0.024137
   130  H    0.014723
   131  H    0.013961
   132  H    0.013798
   133  H    0.037741
   134  H    0.020235
   135  H    0.019076
   136  H    0.007812
   137  H    0.025840
   138  H    0.039237
   139  H    0.038236
   140  H    0.036067
   141  H    0.033508
   142  H    0.014046
   143  H    0.012794
   144  H    0.024466
   145  H    0.012212
   146  H    0.005171
   147  H    0.005816
   148  H    0.003836
   149  H    0.010700
   150  H    0.017703
   151  H    0.030215
   152  H    0.045528
   153  H    0.008048
   154  H    0.050586
   155  H    0.036596
   156  H    0.043570
   157  H    0.048962
   158  H    0.053450
 Sum of Mulliken charges =  -0.00000

 Dipole moment (field-independent basis, Debye):
    X=             -3.8781    Y=             -2.0606    Z=             -7.3451  Tot=              8.5578
 Quadrupole moment (field-independent basis, Debye-Ang):
   XX=           -518.4803   YY=           -546.3068   ZZ=           -452.9157
   XY=            -12.6551   XZ=              0.6140   YZ=            -43.4910

 Normal termination of Gaussian 16 at Fri Sep 10 22:10:42 2021.
