 Gaussian 16, Revision A.03,
 Gaussian 16:  ES64L-G16RevA.03 25-Dec-2016

 -----------------------------------
 #p cam-b3lyp/Def2SVP td=(nstates=5)
 -----------------------------------

 --------------------------------
 TDDFT excited states in gaussian
 --------------------------------
 Symbolic Z-matrix:
 Charge =  0 Multiplicity = 1

                         Standard orientation:
 ---------------------------------------------------------------------
 Center     Atomic      Atomic             Coordinates (Angstroms)
 Number     Number       Type             X           Y           Z
 ---------------------------------------------------------------------
      1         12           0        6.793578   -0.452810    0.105167
      2          6           0        6.869461    2.750643   -1.489932
      3          6           0        7.614826    1.139438    3.009192
      4          6           0        7.177845   -3.306479    1.433902
      5          6           0        7.102330   -1.873042   -3.062368
      6          7           0        7.166228    1.678491    0.573494
      7          6           0        7.104672    2.814177   -0.114692
      8          6           0        7.238692    4.084845    0.776832
      9          6           0        8.019538    3.445225    2.010997
     10          6           0        7.545588    2.008511    1.880056
     11          6           0        9.536508    3.478133    1.855362
     12          6           0        5.846963    4.654820    1.212668
     13          6           0        5.875666    6.066614    1.805431
     14          1           0        4.764076    6.964388    1.530261
     15          7           0        6.838240   -0.984913    2.007198
     16          6           0        7.180183   -0.202747    3.059138
     17          6           0        7.056029   -1.057143    4.259669
     18          6           0        6.797881   -2.450609    3.801733
     19          6           0        6.955743   -2.305921    2.377120
     20          6           0        7.133386   -0.526967    5.658482
     21          6           0        6.472514   -3.714538    4.533000
     22          8           0        6.515813   -4.859243    3.965241
     23          6           0        6.184020   -3.584827    5.972788
     24          7           0        7.317115   -2.320082   -0.667388
     25          6           0        7.355179   -3.404434    0.114735
     26          6           0        7.473181   -4.659796   -0.697719
     27          6           0        7.262733   -4.223124   -2.219160
     28          6           0        7.134409   -2.694025   -2.010214
     29          6           0        8.799176   -5.421303   -0.564086
     30          6           0        6.151852   -4.954802   -3.013521
     31          6           0        4.795327   -4.590517   -2.452955
     32          7           0        6.781122    0.267170   -1.942397
     33          6           0        6.948585   -0.497422   -3.106025
     34          6           0        6.974092    0.443317   -4.241114
     35          6           0        6.835419    1.699309   -3.653663
     36          6           0        6.756331    1.554437   -2.239079
     37          6           0        7.169781    0.096135   -5.606985
     38          6           0        6.760406    3.131902   -3.890111
     39          8           0        6.681411    3.842227   -4.893452
     40          6           0        6.901901    3.878778   -2.490833
     41          6           0        5.814402    4.915705   -2.417088
     42          8           0        4.614084    4.580411   -2.352440
     43          8           0        6.362865    6.120139   -2.195573
     44          6           0        5.335872    7.190005   -2.082318
     45          1           0        8.098320    1.495981    3.920813
     46          1           0        7.205612   -4.319056    1.841767
     47          1           0        7.110745   -2.249728   -4.086814
     48          1           0        7.830733    4.887907    0.337512
     49          1           0        7.693285    3.866729    2.961584
     50          1           0        9.827785    3.819647    0.862162
     51          1           0        9.868064    2.452352    2.017648
     52          1           0        9.994491    4.070050    2.648245
     53          1           0        5.485239    4.097996    2.077054
     54          1           0        5.141277    4.626992    0.381669
     55          1           0        6.825871    6.563109    1.606654
     56          1           0        5.836262    5.981915    2.891466
     57          1           0        7.495042    0.500345    5.677978
     58          1           0        7.906869   -1.097037    6.172732
     59          1           0        6.186783   -0.629759    6.189244
     60          1           0        7.045219   -3.142425    6.473953
     61          1           0        5.885806   -4.576805    6.310274
     62          1           0        5.358805   -2.884642    6.105865
     63          1           0        6.701863   -5.377848   -0.422226
     64          1           0        8.161708   -4.376229   -2.816719
     65          1           0        8.679312   -6.456192   -0.242617
     66          1           0        9.436980   -4.868990    0.125442
     67          1           0        9.412495   -5.432716   -1.464712
     68          1           0        6.261457   -6.034007   -2.912282
     69          1           0        6.157535   -4.719261   -4.077823
     70          1           0        4.686672   -5.276320   -1.613491
     71          1           0        4.017710   -4.759758   -3.198529
     72          1           0        4.790303   -3.577877   -2.049196
     73          1           0        6.447040    0.680106   -6.176715
     74          1           0        7.030334   -0.972651   -5.767779
     75          1           0        8.204420    0.408186   -5.748418
     76          1           0        7.895466    4.325584   -2.473054
     77          1           0        5.585236    7.953604   -2.819182
     78          1           0        5.312380    7.487239   -1.033745
     79          1           0        4.325804    6.923707   -2.395666
     80         12           0       -6.424846   -0.956788    0.144912
     81          6           0       -8.831749    1.702534    0.027215
     82          6           0       -4.043504    1.423487    0.690876
     83          6           0       -4.226863   -3.219953   -0.193291
     84          6           0       -8.752846   -2.950497   -1.513785
     85          7           0       -6.545762    1.245023    0.317033
     86          6           0       -7.522384    2.139758    0.316774
     87          6           0       -7.082970    3.571651    0.724399
     88          6           0       -5.527228    3.464049    0.341030
     89          6           0       -5.342395    1.955374    0.490682
     90          6           0       -5.235646    3.840138   -1.102190
     91          6           0       -7.279366    3.843535    2.257213
     92          6           0       -7.163484    5.312587    2.669792
     93          1           0       -8.019577    5.802767    3.746504
     94          7           0       -4.521912   -0.993184    0.707118
     95          6           0       -3.710967    0.067537    0.903373
     96          6           0       -2.405179   -0.490100    1.288239
     97          6           0       -2.465915   -1.969948    1.143125
     98          6           0       -3.762281   -2.120044    0.513048
     99          6           0       -1.282718    0.355678    1.815653
    100          6           0       -1.509355   -3.067370    1.499303
    101          8           0       -1.665608   -4.263635    1.066439
    102          6           0       -0.333671   -2.680393    2.292709
    103          7           0       -6.395859   -2.747641   -0.910727
    104          6           0       -5.335020   -3.571263   -0.845889
    105          6           0       -5.649749   -4.915340   -1.458080
    106          6           0       -7.225412   -4.904553   -1.731480
    107          6           0       -7.548417   -3.459249   -1.293146
    108          6           0       -4.910733   -5.245163   -2.754797
    109          6           0       -8.054219   -6.065883   -1.117425
    110          6           0       -8.058606   -5.955813    0.390314
    111          7           0       -8.492165   -0.764422   -0.452790
    112          6           0       -9.267132   -1.709657   -1.159925
    113          6           0      -10.575707   -1.081568   -1.434815
    114          6           0      -10.462192    0.203952   -0.884311
    115          6           0       -9.166790    0.372675   -0.324881
    116          6           0      -11.650295   -1.678024   -2.152881
    117          6           0      -11.139979    1.460277   -0.658629
    118          8           0      -12.285261    1.873504   -0.835633
    119          6           0      -10.071142    2.530522   -0.170210
    120          6           0      -10.638387    3.239625    1.028917
    121          8           0      -10.842300    2.623375    2.089699
    122          8           0      -10.642288    4.564831    0.796129
    123          6           0      -11.185974    5.312069    1.961398
    124          1           0       -3.191432    2.101841    0.639014
    125          1           0       -3.544283   -4.071523   -0.242219
    126          1           0       -9.566819   -3.540865   -1.939921
    127          1           0       -7.550958    4.368651    0.159091
    128          1           0       -4.906363    3.997081    1.056407
    129          1           0       -6.141500    4.004630   -1.666561
    130          1           0       -4.677813    3.010071   -1.515532
    131          1           0       -4.563951    4.702598   -1.138656
    132          1           0       -6.426096    3.426074    2.807119
    133          1           0       -8.215252    3.445251    2.597966
    134          1           0       -7.206988    5.987816    1.806584
    135          1           0       -6.168131    5.477727    3.089345
    136          1           0       -1.473247    1.423729    1.653284
    137          1           0       -0.403067    0.139951    1.199588
    138          1           0       -1.045450    0.137677    2.859135
    139          1           0        0.233046   -1.924931    1.753671
    140          1           0        0.183582   -3.613828    2.523012
    141          1           0       -0.677315   -2.212517    3.222020
    142          1           0       -5.418176   -5.718022   -0.768758
    143          1           0       -7.452952   -4.965359   -2.805901
    144          1           0       -4.327546   -6.183654   -2.698225
    145          1           0       -4.266812   -4.411665   -3.002174
    146          1           0       -5.541054   -5.320574   -3.639217
    147          1           0       -7.593962   -7.027596   -1.357065
    148          1           0       -9.078274   -6.101227   -1.473865
    149          1           0       -7.114615   -6.430005    0.675109
    150          1           0       -8.909933   -6.487360    0.810733
    151          1           0       -8.010310   -4.907939    0.708563
    152          1           0      -12.554858   -1.452091   -1.604035
    153          1           0      -11.508239   -2.751164   -2.262192
    154          1           0      -11.562057   -1.152909   -3.107728
    155          1           0       -9.888024    3.213238   -1.000840
    156          1           0      -12.013696    5.924348    1.590347
    157          1           0      -10.323363    5.845532    2.403065
    158          1           0      -11.678383    4.739365    2.738570
 ---------------------------------------------------------------------

 SCF Done:  E(RCAM-B3LYP) =  -4069.81187307     A.U. after   19 cycles

 Excitation energies and oscillator strengths:

 Excited State   1:      Singlet-A      1.6709 eV  742.02 nm  f=0.2956  <S**2>=0.000
     309 -> 315       -0.10014
     310 -> 316        0.14071
     311 -> 313       -0.39656
     312 -> 314        0.56019
 This state for optimization and/or second-order correction.
 Total Energy, E(TD-HF/TD-DFT) =  -4069.75046857
 Copying the excited state density for this state as the 1-particle RhoCI density.

 Excited State   2:      Singlet-A      1.6826 eV  736.85 nm  f=0.4862  <S**2>=0.000
     309 -> 315        0.14444
     310 -> 316        0.10129
     311 -> 313        0.55946
     312 -> 314        0.39610

 Excited State   3:      Singlet-A      2.1853 eV  567.36 nm  f=0.0369  <S**2>=0.000
     309 -> 313        0.21457
     310 -> 314        0.60638
     312 -> 316       -0.25665

 Excited State   4:      Singlet-A      2.1944 eV  565.01 nm  f=0.1507  <S**2>=0.000
     309 -> 313        0.60378
     310 -> 314       -0.21274
     311 -> 315       -0.26375

 Excited State   5:      Singlet-A      2.5959 eV  477.61 nm  f=0.0000  <S**2>=0.000
     312 -> 313        0.70690

 The electronic state is 1-A.
 Alpha  occ. eigenvalues --  -46.87979 -46.87540 -19.26523 -19.26270 -19.19268
 Alpha  occ. eigenvalues --  -19.19077 -19.18953 -19.18587 -19.18349 -19.17943
 Alpha  occ. eigenvalues --  -14.42632 -14.42374 -14.41609 -14.41240 -14.39582
 Alpha  occ. eigenvalues --  -14.39229 -14.38765 -14.38482 -10.39320 -10.39004
 Alpha  occ. eigenvalues --  -10.35585 -10.35263 -10.34572 -10.34121 -10.31928
 Alpha  occ. eigenvalues --  -10.31690 -10.31588 -10.31183 -10.31100 -10.30897
 Alpha  occ. eigenvalues --  -10.30746 -10.30671 -10.30351 -10.30282 -10.30240
 Alpha  occ. eigenvalues --  -10.30065 -10.30019 -10.29795 -10.29784 -10.29421
 Alpha  occ. eigenvalues --  -10.29309 -10.29281 -10.28967 -10.28814 -10.28600
 Alpha  occ. eigenvalues --  -10.28582 -10.28546 -10.28315 -10.28281 -10.28001
 Alpha  occ. eigenvalues --  -10.27963 -10.27903 -10.27879 -10.27752 -10.27656
 Alpha  occ. eigenvalues --  -10.27584 -10.27584 -10.27533 -10.27532 -10.27416
 Alpha  occ. eigenvalues --  -10.27365 -10.27355 -10.27342 -10.27308 -10.27274
 Alpha  occ. eigenvalues --  -10.26981 -10.26945 -10.26601 -10.26548 -10.26407
 Alpha  occ. eigenvalues --  -10.26282 -10.26214 -10.26170 -10.26051 -10.25983
 Alpha  occ. eigenvalues --  -10.25842 -10.25817 -10.25750 -10.25509 -10.25297
 Alpha  occ. eigenvalues --  -10.25006 -10.24942 -10.24754 -10.24675 -10.24651
 Alpha  occ. eigenvalues --  -10.24572  -3.16723  -3.16290  -1.91605  -1.91191
 Alpha  occ. eigenvalues --   -1.91172  -1.91033  -1.90761  -1.90598  -1.16873
 Alpha  occ. eigenvalues --   -1.16563  -1.08811  -1.08553  -1.07351  -1.06887
 Alpha  occ. eigenvalues --   -1.06862  -1.06838  -1.04764  -1.04371  -1.03924
 Alpha  occ. eigenvalues --   -1.03542  -1.03403  -1.02920  -1.02579  -1.01991
 Alpha  occ. eigenvalues --   -0.92153  -0.91871  -0.89641  -0.89393  -0.89385
 Alpha  occ. eigenvalues --   -0.89024  -0.88399  -0.88114  -0.88033  -0.87851
 Alpha  occ. eigenvalues --   -0.87681  -0.87563  -0.87438  -0.86988  -0.85179
 Alpha  occ. eigenvalues --   -0.84881  -0.84038  -0.83775  -0.83102  -0.82829
 Alpha  occ. eigenvalues --   -0.82807  -0.82532  -0.81781  -0.81496  -0.80776
 Alpha  occ. eigenvalues --   -0.80332  -0.78962  -0.78508  -0.77380  -0.77113
 Alpha  occ. eigenvalues --   -0.77026  -0.76792  -0.76109  -0.75717  -0.75021
 Alpha  occ. eigenvalues --   -0.74695  -0.72934  -0.72580  -0.71834  -0.71460
 Alpha  occ. eigenvalues --   -0.69984  -0.69658  -0.69060  -0.68709  -0.67811
 Alpha  occ. eigenvalues --   -0.67487  -0.67427  -0.67090  -0.65485  -0.65157
 Alpha  occ. eigenvalues --   -0.65028  -0.64791  -0.64656  -0.64543  -0.64392
 Alpha  occ. eigenvalues --   -0.64097  -0.62492  -0.62181  -0.60594  -0.60217
 Alpha  occ. eigenvalues --   -0.59998  -0.59672  -0.59151  -0.58877  -0.58670
 Alpha  occ. eigenvalues --   -0.58312  -0.57781  -0.57455  -0.57452  -0.57125
 Alpha  occ. eigenvalues --   -0.56479  -0.56191  -0.56085  -0.55787  -0.55686
 Alpha  occ. eigenvalues --   -0.55477  -0.55336  -0.55147  -0.54676  -0.54392
 Alpha  occ. eigenvalues --   -0.54102  -0.53790  -0.53456  -0.53408  -0.53112
 Alpha  occ. eigenvalues --   -0.53099  -0.53026  -0.52929  -0.52793  -0.52536
 Alpha  occ. eigenvalues --   -0.52505  -0.52307  -0.52070  -0.51817  -0.51779
 Alpha  occ. eigenvalues --   -0.51541  -0.51359  -0.51092  -0.50726  -0.50343
 Alpha  occ. eigenvalues --   -0.50152  -0.50066  -0.49854  -0.49753  -0.49693
 Alpha  occ. eigenvalues --   -0.49392  -0.49363  -0.49280  -0.49080  -0.48984
 Alpha  occ. eigenvalues --   -0.48778  -0.48608  -0.48585  -0.48443  -0.48272
 Alpha  occ. eigenvalues --   -0.48213  -0.47859  -0.47474  -0.47456  -0.46993
 Alpha  occ. eigenvalues --   -0.46952  -0.46756  -0.46595  -0.46519  -0.46434
 Alpha  occ. eigenvalues --   -0.46316  -0.46153  -0.46002  -0.45979  -0.45720
 Alpha  occ. eigenvalues --   -0.45317  -0.45100  -0.44754  -0.44665  -0.44405
 Alpha  occ. eigenvalues --   -0.44356  -0.44296  -0.44254  -0.44189  -0.44005
 Alpha  occ. eigenvalues --   -0.43969  -0.43816  -0.43679  -0.43554  -0.43456
 Alpha  occ. eigenvalues --   -0.43271  -0.43190  -0.42909  -0.42834  -0.42791
 Alpha  occ. eigenvalues --   -0.42758  -0.42444  -0.42141  -0.41871  -0.41862
 Alpha  occ. eigenvalues --   -0.41721  -0.41556  -0.41348  -0.41307  -0.41044
 Alpha  occ. eigenvalues --   -0.40983  -0.40865  -0.40685  -0.40607  -0.40582
 Alpha  occ. eigenvalues --   -0.40466  -0.40386  -0.40123  -0.39505  -0.39329
 Alpha  occ. eigenvalues --   -0.38595  -0.38244  -0.37971  -0.37552  -0.37467
 Alpha  occ. eigenvalues --   -0.37453  -0.37155  -0.37082  -0.36917  -0.36683
 Alpha  occ. eigenvalues --   -0.36361  -0.36112  -0.34458  -0.34136  -0.34006
 Alpha  occ. eigenvalues --   -0.33771  -0.33359  -0.33056  -0.31482  -0.31204
 Alpha  occ. eigenvalues --   -0.31145  -0.30853  -0.30211  -0.29849  -0.29620
 Alpha  occ. eigenvalues --   -0.29495  -0.29202  -0.29093  -0.24254  -0.23915
 Alpha  occ. eigenvalues --   -0.21295  -0.20995
 Alpha virt. eigenvalues --   -0.08943  -0.08669  -0.01914  -0.01564  -0.00226
 Alpha virt. eigenvalues --    0.00098   0.02033   0.02318   0.02818   0.03327
 Alpha virt. eigenvalues --    0.04526   0.04848   0.04866   0.05255   0.05942

 Mulliken charges:
               1
     1  Mg   0.836704
     2  C   -0.003739
     3  C   -0.094786
     4  C   -0.045368
     5  C   -0.063404
     6  N   -0.256853
     7  C   -0.052928
     8  C   -0.013790
     9  C   -0.086859
    10  C    0.045842
    11  C    0.104727
    12  C    0.053629
    13  C   -0.071546
    14  H    0.034918
    15  N   -0.433293
    16  C    0.167844
    17  C   -0.177641
    18  C   -0.004140
    19  C    0.148285
    20  C    0.110189
    21  C    0.012101
    22  O   -0.248469
    23  C    0.062687
    24  N   -0.341204
    25  C    0.041300
    26  C   -0.028365
    27  C   -0.024128
    28  C    0.074984
    29  C    0.076008
    30  C    0.034863
    31  C   -0.004383
    32  N   -0.310507
    33  C    0.080294
    34  C   -0.169458
    35  C    0.008406
    36  C    0.082618
    37  C    0.127297
    38  C    0.045949
    39  O   -0.188301
    40  C   -0.005219
    41  C    0.213145
    42  O   -0.258449
    43  O   -0.304400
    44  C    0.157786
    45  H   -0.017421
    46  H   -0.015969
    47  H   -0.040842
    48  H    0.001232
    49  H   -0.004309
    50  H    0.025673
    51  H    0.016821
    52  H    0.016912
    53  H    0.010089
    54  H    0.042952
    55  H    0.018723
    56  H    0.017991
    57  H    0.005792
    58  H    0.027418
    59  H    0.038811
    60  H    0.037566
    61  H    0.036564
    62  H    0.030358
    63  H    0.017657
    64  H    0.009631
    65  H    0.023875
    66  H    0.012358
    67  H    0.004966
    68  H    0.007096
    69  H    0.004644
    70  H    0.010449
    71  H    0.019540
    72  H    0.027394
    73  H    0.047603
    74  H    0.009631
    75  H    0.046296
    76  H    0.035498
    77  H    0.043509
    78  H    0.046256
    79  H    0.052842
    80  Mg   0.837753
    81  C   -0.016887
    82  C   -0.087750
    83  C   -0.045402
    84  C   -0.064902
    85  N   -0.254559
    86  C   -0.049859
    87  C   -0.015118
    88  C   -0.090389
    89  C    0.045497
    90  C    0.114135
    91  C    0.062604
    92  C   -0.077587
    93  H    0.034172
    94  N   -0.423638
    95  C    0.162696
    96  C   -0.173713
    97  C   -0.007813
    98  C    0.152342
    99  C    0.099028
   100  C    0.015654
   101  O   -0.253063
   102  C    0.060999
   103  N   -0.350003
   104  C    0.037650
   105  C   -0.019861
   106  C   -0.034748
   107  C    0.088800
   108  C    0.073619
   109  C    0.034813
   110  C   -0.007624
   111  N   -0.324030
   112  C    0.078254
   113  C   -0.163351
   114  C    0.002176
   115  C    0.096038
   116  C    0.131534
   117  C    0.042195
   118  O   -0.188330
   119  C    0.000954
   120  C    0.211211
   121  O   -0.251243
   122  O   -0.305544
   123  C    0.152151
   124  H   -0.017957
   125  H   -0.015630
   126  H   -0.040756
   127  H   -0.000695
   128  H   -0.004534
   129  H    0.022214
   130  H    0.015596
   131  H    0.017113
   132  H    0.013626
   133  H    0.037441
   134  H    0.020939
   135  H    0.019328
   136  H    0.009674
   137  H    0.028072
   138  H    0.038288
   139  H    0.038478
   140  H    0.037682
   141  H    0.032654
   142  H    0.014222
   143  H    0.012322
   144  H    0.024788
   145  H    0.012116
   146  H    0.005574
   147  H    0.006025
   148  H    0.003483
   149  H    0.010859
   150  H    0.017644
   151  H    0.030178
   152  H    0.045689
   153  H    0.008285
   154  H    0.046870
   155  H    0.035102
   156  H    0.043742
   157  H    0.049397
   158  H    0.053356
 Sum of Mulliken charges =  -0.00000

 Dipole moment (field-independent basis, Debye):
    X=              6.2862    Y=              2.1573    Z=              3.7331  Tot=              7.6227
 Quadrupole moment (field-independent basis, Debye-Ang):
   XX=           -559.3769   YY=           -484.9406   ZZ=           -502.6334
   XY=             17.3484   XZ=             34.4730   YZ=             50.8807

 Normal termination of Gaussian 16 at Sat Sep 11 17:08:05 2021.
