 Gaussian 16, Revision A.03,
 Gaussian 16:  ES64L-G16RevA.03 25-Dec-2016

 -----------------------------------
 #p cam-b3lyp/Def2SVP td=(nstates=5)
 -----------------------------------

 --------------------------------
 TDDFT excited states in gaussian
 --------------------------------
 Symbolic Z-matrix:
 Charge =  0 Multiplicity = 1

                         Standard orientation:
 ---------------------------------------------------------------------
 Center     Atomic      Atomic             Coordinates (Angstroms)
 Number     Number       Type             X           Y           Z
 ---------------------------------------------------------------------
      1         12           0        6.813447    0.434798    0.914817
      2          6           0        7.237029   -2.509238   -1.076525
      3          6           0        8.022608    2.218141   -1.731062
      4          6           0        6.877163    2.983157    2.801196
      5          6           0        6.729149   -1.646168    3.709122
      6          7           0        7.506444   -0.180642   -1.095564
      7          6           0        7.561738   -1.333005   -1.755999
      8          6           0        7.924892   -1.165304   -3.261777
      9          6           0        8.682629    0.235304   -3.183500
     10          6           0        8.006512    0.808682   -1.950607
     11          6           0       10.177191    0.104903   -2.908212
     12          6           0        6.654917   -1.079423   -4.173653
     13          6           0        6.915474   -1.242945   -5.673894
     14          1           0        5.924852   -1.933830   -6.485494
     15          7           0        6.898955    2.357378    0.468474
     16          6           0        7.409451    2.904678   -0.660748
     17          6           0        7.240762    4.366753   -0.517353
     18          6           0        6.764134    4.636127    0.867695
     19          6           0        6.853903    3.321620    1.450268
     20          6           0        7.475737    5.335700   -1.635243
     21          6           0        6.311179    5.882669    1.559863
     22          8           0        6.160432    5.939948    2.828157
     23          6           0        6.131353    7.075893    0.713151
     24          7           0        7.024526    0.669136    2.978350
     25          6           0        6.958844    1.878550    3.545789
     26          6           0        6.851717    1.776257    5.038437
     27          6           0        6.612151    0.230537    5.359547
     28          6           0        6.710532   -0.327872    3.918447
     29          6           0        8.064625    2.280445    5.832579
     30          6           0        5.364247   -0.126759    6.205416
     31          6           0        4.108039    0.168255    5.416743
     32          7           0        6.777063   -1.705543    1.273512
     33          6           0        6.765752   -2.351796    2.518062
     34          6           0        6.852906   -3.799763    2.253746
     35          6           0        6.926045   -3.894990    0.865428
     36          6           0        6.913506   -2.588043    0.299721
     37          6           0        6.915253   -4.824461    3.238906
     38          6           0        7.036699   -4.795769   -0.270446
     39          8           0        6.996520   -6.018504   -0.414653
     40          6           0        7.365221   -3.930287   -1.566148
     41          6           0        6.438910   -4.382754   -2.661835
     42          8           0        5.209787   -4.181221   -2.584324
     43          8           0        7.161882   -4.763470   -3.726216
     44          6           0        6.302350   -5.196419   -4.860198
     45          1           0        8.605346    2.850484   -2.403743
     46          1           0        6.788587    3.830171    3.484687
     47          1           0        6.622989   -2.360470    4.527630
     48          1           0        8.595078   -1.929655   -3.655532
     49          1           0        8.476379    0.858742   -4.053275
     50          1           0       10.452350   -0.925308   -2.682660
     51          1           0       10.372164    0.747725   -2.049575
     52          1           0       10.760232    0.519143   -3.731162
     53          1           0        6.272386   -0.058837   -4.161945
     54          1           0        5.903137   -1.803347   -3.857288
     55          1           0        7.911651   -1.643399   -5.864097
     56          1           0        6.930604   -0.252070   -6.127917
     57          1           0        7.977193    4.861156   -2.477796
     58          1           0        8.192212    6.072512   -1.272641
     59          1           0        6.557976    5.836368   -1.944077
     60          1           0        7.074474    7.312901    0.220304
     61          1           0        5.719161    7.846683    1.363405
     62          1           0        5.421080    6.841950   -0.080406
     63          1           0        6.006212    2.353553    5.410292
     64          1           0        7.443213   -0.205527    5.914396
     65          1           0        7.821785    3.060522    6.554530
     66          1           0        8.813634    2.625956    5.120611
     67          1           0        8.614655    1.506532    6.367315
     68          1           0        5.328709    0.485292    7.106014
     69          1           0        5.338073   -1.172041    6.513558
     70          1           0        3.956211    1.233024    5.590085
     71          1           0        3.270683   -0.413553    5.803455
     72          1           0        4.268316    0.031858    4.347074
     73          1           0        6.247502   -5.615824    2.898581
     74          1           0        6.619103   -4.450342    4.218668
     75          1           0        7.972726   -5.084327    3.193323
     76          1           0        8.410480   -4.116566   -1.810803
     77          1           0        6.610295   -6.206999   -5.128772
     78          1           0        6.384027   -4.422796   -5.623901
     79          1           0        5.247949   -5.356344   -4.632162
     80         12           0       -6.325378    0.523015   -0.647824
     81          6           0       -8.841798   -1.688671    0.638680
     82          6           0       -8.773691    2.874800   -0.978619
     83          6           0       -4.234811    2.337848   -2.198094
     84          6           0       -4.371958   -2.292706   -1.281526
     85          7           0       -8.489676    0.479769   -0.193726
     86          6           0       -9.322990   -0.394713    0.349592
     87          6           0      -10.731438    0.173079    0.671228
     88          6           0      -10.750468    1.381981   -0.385685
     89          6           0       -9.247417    1.624669   -0.506539
     90          6           0      -11.280545    0.978855   -1.751645
     91          6           0      -10.841985    0.697576    2.145915
     92          6           0      -12.268400    0.979668    2.622898
     93          1           0      -12.602347    0.707518    4.018209
     94          7           0       -6.343440    2.472618   -1.018361
     95          6           0       -7.424749    3.276578   -1.093813
     96          6           0       -6.907958    4.617454   -1.408660
     97          6           0       -5.448063    4.506775   -1.675437
     98          6           0       -5.285892    3.066787   -1.661047
     99          6           0       -7.761399    5.851299   -1.356825
    100          6           0       -4.377741    5.527509   -1.917748
    101          8           0       -3.222037    5.198446   -2.363740
    102          6           0       -4.752576    6.933321   -1.706399
    103          7           0       -4.649726    0.077795   -1.795143
    104          6           0       -3.885630    1.056241   -2.311597
    105          6           0       -2.591363    0.505214   -2.860810
    106          6           0       -2.538572   -1.021112   -2.386332
    107          6           0       -3.913841   -1.117383   -1.690073
    108          6           0       -2.431377    0.571612   -4.379489
    109          6           0       -1.277833   -1.469747   -1.597710
    110          6           0       -1.240979   -0.784915   -0.250483
    111          7           0       -6.456338   -1.590021   -0.216557
    112          6           0       -5.541305   -2.596368   -0.596106
    113          6           0       -6.117303   -3.889894   -0.174872
    114          6           0       -7.347855   -3.545627    0.404525
    115          6           0       -7.535330   -2.138919    0.330222
    116          6           0       -5.532784   -5.169975   -0.388990
    117          6           0       -8.535669   -4.053412    1.052561
    118          8           0       -8.898015   -5.155547    1.462119
    119          6           0       -9.612879   -2.886564    1.119429
    120          6           0      -10.169007   -2.847309    2.516466
    121          8           0       -9.442318   -2.539531    3.477609
    122          8           0      -11.508132   -2.965912    2.461141
    123          6           0      -12.106778   -2.921442    3.821830
    124          1           0       -9.501427    3.604387   -1.334985
    125          1           0       -3.432342    2.928063   -2.646627
    126          1           0       -3.780098   -3.207564   -1.355148
    127          1           0      -11.551388   -0.506829    0.473259
    128          1           0      -11.246324    2.257753    0.024818
    129          1           0      -11.446909   -0.085864   -1.821080
    130          1           0      -10.527610    1.291347   -2.463320
    131          1           0      -12.179424    1.553862   -1.991889
    132          1           0      -10.422664    1.710587    2.198030
    133          1           0      -10.359790    0.023727    2.827124
    134          1           0      -13.020445    0.541829    1.955310
    135          1           0      -12.448711    2.055605    2.560684
    136          1           0       -8.827529    5.600617   -1.294059
    137          1           0       -7.656931    6.353262   -2.324805
    138          1           0       -7.457312    6.540900   -0.566473
    139          1           0       -5.587813    7.185846   -2.355311
    140          1           0       -3.832309    7.504743   -1.842245
    141          1           0       -5.107898    7.049609   -0.676423
    142          1           0       -1.740248    1.031628   -2.446562
    143          1           0       -2.569177   -1.714376   -3.239718
    144          1           0       -1.526651    1.122244   -4.699400
    145          1           0       -3.320306    1.025662   -4.796826
    146          1           0       -2.406070   -0.392878   -4.883793
    147          1           0       -0.371691   -1.163731   -2.126322
    148          1           0       -1.218739   -2.543205   -1.452120
    149          1           0       -0.796124    0.187918   -0.480260
    150          1           0       -0.623483   -1.346258    0.447826
    151          1           0       -2.254162   -0.603292    0.126527
    152          1           0       -5.652494   -5.724898    0.532003
    153          1           0       -4.485139   -5.086593   -0.670507
    154          1           0       -6.152046   -5.531588   -1.214228
    155          1           0      -10.382143   -3.108024    0.378645
    156          1           0      -12.703826   -3.831223    3.938085
    157          1           0      -12.643359   -1.955859    3.880728
    158          1           0      -11.434339   -3.000200    4.668049
 ---------------------------------------------------------------------

 SCF Done:  E(RCAM-B3LYP) =  -4069.81210043     A.U. after   19 cycles

 Excitation energies and oscillator strengths:

 Excited State   1:      Singlet-A      1.6644 eV  744.92 nm  f=0.0107  <S**2>=0.000
     309 -> 315       -0.10796
     310 -> 316        0.13286
     311 -> 313       -0.43134
     312 -> 314        0.53427
 This state for optimization and/or second-order correction.
 Total Energy, E(TD-HF/TD-DFT) =  -4069.75093478
 Copying the excited state density for this state as the 1-particle RhoCI density.

 Excited State   2:      Singlet-A      1.6893 eV  733.92 nm  f=0.7314  <S**2>=0.000
     309 -> 315        0.13869
     310 -> 316        0.11122
     311 -> 313        0.53308
     312 -> 314        0.43043

 Excited State   3:      Singlet-A      2.1849 eV  567.46 nm  f=0.0934  <S**2>=0.000
     310 -> 314        0.63758
     312 -> 316       -0.27015

 Excited State   4:      Singlet-A      2.1938 eV  565.15 nm  f=0.1062  <S**2>=0.000
     309 -> 313        0.63544
     311 -> 315       -0.27668

 Excited State   5:      Singlet-A      2.6754 eV  463.42 nm  f=0.0000  <S**2>=0.000
     312 -> 313        0.70689

 The electronic state is 1-A.
 Alpha  occ. eigenvalues --  -46.87768 -46.87531 -19.26327 -19.26260 -19.19070
 Alpha  occ. eigenvalues --  -19.19065 -19.18747 -19.18628 -19.18155 -19.17938
 Alpha  occ. eigenvalues --  -14.42424 -14.42374 -14.41415 -14.41217 -14.39368
 Alpha  occ. eigenvalues --  -14.39228 -14.38562 -14.38470 -10.39123 -10.38993
 Alpha  occ. eigenvalues --  -10.35378 -10.35309 -10.34379 -10.34115 -10.31730
 Alpha  occ. eigenvalues --  -10.31677 -10.31386 -10.31184 -10.30915 -10.30884
 Alpha  occ. eigenvalues --  -10.30544 -10.30474 -10.30265 -10.30228 -10.30159
 Alpha  occ. eigenvalues --  -10.29988 -10.29887 -10.29744 -10.29594 -10.29312
 Alpha  occ. eigenvalues --  -10.29274 -10.29213 -10.28747 -10.28623 -10.28579
 Alpha  occ. eigenvalues --  -10.28566 -10.28337 -10.28289 -10.28105 -10.28042
 Alpha  occ. eigenvalues --  -10.27878 -10.27759 -10.27697 -10.27547 -10.27542
 Alpha  occ. eigenvalues --  -10.27444 -10.27415 -10.27396 -10.27381 -10.27377
 Alpha  occ. eigenvalues --  -10.27362 -10.27346 -10.27285 -10.27193 -10.27159
 Alpha  occ. eigenvalues --  -10.26943 -10.26730 -10.26605 -10.26357 -10.26310
 Alpha  occ. eigenvalues --  -10.26218 -10.26110 -10.25981 -10.25936 -10.25807
 Alpha  occ. eigenvalues --  -10.25779 -10.25773 -10.25678 -10.25383 -10.25255
 Alpha  occ. eigenvalues --  -10.24804 -10.24752 -10.24750 -10.24605 -10.24559
 Alpha  occ. eigenvalues --  -10.24413  -3.16511  -3.16281  -1.91393  -1.91163
 Alpha  occ. eigenvalues --   -1.90979  -1.90821  -1.90752  -1.90589  -1.16676
 Alpha  occ. eigenvalues --   -1.16552  -1.08619  -1.08546  -1.07146  -1.06883
 Alpha  occ. eigenvalues --   -1.06850  -1.06689  -1.04556  -1.04375  -1.03727
 Alpha  occ. eigenvalues --   -1.03533  -1.03201  -1.02901  -1.02379  -1.01979
 Alpha  occ. eigenvalues --   -0.91953  -0.91866  -0.89474  -0.89313  -0.89179
 Alpha  occ. eigenvalues --   -0.89044  -0.88241  -0.88029  -0.87839  -0.87655
 Alpha  occ. eigenvalues --   -0.87647  -0.87557  -0.87219  -0.87016  -0.84967
 Alpha  occ. eigenvalues --   -0.84891  -0.83890  -0.83678  -0.82901  -0.82816
 Alpha  occ. eigenvalues --   -0.82624  -0.82539  -0.81584  -0.81479  -0.80575
 Alpha  occ. eigenvalues --   -0.80326  -0.78752  -0.78516  -0.77186  -0.77017
 Alpha  occ. eigenvalues --   -0.76922  -0.76762  -0.75910  -0.75726  -0.74860
 Alpha  occ. eigenvalues --   -0.74649  -0.72741  -0.72561  -0.71645  -0.71455
 Alpha  occ. eigenvalues --   -0.69850  -0.69522  -0.68852  -0.68713  -0.67611
 Alpha  occ. eigenvalues --   -0.67480  -0.67202  -0.67103  -0.65276  -0.65160
 Alpha  occ. eigenvalues --   -0.64834  -0.64633  -0.64599  -0.64527  -0.64227
 Alpha  occ. eigenvalues --   -0.64015  -0.62302  -0.62155  -0.60392  -0.60217
 Alpha  occ. eigenvalues --   -0.59787  -0.59686  -0.58959  -0.58858  -0.58477
 Alpha  occ. eigenvalues --   -0.58292  -0.57585  -0.57441  -0.57274  -0.57090
 Alpha  occ. eigenvalues --   -0.56279  -0.56077  -0.55990  -0.55780  -0.55480
 Alpha  occ. eigenvalues --   -0.55349  -0.55312  -0.55088  -0.54509  -0.54324
 Alpha  occ. eigenvalues --   -0.53887  -0.53810  -0.53260  -0.53194  -0.53101
 Alpha  occ. eigenvalues --   -0.53027  -0.52904  -0.52782  -0.52707  -0.52579
 Alpha  occ. eigenvalues --   -0.52380  -0.52133  -0.51885  -0.51733  -0.51598
 Alpha  occ. eigenvalues --   -0.51561  -0.51173  -0.51057  -0.50501  -0.50375
 Alpha  occ. eigenvalues --   -0.49980  -0.49872  -0.49869  -0.49692  -0.49485
 Alpha  occ. eigenvalues --   -0.49386  -0.49189  -0.49094  -0.49080  -0.48988
 Alpha  occ. eigenvalues --   -0.48582  -0.48448  -0.48425  -0.48397  -0.48245
 Alpha  occ. eigenvalues --   -0.48222  -0.47662  -0.47471  -0.47260  -0.47000
 Alpha  occ. eigenvalues --   -0.46765  -0.46564  -0.46544  -0.46443  -0.46327
 Alpha  occ. eigenvalues --   -0.46137  -0.46129  -0.45944  -0.45812  -0.45695
 Alpha  occ. eigenvalues --   -0.45158  -0.45056  -0.44561  -0.44465  -0.44407
 Alpha  occ. eigenvalues --   -0.44343  -0.44106  -0.44066  -0.44017  -0.43988
 Alpha  occ. eigenvalues --   -0.43910  -0.43839  -0.43488  -0.43422  -0.43360
 Alpha  occ. eigenvalues --   -0.43265  -0.43000  -0.42820  -0.42771  -0.42715
 Alpha  occ. eigenvalues --   -0.42611  -0.42373  -0.41976  -0.41783  -0.41679
 Alpha  occ. eigenvalues --   -0.41541  -0.41517  -0.41324  -0.41114  -0.40868
 Alpha  occ. eigenvalues --   -0.40845  -0.40769  -0.40630  -0.40566  -0.40530
 Alpha  occ. eigenvalues --   -0.40294  -0.40234  -0.40138  -0.39380  -0.39183
 Alpha  occ. eigenvalues --   -0.38429  -0.38178  -0.37747  -0.37549  -0.37281
 Alpha  occ. eigenvalues --   -0.37251  -0.37106  -0.37077  -0.36730  -0.36656
 Alpha  occ. eigenvalues --   -0.36181  -0.36066  -0.34258  -0.34122  -0.33808
 Alpha  occ. eigenvalues --   -0.33760  -0.33160  -0.33045  -0.31279  -0.31186
 Alpha  occ. eigenvalues --   -0.31006  -0.30847  -0.30018  -0.29841  -0.29409
 Alpha  occ. eigenvalues --   -0.29292  -0.29211  -0.29086  -0.24053  -0.23906
 Alpha  occ. eigenvalues --   -0.21095  -0.20986
 Alpha virt. eigenvalues --   -0.08739  -0.08668  -0.01714  -0.01553  -0.00014
 Alpha virt. eigenvalues --    0.00074   0.02226   0.02334   0.03124   0.03363
 Alpha virt. eigenvalues --    0.04735   0.04847   0.05064   0.05264   0.06169

 Mulliken charges:
               1
     1  Mg   0.838181
     2  C   -0.003553
     3  C   -0.094062
     4  C   -0.045599
     5  C   -0.063828
     6  N   -0.256809
     7  C   -0.052824
     8  C   -0.013889
     9  C   -0.087006
    10  C    0.046218
    11  C    0.104782
    12  C    0.053453
    13  C   -0.071685
    14  H    0.035354
    15  N   -0.433244
    16  C    0.168530
    17  C   -0.176820
    18  C   -0.003610
    19  C    0.148820
    20  C    0.110067
    21  C    0.012823
    22  O   -0.249462
    23  C    0.062159
    24  N   -0.341130
    25  C    0.041300
    26  C   -0.028233
    27  C   -0.023982
    28  C    0.074755
    29  C    0.076158
    30  C    0.035080
    31  C   -0.004562
    32  N   -0.310320
    33  C    0.080023
    34  C   -0.169884
    35  C    0.008195
    36  C    0.082471
    37  C    0.127372
    38  C    0.045661
    39  O   -0.188719
    40  C   -0.005161
    41  C    0.213131
    42  O   -0.258407
    43  O   -0.304493
    44  C    0.157835
    45  H   -0.017511
    46  H   -0.016588
    47  H   -0.041312
    48  H    0.000896
    49  H   -0.003957
    50  H    0.025464
    51  H    0.016585
    52  H    0.016710
    53  H    0.011240
    54  H    0.043109
    55  H    0.018121
    56  H    0.018294
    57  H    0.005775
    58  H    0.026819
    59  H    0.040562
    60  H    0.037055
    61  H    0.035853
    62  H    0.032711
    63  H    0.016873
    64  H    0.009457
    65  H    0.023334
    66  H    0.012447
    67  H    0.004779
    68  H    0.006542
    69  H    0.004831
    70  H    0.009105
    71  H    0.018677
    72  H    0.028497
    73  H    0.047370
    74  H    0.009353
    75  H    0.046014
    76  H    0.035253
    77  H    0.043178
    78  H    0.046476
    79  H    0.052890
    80  Mg   0.837753
    81  C   -0.017098
    82  C   -0.088093
    83  C   -0.045567
    84  C   -0.064760
    85  N   -0.254564
    86  C   -0.049854
    87  C   -0.015073
    88  C   -0.090482
    89  C    0.045681
    90  C    0.114485
    91  C    0.062575
    92  C   -0.077753
    93  H    0.034658
    94  N   -0.423372
    95  C    0.162789
    96  C   -0.174950
    97  C   -0.008146
    98  C    0.152121
    99  C    0.099477
   100  C    0.015437
   101  O   -0.253933
   102  C    0.061340
   103  N   -0.350193
   104  C    0.037587
   105  C   -0.019621
   106  C   -0.035654
   107  C    0.089031
   108  C    0.074146
   109  C    0.034836
   110  C   -0.008174
   111  N   -0.324202
   112  C    0.078659
   113  C   -0.162670
   114  C    0.002140
   115  C    0.096403
   116  C    0.131217
   117  C    0.042463
   118  O   -0.187893
   119  C    0.000904
   120  C    0.211227
   121  O   -0.251014
   122  O   -0.305676
   123  C    0.152085
   124  H   -0.020115
   125  H   -0.016103
   126  H   -0.038840
   127  H   -0.000815
   128  H   -0.004581
   129  H    0.022347
   130  H    0.014359
   131  H    0.015937
   132  H    0.013912
   133  H    0.037688
   134  H    0.020673
   135  H    0.019450
   136  H    0.008557
   137  H    0.025616
   138  H    0.039474
   139  H    0.038011
   140  H    0.035564
   141  H    0.034054
   142  H    0.014218
   143  H    0.012999
   144  H    0.024150
   145  H    0.010815
   146  H    0.005943
   147  H    0.008807
   148  H    0.006745
   149  H    0.009616
   150  H    0.020214
   151  H    0.028502
   152  H    0.046177
   153  H    0.010127
   154  H    0.046761
   155  H    0.034806
   156  H    0.043779
   157  H    0.049357
   158  H    0.053532
 Sum of Mulliken charges =  -0.00000

 Dipole moment (field-independent basis, Debye):
    X=              0.3255    Y=              6.7995    Z=             -3.8267  Tot=              7.8092
 Quadrupole moment (field-independent basis, Debye-Ang):
   XX=           -431.8968   YY=           -542.0569   ZZ=           -482.6519
   XY=            -27.6402   XZ=             -9.1721   YZ=             -4.0281

 Normal termination of Gaussian 16 at Sat Sep 11 04:04:56 2021.
