 Gaussian 16, Revision A.03,
 Gaussian 16:  ES64L-G16RevA.03 25-Dec-2016

 -----------------------------------
 #p cam-b3lyp/Def2SVP td=(nstates=5)
 -----------------------------------

 --------------------------------
 TDDFT excited states in gaussian
 --------------------------------
 Symbolic Z-matrix:
 Charge =  0 Multiplicity = 1

                         Standard orientation:
 ---------------------------------------------------------------------
 Center     Atomic      Atomic             Coordinates (Angstroms)
 Number     Number       Type             X           Y           Z
 ---------------------------------------------------------------------
      1         12           0       -5.103729   -0.997133    0.269579
      2          6           0       -5.459808    2.561246    0.422417
      3          6           0       -6.106015   -0.808400   -2.986626
      4          6           0       -5.235244   -4.165484    0.239891
      5          6           0       -5.239274   -1.012363    3.751971
      6          7           0       -5.680088    0.716775   -1.007517
      7          6           0       -5.716760    2.035747   -0.845839
      8          6           0       -5.980123    2.813411   -2.169943
      9          6           0       -6.712678    1.663182   -2.995977
     10          6           0       -6.104665    0.449935   -2.314598
     11          6           0       -8.224040    1.634935   -2.792290
     12          6           0       -4.653346    3.264262   -2.868604
     13          6           0       -4.821423    4.301182   -3.983011
     14          1           0       -3.795530    5.319014   -4.153033
     15          7           0       -5.121642   -2.264531   -1.245753
     16          6           0       -5.548205   -2.013160   -2.506762
     17          6           0       -5.359277   -3.271905   -3.259458
     18          6           0       -4.966147   -4.329046   -2.286835
     19          6           0       -5.119410   -3.625754   -1.038929
     20          6           0       -5.503080   -3.370490   -4.747191
     21          6           0       -4.532799   -5.751072   -2.454713
     22          8           0       -4.461725   -6.561422   -1.468379
     23          6           0       -4.275377   -6.200824   -3.834749
     24          7           0       -5.440554   -2.418443    1.760908
     25          6           0       -5.386455   -3.727439    1.491490
     26          6           0       -5.376389   -4.543912    2.749746
     27          6           0       -5.189152   -3.506035    3.948706
     28          6           0       -5.207193   -2.192438    3.128702
     29          6           0       -6.626759   -5.397129    3.003926
     30          6           0       -4.004975   -3.755394    4.916158
     31          6           0       -2.695504   -3.545399    4.189324
     32          7           0       -5.133694    0.498056    1.842651
     33          6           0       -5.214538    0.267509    3.223588
     34          6           0       -5.314149    1.585767    3.876535
     35          6           0       -5.300940    2.496800    2.822168
     36          6           0       -5.225959    1.791121    1.587386
     37          6           0       -5.459715    1.815105    5.273191
     38          6           0       -5.357559    3.901201    2.450268
     39          8           0       -5.333166    4.964499    3.071795
     40          6           0       -5.585518    3.994114    0.876982
     41          6           0       -4.600916    4.993245    0.333288
     42          8           0       -3.375350    4.758676    0.351484
     43          8           0       -5.262459    5.952334   -0.332333
     44          6           0       -4.341660    6.960308   -0.922479
     45          1           0       -6.631909   -0.897466   -3.939224
     46          1           0       -5.173034   -5.254885    0.281983
     47          1           0       -5.199821   -0.934860    4.840038
     48          1           0       -6.639360    3.675551   -2.067256
     49          1           0       -6.439007    1.682259   -4.050711
     50          1           0       -8.533841    2.329271   -2.011366
     51          1           0       -8.460015    0.609875   -2.505828
     52          1           0       -8.745131    1.810451   -3.733797
     53          1           0       -4.251667    2.432863   -3.447820
     54          1           0       -3.938031    3.636716   -2.134487
     55          1           0       -5.811451    4.757335   -3.956987
     56          1           0       -4.787562    3.781784   -4.940758
     57          1           0       -5.959587   -2.474379   -5.165679
     58          1           0       -6.226003   -4.161550   -4.945473
     59          1           0       -4.557582   -3.605521   -5.236195
     60          1           0       -5.180302   -6.073853   -4.429340
     61          1           0       -3.889710   -7.216418   -3.753032
     62          1           0       -3.521069   -5.553023   -4.282323
     63          1           0       -4.544633   -5.247190    2.752919
     64          1           0       -6.062447   -3.472218    4.600539
     65          1           0       -6.414429   -6.459474    3.126574
     66          1           0       -7.321890   -5.229641    2.181715
     67          1           0       -7.225236   -5.087272    3.860215
     68          1           0       -4.014239   -4.786084    5.269056
     69          1           0       -4.019661   -3.105178    5.790946
     70          1           0       -2.533376   -4.504088    3.697936
     71          1           0       -1.896381   -3.330670    4.899609
     72          1           0       -2.790301   -2.790800    3.408248
     73          1           0       -4.787930    2.637477    5.518913
     74          1           0       -5.218808    0.921428    5.848437
     75          1           0       -6.517225    2.073392    5.326272
     76          1           0       -6.616710    4.312785    0.727937
     77          1           0       -4.652412    7.936250   -0.549377
     78          1           0       -4.358957    6.801945   -2.000917
     79          1           0       -3.307328    6.928215   -0.578292
     80         12           0        5.467807   -0.521882   -0.119103
     81          6           0        4.629971    2.960361    0.106977
     82          6           0        4.045040   -0.509576   -3.219135
     83          6           0        5.784927   -3.678531   -0.168326
     84          6           0        5.771546   -0.531600    3.352693
     85          7           0        4.497050    1.080165   -1.295255
     86          6           0        4.291345    2.378444   -1.132430
     87          6           0        3.763029    3.109373   -2.395831
     88          6           0        3.094989    1.852360   -3.139152
     89          6           0        3.950587    0.734754   -2.546209
     90          6           0        1.649676    1.612847   -2.735358
     91          6           0        4.919640    3.734824   -3.252035
     92          6           0        4.461816    4.722354   -4.327635
     93          1           0        5.309332    5.874947   -4.620409
     94          7           0        5.439226   -1.791855   -1.643875
     95          6           0        4.833294   -1.617263   -2.837040
     96          6           0        5.089367   -2.847401   -3.602124
     97          6           0        5.755546   -3.828729   -2.703282
     98          6           0        5.664996   -3.130028   -1.436907
     99          6           0        4.781560   -2.974187   -5.065891
    100          6           0        6.361004   -5.178880   -2.941426
    101          8           0        6.671468   -5.958043   -1.972232
    102          6           0        6.493344   -5.599907   -4.343825
    103          7           0        5.531648   -1.956149    1.384601
    104          6           0        5.730619   -3.253846    1.094216
    105          6           0        6.014062   -4.054928    2.342543
    106          6           0        6.203892   -2.978473    3.509931
    107          6           0        5.895654   -1.688997    2.717707
    108          6           0        4.935568   -5.059557    2.747453
    109          6           0        7.525283   -3.048127    4.323413
    110          6           0        8.694608   -2.673400    3.441569
    111          7           0        5.430175    0.963238    1.449670
    112          6           0        5.551455    0.739931    2.838738
    113          6           0        5.348927    2.041164    3.508208
    114          6           0        5.099068    2.934073    2.455220
    115          6           0        5.122793    2.234655    1.218399
    116          6           0        5.359738    2.264006    4.914031
    117          6           0        4.810110    4.307294    2.109563
    118          8           0        4.755359    5.366825    2.732556
    119          6           0        4.368314    4.362098    0.583719
    120          6           0        5.125136    5.480315   -0.079100
    121          8           0        6.361062    5.420237   -0.203577
    122          8           0        4.249256    6.329063   -0.647270
    123          6           0        4.952523    7.449465   -1.326922
    124          1           0        3.425024   -0.670619   -4.101473
    125          1           0        6.006198   -4.747868   -0.135980
    126          1           0        5.947353   -0.432828    4.426007
    127          1           0        3.014043    3.867803   -2.201973
    128          1           0        3.235164    1.909716   -4.215453
    129          1           0        1.345754    2.257880   -1.924368
    130          1           0        1.596702    0.574995   -2.433524
    131          1           0        0.994419    1.707323   -3.606022
    132          1           0        5.357030    2.954158   -3.887636
    133          1           0        5.651308    4.201100   -2.621255
    134          1           0        3.421431    5.037475   -4.181913
    135          1           0        4.453264    4.206793   -5.291040
    136          1           0        4.145814   -2.151584   -5.415974
    137          1           0        4.159709   -3.867964   -5.185625
    138          1           0        5.679800   -3.084131   -5.677227
    139          1           0        5.513014   -5.601781   -4.814359
    140          1           0        7.027826   -6.551388   -4.314090
    141          1           0        7.096826   -4.856675   -4.876770
    142          1           0        6.929446   -4.624195    2.237203
    143          1           0        5.422628   -3.069222    4.278837
    144          1           0        5.314028   -6.095727    2.832306
    145          1           0        4.131313   -5.006386    2.025731
    146          1           0        4.423026   -4.835530    3.681440
    147          1           0        7.707649   -4.070761    4.662730
    148          1           0        7.525378   -2.412305    5.202450
    149          1           0        8.921949   -3.609220    2.922301
    150          1           0        9.537754   -2.341357    4.043966
    151          1           0        8.396617   -1.939771    2.683506
    152          1           0        5.928248    3.169150    5.081421
    153          1           0        5.790181    1.418920    5.447235
    154          1           0        4.287861    2.366114    5.103570
    155          1           0        3.290450    4.527152    0.560476
    156          1           0        4.552609    8.378325   -0.908627
    157          1           0        4.805980    7.280784   -2.410353
    158          1           0        6.011833    7.568369   -1.131512
 ---------------------------------------------------------------------

 SCF Done:  E(RCAM-B3LYP) =  -4069.81142508     A.U. after   19 cycles

 Excitation energies and oscillator strengths:

 Excited State   1:      Singlet-A      1.6565 eV  748.47 nm  f=0.0022  <S**2>=0.000
     309 -> 315       -0.11414
     310 -> 316        0.12459
     311 -> 313       -0.46203
     312 -> 314        0.50867
 This state for optimization and/or second-order correction.
 Total Energy, E(TD-HF/TD-DFT) =  -4069.75054987
 Copying the excited state density for this state as the 1-particle RhoCI density.

 Excited State   2:      Singlet-A      1.6969 eV  730.65 nm  f=0.7175  <S**2>=0.000
     309 -> 315        0.13337
     310 -> 316        0.12011
     311 -> 313        0.50672
     312 -> 314        0.46034

 Excited State   3:      Singlet-A      2.1826 eV  568.06 nm  f=0.0251  <S**2>=0.000
     309 -> 313       -0.27019
     310 -> 314        0.58469
     311 -> 315        0.11269
     312 -> 316       -0.24527

 Excited State   4:      Singlet-A      2.1946 eV  564.95 nm  f=0.1572  <S**2>=0.000
     309 -> 313        0.58093
     310 -> 314        0.26702
     311 -> 315       -0.25484
     312 -> 316       -0.11798

 Excited State   5:      Singlet-A      2.4691 eV  502.14 nm  f=0.0000  <S**2>=0.000
     312 -> 313        0.70706

 The electronic state is 1-A.
 Alpha  occ. eigenvalues --  -46.87911 -46.87476 -19.26377 -19.26121 -19.19118
 Alpha  occ. eigenvalues --  -19.18942 -19.18921 -19.18569 -19.18246 -19.17810
 Alpha  occ. eigenvalues --  -14.42571 -14.42311 -14.41558 -14.41178 -14.39517
 Alpha  occ. eigenvalues --  -14.39172 -14.38694 -14.38407 -10.39178 -10.38864
 Alpha  occ. eigenvalues --  -10.35556 -10.35251 -10.34468 -10.33982 -10.31766
 Alpha  occ. eigenvalues --  -10.31563 -10.31522 -10.31109 -10.31039 -10.30836
 Alpha  occ. eigenvalues --  -10.30678 -10.30609 -10.30317 -10.30210 -10.30168
 Alpha  occ. eigenvalues --  -10.30015 -10.29983 -10.29735 -10.29709 -10.29367
 Alpha  occ. eigenvalues --  -10.29268 -10.29220 -10.28906 -10.28765 -10.28531
 Alpha  occ. eigenvalues --  -10.28509 -10.28477 -10.28260 -10.28211 -10.27935
 Alpha  occ. eigenvalues --  -10.27895 -10.27847 -10.27811 -10.27695 -10.27630
 Alpha  occ. eigenvalues --  -10.27589 -10.27532 -10.27517 -10.27494 -10.27377
 Alpha  occ. eigenvalues --  -10.27366 -10.27292 -10.27287 -10.27253 -10.27226
 Alpha  occ. eigenvalues --  -10.26919 -10.26778 -10.26538 -10.26533 -10.26357
 Alpha  occ. eigenvalues --  -10.26312 -10.26264 -10.26124 -10.26016 -10.25901
 Alpha  occ. eigenvalues --  -10.25761 -10.25755 -10.25644 -10.25508 -10.25254
 Alpha  occ. eigenvalues --  -10.24931 -10.24891 -10.24769 -10.24673 -10.24613
 Alpha  occ. eigenvalues --  -10.24507  -3.16654  -3.16226  -1.91536  -1.91122
 Alpha  occ. eigenvalues --   -1.91108  -1.90964  -1.90697  -1.90534  -1.16727
 Alpha  occ. eigenvalues --   -1.16417  -1.08701  -1.08410  -1.07321  -1.06824
 Alpha  occ. eigenvalues --   -1.06738  -1.06724  -1.04701  -1.04305  -1.03871
 Alpha  occ. eigenvalues --   -1.03479  -1.03342  -1.02857  -1.02519  -1.01925
 Alpha  occ. eigenvalues --   -0.92078  -0.91776  -0.89617  -0.89336  -0.89327
 Alpha  occ. eigenvalues --   -0.88952  -0.88382  -0.88061  -0.87962  -0.87797
 Alpha  occ. eigenvalues --   -0.87598  -0.87506  -0.87394  -0.86973  -0.85124
 Alpha  occ. eigenvalues --   -0.84817  -0.84026  -0.83719  -0.83082  -0.82797
 Alpha  occ. eigenvalues --   -0.82776  -0.82475  -0.81688  -0.81398  -0.80707
 Alpha  occ. eigenvalues --   -0.80257  -0.78910  -0.78470  -0.77336  -0.77056
 Alpha  occ. eigenvalues --   -0.76972  -0.76715  -0.76038  -0.75638  -0.74992
 Alpha  occ. eigenvalues --   -0.74635  -0.72878  -0.72515  -0.71780  -0.71390
 Alpha  occ. eigenvalues --   -0.69997  -0.69612  -0.69006  -0.68647  -0.67750
 Alpha  occ. eigenvalues --   -0.67422  -0.67376  -0.67042  -0.65422  -0.65078
 Alpha  occ. eigenvalues --   -0.64960  -0.64734  -0.64586  -0.64467  -0.64368
 Alpha  occ. eigenvalues --   -0.64038  -0.62394  -0.62078  -0.60554  -0.60182
 Alpha  occ. eigenvalues --   -0.59937  -0.59601  -0.59093  -0.58807  -0.58608
 Alpha  occ. eigenvalues --   -0.58236  -0.57680  -0.57408  -0.57325  -0.57058
 Alpha  occ. eigenvalues --   -0.56416  -0.56088  -0.56025  -0.55692  -0.55631
 Alpha  occ. eigenvalues --   -0.55430  -0.55279  -0.55070  -0.54616  -0.54307
 Alpha  occ. eigenvalues --   -0.54043  -0.53721  -0.53407  -0.53349  -0.53058
 Alpha  occ. eigenvalues --   -0.53023  -0.52962  -0.52888  -0.52719  -0.52526
 Alpha  occ. eigenvalues --   -0.52519  -0.52258  -0.51993  -0.51758  -0.51680
 Alpha  occ. eigenvalues --   -0.51485  -0.51297  -0.51009  -0.50703  -0.50349
 Alpha  occ. eigenvalues --   -0.50135  -0.50037  -0.49811  -0.49711  -0.49641
 Alpha  occ. eigenvalues --   -0.49323  -0.49317  -0.49219  -0.49008  -0.48894
 Alpha  occ. eigenvalues --   -0.48696  -0.48564  -0.48540  -0.48363  -0.48214
 Alpha  occ. eigenvalues --   -0.48170  -0.47812  -0.47423  -0.47406  -0.46960
 Alpha  occ. eigenvalues --   -0.46907  -0.46698  -0.46536  -0.46463  -0.46377
 Alpha  occ. eigenvalues --   -0.46257  -0.46102  -0.45915  -0.45900  -0.45619
 Alpha  occ. eigenvalues --   -0.45295  -0.45042  -0.44677  -0.44630  -0.44321
 Alpha  occ. eigenvalues --   -0.44301  -0.44249  -0.44220  -0.44122  -0.43935
 Alpha  occ. eigenvalues --   -0.43919  -0.43760  -0.43591  -0.43508  -0.43362
 Alpha  occ. eigenvalues --   -0.43200  -0.43131  -0.42794  -0.42747  -0.42736
 Alpha  occ. eigenvalues --   -0.42694  -0.42399  -0.42117  -0.41808  -0.41800
 Alpha  occ. eigenvalues --   -0.41674  -0.41463  -0.41285  -0.41253  -0.41002
 Alpha  occ. eigenvalues --   -0.40949  -0.40799  -0.40671  -0.40572  -0.40532
 Alpha  occ. eigenvalues --   -0.40415  -0.40325  -0.40064  -0.39532  -0.39285
 Alpha  occ. eigenvalues --   -0.38576  -0.38192  -0.37914  -0.37491  -0.37425
 Alpha  occ. eigenvalues --   -0.37402  -0.37098  -0.37017  -0.36809  -0.36568
 Alpha  occ. eigenvalues --   -0.36297  -0.36037  -0.34395  -0.34066  -0.33871
 Alpha  occ. eigenvalues --   -0.33648  -0.33294  -0.32991  -0.31450  -0.31146
 Alpha  occ. eigenvalues --   -0.31127  -0.30785  -0.30105  -0.29710  -0.29559
 Alpha  occ. eigenvalues --   -0.29420  -0.29154  -0.29011  -0.24192  -0.23846
 Alpha  occ. eigenvalues --   -0.21238  -0.20934
 Alpha virt. eigenvalues --   -0.08883  -0.08607  -0.01860  -0.01505  -0.00172
 Alpha virt. eigenvalues --    0.00144   0.02110   0.02418   0.02965   0.03396
 Alpha virt. eigenvalues --    0.04582   0.04909   0.05000   0.05390   0.06000

 Mulliken charges:
               1
     1  Mg   0.838161
     2  C   -0.003331
     3  C   -0.094982
     4  C   -0.045582
     5  C   -0.063709
     6  N   -0.256691
     7  C   -0.052794
     8  C   -0.013780
     9  C   -0.086855
    10  C    0.045892
    11  C    0.104782
    12  C    0.053804
    13  C   -0.071424
    14  H    0.034918
    15  N   -0.433107
    16  C    0.168038
    17  C   -0.177756
    18  C   -0.004071
    19  C    0.148583
    20  C    0.110281
    21  C    0.012319
    22  O   -0.249100
    23  C    0.062666
    24  N   -0.341109
    25  C    0.041151
    26  C   -0.028248
    27  C   -0.024047
    28  C    0.074921
    29  C    0.076074
    30  C    0.035037
    31  C   -0.004479
    32  N   -0.310602
    33  C    0.080593
    34  C   -0.169158
    35  C    0.008781
    36  C    0.083009
    37  C    0.127138
    38  C    0.046603
    39  O   -0.187224
    40  C   -0.005518
    41  C    0.213339
    42  O   -0.257475
    43  O   -0.304772
    44  C    0.157300
    45  H   -0.017746
    46  H   -0.016549
    47  H   -0.041059
    48  H    0.001368
    49  H   -0.004686
    50  H    0.025754
    51  H    0.016713
    52  H    0.016673
    53  H    0.009663
    54  H    0.043544
    55  H    0.018818
    56  H    0.017327
    57  H    0.005538
    58  H    0.027130
    59  H    0.038237
    60  H    0.037383
    61  H    0.036065
    62  H    0.030360
    63  H    0.016784
    64  H    0.009720
    65  H    0.023451
    66  H    0.012555
    67  H    0.004927
    68  H    0.006555
    69  H    0.004908
    70  H    0.008987
    71  H    0.017916
    72  H    0.028990
    73  H    0.048534
    74  H    0.009272
    75  H    0.046251
    76  H    0.035361
    77  H    0.043777
    78  H    0.045602
    79  H    0.054284
    80  Mg   0.837858
    81  C   -0.016357
    82  C   -0.087929
    83  C   -0.045586
    84  C   -0.065133
    85  N   -0.254568
    86  C   -0.048803
    87  C   -0.015315
    88  C   -0.090865
    89  C    0.046028
    90  C    0.113731
    91  C    0.062613
    92  C   -0.077340
    93  H    0.034099
    94  N   -0.423410
    95  C    0.162809
    96  C   -0.175201
    97  C   -0.008071
    98  C    0.151938
    99  C    0.099733
   100  C    0.015346
   101  O   -0.253449
   102  C    0.061351
   103  N   -0.350031
   104  C    0.037411
   105  C   -0.019729
   106  C   -0.034755
   107  C    0.089155
   108  C    0.073760
   109  C    0.034784
   110  C   -0.007583
   111  N   -0.324357
   112  C    0.078947
   113  C   -0.162897
   114  C    0.003262
   115  C    0.096011
   116  C    0.131231
   117  C    0.043585
   118  O   -0.186752
   119  C    0.000195
   120  C    0.210817
   121  O   -0.251833
   122  O   -0.304599
   123  C    0.152348
   124  H   -0.020968
   125  H   -0.015914
   126  H   -0.040728
   127  H    0.001396
   128  H   -0.005787
   129  H    0.028343
   130  H    0.013533
   131  H    0.013987
   132  H    0.013359
   133  H    0.037620
   134  H    0.020853
   135  H    0.018670
   136  H    0.007807
   137  H    0.025049
   138  H    0.039173
   139  H    0.037734
   140  H    0.035987
   141  H    0.033583
   142  H    0.014041
   143  H    0.012098
   144  H    0.024766
   145  H    0.012200
   146  H    0.005090
   147  H    0.005882
   148  H    0.003487
   149  H    0.010768
   150  H    0.017634
   151  H    0.030312
   152  H    0.045890
   153  H    0.007830
   154  H    0.048459
   155  H    0.039698
   156  H    0.043946
   157  H    0.048724
   158  H    0.053051
 Sum of Mulliken charges =  -0.00000

 Dipole moment (field-independent basis, Debye):
    X=             -4.5738    Y=             -2.7873    Z=             -6.8733  Tot=              8.7138
 Quadrupole moment (field-independent basis, Debye-Ang):
   XX=           -517.8148   YY=           -554.8850   ZZ=           -447.8519
   XY=             -6.1158   XZ=             13.8951   YZ=            -44.5403

 Normal termination of Gaussian 16 at Fri Sep 10 22:48:23 2021.
