 Gaussian 16, Revision A.03,
 Gaussian 16:  ES64L-G16RevA.03 25-Dec-2016

 -----------------------------------
 #p cam-b3lyp/Def2SVP td=(nstates=5)
 -----------------------------------

 --------------------------------
 TDDFT excited states in gaussian
 --------------------------------
 Symbolic Z-matrix:
 Charge =  0 Multiplicity = 1

                         Standard orientation:
 ---------------------------------------------------------------------
 Center     Atomic      Atomic             Coordinates (Angstroms)
 Number     Number       Type             X           Y           Z
 ---------------------------------------------------------------------
      1         12           0        5.386190   -0.543880    0.850987
      2          6           0        5.840848    2.409880   -1.118989
      3          6           0        5.796456    1.415564    3.614196
      4          6           0        5.441601   -3.195568    2.589405
      5          6           0        6.139337   -2.388588   -2.008293
      6          7           0        5.762934    1.624609    1.088405
      7          6           0        5.856395    2.656553    0.255622
      8          6           0        5.896552    4.034557    0.981479
      9          6           0        6.445192    3.556017    2.399926
     10          6           0        5.942079    2.123343    2.384206
     11          6           0        7.967696    3.540974    2.490792
     12          6           0        4.476657    4.682833    1.105443
     13          6           0        4.466037    6.161644    1.503389
     14          1           0        3.448574    7.032614    0.934594
     15          7           0        5.106493   -0.811905    2.788197
     16          6           0        5.307030    0.100543    3.769273
     17          6           0        4.959842   -0.579583    5.035594
     18          6           0        4.723374   -2.017835    4.729640
     19          6           0        5.111619   -2.071849    3.343377
     20          6           0        4.834246    0.135254    6.345932
     21          6           0        4.236333   -3.164189    5.558371
     22          8           0        4.324488   -4.376291    5.161368
     23          6           0        3.727586   -2.834045    6.901957
     24          7           0        5.952310   -2.507990    0.427414
     25          6           0        5.822734   -3.475852    1.341437
     26          6           0        6.019197   -4.832277    0.731970
     27          6           0        6.071003   -4.603908   -0.847561
     28          6           0        5.971204   -3.058602   -0.865980
     29          6           0        7.276051   -5.591338    1.179358
     30          6           0        5.072910   -5.417796   -1.708847
     31          6           0        3.659802   -4.956827   -1.430043
     32          7           0        5.728208   -0.110204   -1.248059
     33          6           0        6.048655   -1.029358   -2.257585
     34          6           0        6.291502   -0.253058   -3.487402
     35          6           0        6.110499    1.073620   -3.101385
     36          6           0        5.801552    1.124712   -1.712057
     37          6           0        6.688389   -0.786892   -4.745153
     38          6           0        6.130418    2.461578   -3.533857
     39          8           0        6.240151    3.029472   -4.621492
     40          6           0        6.076529    3.389999   -2.241203
     41          6           0        5.032739    4.446034   -2.483282
     42          8           0        3.825210    4.143637   -2.571567
     43          8           0        5.585811    5.659715   -2.336199
     44          6           0        4.596710    6.752719   -2.534126
     45          1           0        6.142253    1.884817    4.537325
     46          1           0        5.364279   -4.143277    3.126348
     47          1           0        6.295963   -2.901755   -2.958862
     48          1           0        6.582071    4.759671    0.542506
     49          1           0        5.988552    4.109014    3.220533
     50          1           0        8.426587    3.738515    1.522124
     51          1           0        8.228633    2.541362    2.838903
     52          1           0        8.316479    4.227583    3.262605
     53          1           0        3.960327    4.255664    1.965089
     54          1           0        3.911750    4.554041    0.181529
     55          1           0        5.454528    6.609737    1.398471
     56          1           0        4.250914    6.226772    2.570010
     57          1           0        5.228251    1.149155    6.288400
     58          1           0        5.492983   -0.372600    7.050104
     59          1           0        3.811910    0.122395    6.724080
     60          1           0        4.514702   -2.342382    7.474029
     61          1           0        3.340711   -3.765294    7.314209
     62          1           0        2.919855   -2.108002    6.805101
     63          1           0        5.186253   -5.492449    0.970308
     64          1           0        7.046941   -4.852805   -1.265019
     65          1           0        7.065976   -6.570378    1.610697
     66          1           0        7.817120   -4.961199    1.884667
     67          1           0        8.024021   -5.736319    0.400296
     68          1           0        5.122523   -6.474801   -1.449569
     69          1           0        5.257232   -5.329964   -2.779623
     70          1           0        3.392017   -5.519551   -0.536475
     71          1           0        3.004782   -5.212767   -2.263502
     72          1           0        3.630329   -3.898597   -1.169721
     73          1           0        6.089087   -0.273730   -5.497130
     74          1           0        6.534454   -1.865035   -4.784066
     75          1           0        7.743795   -0.515123   -4.755895
     76          1           0        7.071359    3.817700   -2.120757
     77          1           0        4.990017    7.404066   -3.314697
     78          1           0        4.418249    7.190749   -1.551941
     79          1           0        3.639752    6.463725   -2.970077
     80         12           0       -5.059473   -0.752968   -0.791197
     81          6           0       -7.377877    1.522450    0.734104
     82          6           0       -3.678551    1.941596   -2.361846
     83          6           0       -3.299360   -2.771797   -2.492304
     84          6           0       -7.290283   -3.319393   -0.027848
     85          7           0       -5.552138    1.402689   -0.739464
     86          6           0       -6.414281    2.158378   -0.076154
     87          6           0       -6.182600    3.685493   -0.230491
     88          6           0       -5.402405    3.669702   -1.634032
     89          6           0       -4.807289    2.264703   -1.567073
     90          6           0       -6.327483    3.739720   -2.837633
     91          6           0       -5.288521    4.273397    0.917112
     92          6           0       -5.275841    5.801169    1.003853
     93          1           0       -5.194410    6.422787    2.322720
     94          7           0       -3.395214   -0.446752   -1.828035
     95          6           0       -2.978412    0.715214   -2.373368
     96          6           0       -1.707571    0.409775   -3.048519
     97          6           0       -1.491081   -1.061696   -2.997398
     98          6           0       -2.757994   -1.495439   -2.443426
     99          6           0       -0.797511    1.473798   -3.589881
    100          6           0       -0.339859   -1.935183   -3.394775
    101          8           0       -0.459914   -3.208160   -3.483935
    102          6           0        0.905967   -1.248870   -3.766763
    103          7           0       -5.355515   -2.721342   -1.391399
    104          6           0       -4.409179   -3.384140   -2.079196
    105          6           0       -4.725370   -4.858560   -2.159791
    106          6           0       -5.962111   -5.087351   -1.172012
    107          6           0       -6.214968   -3.626120   -0.740433
    108          6           0       -5.079443   -5.388005   -3.549286
    109          6           0       -5.790139   -6.165241   -0.066921
    110          6           0       -4.747860   -5.717958    0.932573
    111          7           0       -6.895356   -0.934816    0.333314
    112          6           0       -7.679703   -2.096634    0.503761
    113          6           0       -8.891328   -1.698446    1.249320
    114          6           0       -8.737537   -0.317300    1.442363
    115          6           0       -7.526010    0.118371    0.840790
    116          6           0       -9.965944   -2.559019    1.610892
    117          6           0       -9.329751    0.873017    2.009031
    118          8           0      -10.311789    1.103857    2.713345
    119          6           0       -8.537371    2.139358    1.465967
    120          6           0       -8.231528    3.033014    2.636587
    121          8           0       -7.462100    2.653940    3.537088
    122          8           0       -8.721754    4.262043    2.392597
    123          6           0       -8.433706    5.187584    3.520521
    124          1           0       -3.318054    2.682079   -3.076419
    125          1           0       -2.676716   -3.529968   -2.972914
    126          1           0       -7.986850   -4.078659    0.334059
    127          1           0       -7.087058    4.275963   -0.314481
    128          1           0       -4.613677    4.417232   -1.655929
    129          1           0       -7.366475    3.669160   -2.551851
    130          1           0       -6.051482    2.905828   -3.469686
    131          1           0       -6.119839    4.641506   -3.420715
    132          1           0       -4.233013    4.090004    0.678304
    133          1           0       -5.567006    3.859840    1.866868
    134          1           0       -6.082402    6.254177    0.414619
    135          1           0       -4.360890    6.167929    0.532291
    136          1           0       -1.298314    2.448957   -3.630520
    137          1           0       -0.602613    1.224638   -4.638596
    138          1           0        0.153924    1.525778   -3.056276
    139          1           0        0.713038   -0.576168   -4.599056
    140          1           0        1.637929   -2.041633   -3.932965
    141          1           0        1.226157   -0.624517   -2.925178
    142          1           0       -3.887351   -5.453077   -1.817199
    143          1           0       -6.861353   -5.414988   -1.714107
    144          1           0       -4.426251   -6.217578   -3.879778
    145          1           0       -5.033029   -4.565104   -4.250156
    146          1           0       -6.105844   -5.732103   -3.664643
    147          1           0       -5.423012   -7.098159   -0.501707
    148          1           0       -6.710718   -6.395377    0.458981
    149          1           0       -3.807183   -6.006036    0.453789
    150          1           0       -4.881512   -6.232894    1.881790
    151          1           0       -4.744447   -4.626654    1.035918
    152          1           0      -10.227564   -2.318000    2.632642
    153          1           0       -9.689046   -3.606057    1.506995
    154          1           0      -10.714237   -2.257159    0.873184
    155          1           0       -9.173040    2.632493    0.729543
    156          1           0       -9.392549    5.602829    3.845925
    157          1           0       -7.680163    5.900783    3.136766
    158          1           0       -8.066872    4.753979    4.443492
 ---------------------------------------------------------------------

 SCF Done:  E(RCAM-B3LYP) =  -4069.81338610     A.U. after   18 cycles

 Excitation energies and oscillator strengths:

 Excited State   1:      Singlet-A      1.6546 eV  749.33 nm  f=0.1581  <S**2>=0.000
     309 -> 315        0.11678
     310 -> 316        0.12264
     311 -> 313       -0.47238
     312 -> 314        0.49913
 This state for optimization and/or second-order correction.
 Total Energy, E(TD-HF/TD-DFT) =  -4069.75258088
 Copying the excited state density for this state as the 1-particle RhoCI density.

 Excited State   2:      Singlet-A      1.6973 eV  730.50 nm  f=0.5962  <S**2>=0.000
     309 -> 315       -0.13114
     310 -> 316        0.12297
     311 -> 313        0.49724
     312 -> 314        0.47081

 Excited State   3:      Singlet-A      2.1875 eV  566.79 nm  f=0.0101  <S**2>=0.000
     309 -> 313       -0.35008
     310 -> 314        0.53961
     311 -> 315       -0.14783
     312 -> 316       -0.22946

 Excited State   4:      Singlet-A      2.1969 eV  564.36 nm  f=0.1702  <S**2>=0.000
     309 -> 313        0.53694
     310 -> 314        0.34718
     311 -> 315        0.23597
     312 -> 316       -0.15236

 Excited State   5:      Singlet-A      2.4625 eV  503.50 nm  f=0.0000  <S**2>=0.000
     312 -> 313        0.70686

 The electronic state is 1-A.
 Alpha  occ. eigenvalues --  -46.87919 -46.87429 -19.26617 -19.26238 -19.19396
 Alpha  occ. eigenvalues --  -19.19035 -19.18863 -19.18418 -19.18369 -19.17843
 Alpha  occ. eigenvalues --  -14.42574 -14.42269 -14.41539 -14.41131 -14.39513
 Alpha  occ. eigenvalues --  -14.39107 -14.38737 -14.38369 -10.39429 -10.38959
 Alpha  occ. eigenvalues --  -10.35492 -10.35063 -10.34595 -10.34027 -10.32019
 Alpha  occ. eigenvalues --  -10.31679 -10.31553 -10.31092 -10.31040 -10.30770
 Alpha  occ. eigenvalues --  -10.30709 -10.30622 -10.30250 -10.30177 -10.30117
 Alpha  occ. eigenvalues --  -10.30010 -10.29888 -10.29749 -10.29702 -10.29355
 Alpha  occ. eigenvalues --  -10.29162 -10.29121 -10.28918 -10.28757 -10.28543
 Alpha  occ. eigenvalues --  -10.28526 -10.28508 -10.28263 -10.28151 -10.27932
 Alpha  occ. eigenvalues --  -10.27924 -10.27841 -10.27741 -10.27691 -10.27545
 Alpha  occ. eigenvalues --  -10.27539 -10.27441 -10.27425 -10.27416 -10.27380
 Alpha  occ. eigenvalues --  -10.27331 -10.27257 -10.27204 -10.27168 -10.26922
 Alpha  occ. eigenvalues --  -10.26867 -10.26778 -10.26537 -10.26408 -10.26361
 Alpha  occ. eigenvalues --  -10.26098 -10.25980 -10.25979 -10.25974 -10.25903
 Alpha  occ. eigenvalues --  -10.25825 -10.25700 -10.25660 -10.25423 -10.25248
 Alpha  occ. eigenvalues --  -10.24984 -10.24881 -10.24628 -10.24568 -10.24468
 Alpha  occ. eigenvalues --  -10.24313  -3.16663  -3.16180  -1.91545  -1.91131
 Alpha  occ. eigenvalues --   -1.91063  -1.90974  -1.90651  -1.90487  -1.16969
 Alpha  occ. eigenvalues --   -1.16528  -1.08844  -1.08463  -1.07259  -1.07003
 Alpha  occ. eigenvalues --   -1.06818  -1.06667  -1.04712  -1.04264  -1.03857
 Alpha  occ. eigenvalues --   -1.03431  -1.03351  -1.02805  -1.02526  -1.01876
 Alpha  occ. eigenvalues --   -0.92131  -0.91767  -0.89538  -0.89336  -0.89283
 Alpha  occ. eigenvalues --   -0.88953  -0.88286  -0.88023  -0.88007  -0.87789
 Alpha  occ. eigenvalues --   -0.87570  -0.87451  -0.87353  -0.86721  -0.85124
 Alpha  occ. eigenvalues --   -0.84790  -0.83923  -0.83691  -0.82981  -0.82766
 Alpha  occ. eigenvalues --   -0.82611  -0.82350  -0.81781  -0.81419  -0.80734
 Alpha  occ. eigenvalues --   -0.80221  -0.78894  -0.78300  -0.77306  -0.77060
 Alpha  occ. eigenvalues --   -0.76895  -0.76718  -0.76073  -0.75610  -0.74931
 Alpha  occ. eigenvalues --   -0.74597  -0.72878  -0.72458  -0.71783  -0.71368
 Alpha  occ. eigenvalues --   -0.69809  -0.69568  -0.69000  -0.68602  -0.67764
 Alpha  occ. eigenvalues --   -0.67371  -0.67360  -0.66952  -0.65440  -0.65071
 Alpha  occ. eigenvalues --   -0.65000  -0.64730  -0.64557  -0.64453  -0.64279
 Alpha  occ. eigenvalues --   -0.64002  -0.62500  -0.62109  -0.60510  -0.60012
 Alpha  occ. eigenvalues --   -0.59948  -0.59579  -0.59102  -0.58775  -0.58627
 Alpha  occ. eigenvalues --   -0.58201  -0.57810  -0.57384  -0.57371  -0.56989
 Alpha  occ. eigenvalues --   -0.56449  -0.56201  -0.55947  -0.55696  -0.55630
 Alpha  occ. eigenvalues --   -0.55424  -0.55173  -0.55058  -0.54617  -0.54318
 Alpha  occ. eigenvalues --   -0.54053  -0.53712  -0.53388  -0.53353  -0.53083
 Alpha  occ. eigenvalues --   -0.52997  -0.52883  -0.52842  -0.52694  -0.52318
 Alpha  occ. eigenvalues --   -0.52274  -0.52208  -0.52058  -0.51762  -0.51680
 Alpha  occ. eigenvalues --   -0.51398  -0.51308  -0.50993  -0.50606  -0.50057
 Alpha  occ. eigenvalues --   -0.50056  -0.49939  -0.49660  -0.49637  -0.49608
 Alpha  occ. eigenvalues --   -0.49357  -0.49239  -0.49207  -0.48925  -0.48897
 Alpha  occ. eigenvalues --   -0.48771  -0.48561  -0.48496  -0.48349  -0.48187
 Alpha  occ. eigenvalues --   -0.48012  -0.47786  -0.47393  -0.47324  -0.46882
 Alpha  occ. eigenvalues --   -0.46810  -0.46705  -0.46491  -0.46475  -0.46330
 Alpha  occ. eigenvalues --   -0.46262  -0.46004  -0.46002  -0.45874  -0.45644
 Alpha  occ. eigenvalues --   -0.45216  -0.45006  -0.44742  -0.44577  -0.44313
 Alpha  occ. eigenvalues --   -0.44268  -0.44254  -0.44160  -0.44102  -0.43914
 Alpha  occ. eigenvalues --   -0.43842  -0.43673  -0.43601  -0.43479  -0.43385
 Alpha  occ. eigenvalues --   -0.43173  -0.43143  -0.42965  -0.42764  -0.42683
 Alpha  occ. eigenvalues --   -0.42622  -0.42315  -0.42019  -0.41821  -0.41774
 Alpha  occ. eigenvalues --   -0.41642  -0.41457  -0.41257  -0.41254  -0.40969
 Alpha  occ. eigenvalues --   -0.40888  -0.40775  -0.40556  -0.40513  -0.40424
 Alpha  occ. eigenvalues --   -0.40396  -0.40304  -0.40013  -0.39309  -0.39242
 Alpha  occ. eigenvalues --   -0.38488  -0.38164  -0.37915  -0.37476  -0.37422
 Alpha  occ. eigenvalues --   -0.37356  -0.37059  -0.36973  -0.36972  -0.36632
 Alpha  occ. eigenvalues --   -0.36305  -0.36031  -0.34415  -0.34105  -0.34029
 Alpha  occ. eigenvalues --   -0.33716  -0.33314  -0.32945  -0.31396  -0.31150
 Alpha  occ. eigenvalues --   -0.30978  -0.30742  -0.30235  -0.29756  -0.29570
 Alpha  occ. eigenvalues --   -0.29461  -0.29052  -0.28956  -0.24203  -0.23809
 Alpha  occ. eigenvalues --   -0.21239  -0.20872
 Alpha virt. eigenvalues --   -0.08889  -0.08533  -0.01847  -0.01452  -0.00162
 Alpha virt. eigenvalues --    0.00259   0.02052   0.02423   0.02783   0.03436
 Alpha virt. eigenvalues --    0.04584   0.04779   0.04932   0.05307   0.05982

 Mulliken charges:
               1
     1  Mg   0.836600
     2  C   -0.004643
     3  C   -0.094156
     4  C   -0.045008
     5  C   -0.063657
     6  N   -0.257012
     7  C   -0.052916
     8  C   -0.013887
     9  C   -0.087068
    10  C    0.046466
    11  C    0.104701
    12  C    0.053451
    13  C   -0.071601
    14  H    0.034552
    15  N   -0.433457
    16  C    0.168905
    17  C   -0.176665
    18  C   -0.003286
    19  C    0.149074
    20  C    0.110000
    21  C    0.012993
    22  O   -0.248667
    23  C    0.062140
    24  N   -0.341464
    25  C    0.041959
    26  C   -0.028277
    27  C   -0.023833
    28  C    0.075517
    29  C    0.076122
    30  C    0.034529
    31  C   -0.006224
    32  N   -0.309893
    33  C    0.078591
    34  C   -0.171174
    35  C    0.007335
    36  C    0.080187
    37  C    0.127650
    38  C    0.043877
    39  O   -0.189593
    40  C   -0.004648
    41  C    0.213707
    42  O   -0.261570
    43  O   -0.303759
    44  C    0.158105
    45  H   -0.017197
    46  H   -0.015887
    47  H   -0.040640
    48  H    0.000824
    49  H   -0.003742
    50  H    0.025493
    51  H    0.016867
    52  H    0.017040
    53  H    0.011740
    54  H    0.041823
    55  H    0.018392
    56  H    0.018836
    57  H    0.005969
    58  H    0.027332
    59  H    0.040773
    60  H    0.037303
    61  H    0.036471
    62  H    0.032391
    63  H    0.017828
    64  H    0.009117
    65  H    0.023643
    66  H    0.012054
    67  H    0.004935
    68  H    0.006308
    69  H    0.004623
    70  H    0.008064
    71  H    0.029124
    72  H    0.025827
    73  H    0.045900
    74  H    0.010245
    75  H    0.046332
    76  H    0.035727
    77  H    0.043512
    78  H    0.047061
    79  H    0.051433
    80  Mg   0.836800
    81  C   -0.016955
    82  C   -0.086410
    83  C   -0.045878
    84  C   -0.065061
    85  N   -0.254426
    86  C   -0.050698
    87  C   -0.015038
    88  C   -0.090482
    89  C    0.045288
    90  C    0.114364
    91  C    0.062428
    92  C   -0.077351
    93  H    0.033049
    94  N   -0.423686
    95  C    0.162508
    96  C   -0.173571
    97  C   -0.008200
    98  C    0.152307
    99  C    0.097765
   100  C    0.014383
   101  O   -0.256200
   102  C    0.060787
   103  N   -0.350066
   104  C    0.037935
   105  C   -0.019823
   106  C   -0.034489
   107  C    0.088364
   108  C    0.073879
   109  C    0.034914
   110  C   -0.007457
   111  N   -0.323803
   112  C    0.077537
   113  C   -0.163936
   114  C    0.001841
   115  C    0.095502
   116  C    0.131667
   117  C    0.041724
   118  O   -0.189267
   119  C    0.001050
   120  C    0.211184
   121  O   -0.251639
   122  O   -0.305517
   123  C    0.152323
   124  H   -0.018252
   125  H   -0.016216
   126  H   -0.041259
   127  H   -0.001211
   128  H   -0.003759
   129  H    0.022040
   130  H    0.014714
   131  H    0.016295
   132  H    0.014384
   133  H    0.037003
   134  H    0.020694
   135  H    0.019757
   136  H    0.009389
   137  H    0.026981
   138  H    0.052656
   139  H    0.041282
   140  H    0.033870
   141  H    0.039784
   142  H    0.013919
   143  H    0.011889
   144  H    0.024401
   145  H    0.011811
   146  H    0.005376
   147  H    0.005600
   148  H    0.003263
   149  H    0.010795
   150  H    0.017545
   151  H    0.030296
   152  H    0.045163
   153  H    0.007973
   154  H    0.046311
   155  H    0.034620
   156  H    0.043494
   157  H    0.049287
   158  H    0.052939
 Sum of Mulliken charges =  -0.00000

 Dipole moment (field-independent basis, Debye):
    X=              3.8884    Y=              3.0139    Z=              1.0228  Tot=              5.0249
 Quadrupole moment (field-independent basis, Debye-Ang):
   XX=           -536.5709   YY=           -464.5895   ZZ=           -518.6417
   XY=              9.1185   XZ=             51.6906   YZ=             23.3496

 Normal termination of Gaussian 16 at Fri Sep 10 10:43:12 2021.
