 Gaussian 16, Revision A.03,
 Gaussian 16:  ES64L-G16RevA.03 25-Dec-2016

 -----------------------------------
 #p cam-b3lyp/Def2SVP td=(nstates=5)
 -----------------------------------

 --------------------------------
 TDDFT excited states in gaussian
 --------------------------------
 Symbolic Z-matrix:
 Charge =  0 Multiplicity = 1

                         Standard orientation:
 ---------------------------------------------------------------------
 Center     Atomic      Atomic             Coordinates (Angstroms)
 Number     Number       Type             X           Y           Z
 ---------------------------------------------------------------------
      1         12           0      -15.837802   -0.717834    0.077418
      2          6           0      -16.026084    2.851524    0.268338
      3          6           0      -16.710335   -0.439332   -3.209555
      4          6           0      -16.121775   -3.875304   -0.002320
      5          6           0      -16.100830   -0.770113    3.552147
      6          7           0      -16.283338    1.038165   -1.194829
      7          6           0      -16.261819    2.355215   -1.015700
      8          6           0      -16.438664    3.161415   -2.337116
      9          6           0      -17.195574    2.058941   -3.205238
     10          6           0      -16.672418    0.808889   -2.519962
     11          6           0      -18.712947    2.102265   -3.056230
     12          6           0      -15.066974    3.555416   -2.981289
     13          6           0      -15.143772    4.613236   -4.086039
     14          1           0      -14.064169    5.581606   -4.204624
     15          7           0      -15.861939   -1.963708   -1.455574
     16          6           0      -16.229528   -1.675918   -2.727321
     17          6           0      -16.074596   -2.932863   -3.490713
     18          6           0      -15.768971   -4.020132   -2.519871
     19          6           0      -15.933323   -3.325892   -1.268313
     20          6           0      -16.168666   -3.005597   -4.983901
     21          6           0      -15.399321   -5.459472   -2.692466
     22          8           0      -15.403679   -6.284650   -1.715922
     23          6           0      -15.113878   -5.903944   -4.068696
     24          7           0      -16.297377   -2.139530    1.535226
     25          6           0      -16.297088   -3.446120    1.249204
     26          6           0      -16.372554   -4.277835    2.495195
     27          6           0      -16.179010   -3.265516    3.714828
     28          6           0      -16.103356   -1.942424    2.913596
     29          6           0      -17.671300   -5.071851    2.692193
     30          6           0      -15.044400   -3.584752    4.720396
     31          6           0      -13.700647   -3.430097    4.044004
     32          7           0      -15.852505    0.757162    1.669654
     33          6           0      -15.994749    0.513539    3.043367
     34          6           0      -16.054003    1.826796    3.711136
     35          6           0      -15.958150    2.749249    2.671070
     36          6           0      -15.872530    2.056298    1.429788
     37          6           0      -16.239101    2.045444    5.104824
     38          6           0      -15.932936    4.159294    2.317527
     39          8           0      -15.879645    5.212232    2.954688
     40          6           0      -16.098592    4.283013    0.738578
     41          6           0      -15.047484    5.239421    0.244853
     42          8           0      -13.836227    4.944843    0.303566
     43          8           0      -15.636982    6.238067   -0.430232
     44          6           0      -14.647437    7.207017   -0.972533
     45          1           0      -17.204843   -0.490545   -4.181553
     46          1           0      -16.114091   -4.966888    0.026371
     47          1           0      -16.097366   -0.708302    4.641927
     48          1           0      -17.058585    4.053480   -2.245770
     49          1           0      -16.883019    2.077817   -4.249113
     50          1           0      -19.016954    2.801096   -2.277040
     51          1           0      -19.008687    1.086491   -2.793108
     52          1           0      -19.190224    2.314921   -4.013184
     53          1           0      -14.685267    2.712661   -3.557593
     54          1           0      -14.361672    3.883111   -2.216769
     55          1           0      -16.110783    5.117012   -4.088959
     56          1           0      -15.100258    4.104866   -5.049298
     57          1           0      -16.565575   -2.083002   -5.405596
     58          1           0      -16.921420   -3.757715   -5.219250
     59          1           0      -15.218487   -3.280540   -5.442047
     60          1           0      -15.989288   -5.725310   -4.693433
     61          1           0      -14.781196   -6.938170   -3.987769
     62          1           0      -14.313197   -5.288334   -4.479649
     63          1           0      -15.576584   -5.021026    2.518082
     64          1           0      -17.072823   -3.197114    4.335387
     65          1           0      -17.515398   -6.144785    2.807144
     66          1           0      -18.327036   -4.860180    1.848098
     67          1           0      -18.284860   -4.743801    3.530849
     68          1           0      -15.116544   -4.618098    5.057943
     69          1           0      -15.059401   -2.945631    5.603318
     70          1           0      -13.567430   -4.389338    3.545061
     71          1           0      -12.918477   -3.263734    4.785452
     72          1           0      -13.730160   -2.662013    3.270918
     73          1           0      -15.537600    2.830744    5.386194
     74          1           0      -16.062992    1.133881    5.675473
     75          1           0      -17.284059    2.354576    5.123693
     76          1           0      -17.106979    4.653699    0.557278
     77          1           0      -14.923852    8.192259   -0.596863
     78          1           0      -14.633061    7.063242   -2.053054
     79          1           0      -13.629121    7.119939   -0.592020
     80         12           0       15.920573   -0.843148    0.085896
     81          6           0       16.056177    2.738178    0.272346
     82          6           0       15.352615   -0.498339   -3.259720
     83          6           0       15.348769   -3.961677   -0.037569
     84          6           0       15.359122   -0.862299    3.525386
     85          7           0       15.749077    0.941370   -1.209622
     86          6           0       15.879744    2.248274   -1.038488
     87          6           0       15.898182    3.070656   -2.354895
     88          6           0       15.107525    2.036686   -3.295459
     89          6           0       15.448089    0.736609   -2.569877
     90          6           0       13.599713    2.222651   -3.259920
     91          6           0       17.354659    3.326337   -2.879588
     92          6           0       17.464533    4.379124   -3.984721
     93          1           0       18.643936    5.239810   -4.011339
     94          7           0       15.909968   -2.086627   -1.460793
     95          6           0       15.684423   -1.774555   -2.754241
     96          6           0       15.765442   -3.043402   -3.494268
     97          6           0       15.893758   -4.152754   -2.510607
     98          6           0       15.697262   -3.429388   -1.270363
     99          6           0       15.798659   -3.110272   -4.993550
    100          6           0       16.138449   -5.623611   -2.661953
    101          8           0       15.975385   -6.437345   -1.685183
    102          6           0       16.484025   -6.095339   -4.010855
    103          7           0       15.216488   -2.204231    1.490903
    104          6           0       15.110627   -3.511459    1.194459
    105          6           0       14.848725   -4.332519    2.434485
    106          6           0       15.041933   -3.327882    3.663696
    107          6           0       15.306210   -2.021370    2.883571
    108          6           0       13.468654   -4.983780    2.521895
    109          6           0       16.053633   -3.749006    4.764497
    110          6           0       17.458362   -3.737975    4.205936
    111          7           0       15.918857    0.626328    1.669774
    112          6           0       15.632928    0.408234    3.035343
    113          6           0       15.644631    1.728133    3.698793
    114          6           0       15.915980    2.632089    2.660663
    115          6           0       16.043013    1.927494    1.433101
    116          6           0       15.376132    1.969510    5.075670
    117          6           0       16.113309    4.023234    2.322319
    118          8           0       16.206358    5.068644    2.964346
    119          6           0       16.087576    4.166936    0.739576
    120          6           0       17.262768    5.012099    0.330742
    121          8           0       18.424918    4.603771    0.501843
    122          8           0       16.822520    6.060523   -0.388534
    123          6           0       17.952624    6.922497   -0.826349
    124          1           0       14.945268   -0.497504   -4.271128
    125          1           0       15.249007   -5.049076   -0.004705
    126          1           0       15.290008   -0.793646    4.613126
    127          1           0       15.366144    4.013312   -2.309099
    128          1           0       15.514505    2.028782   -4.303257
    129          1           0       13.300278    2.944683   -2.514838
    130          1           0       13.188530    1.248537   -3.029546
    131          1           0       13.227905    2.478792   -4.256160
    132          1           0       17.697916    2.440438   -3.429225
    133          1           0       18.011656    3.581389   -2.070927
    134          1           0       16.549942    4.977521   -4.076345
    135          1           0       17.546488    3.865953   -4.945948
    136          1           0       15.521504   -2.149793   -5.445287
    137          1           0       15.000961   -3.795200   -5.300832
    138          1           0       16.751028   -3.481967   -5.377608
    139          1           0       15.686334   -5.831372   -4.701127
    140          1           0       16.708809   -7.157923   -3.900183
    141          1           0       17.380869   -5.563884   -4.348260
    142          1           0       15.566617   -5.138650    2.523291
    143          1           0       14.104256   -3.178210    4.218856
    144          1           0       13.511494   -6.082484    2.644761
    145          1           0       12.910779   -4.722081    1.632614
    146          1           0       12.828364   -4.604216    3.316343
    147          1           0       15.856342   -4.773956    5.088085
    148          1           0       16.017712   -3.119928    5.647647
    149          1           0       17.535030   -4.711040    3.711618
    150          1           0       18.188502   -3.643706    5.007223
    151          1           0       17.569209   -2.966844    3.434759
    152          1           0       16.115880    2.681387    5.416991
    153          1           0       15.411851    1.049242    5.654980
    154          1           0       14.362379    2.373375    5.008803
    155          1           0       15.137322    4.628239    0.467919
    156          1           0       17.738085    7.935276   -0.471460
    157          1           0       18.031935    6.778327   -1.920276
    158          1           0       18.922937    6.742573   -0.378501
 ---------------------------------------------------------------------

 SCF Done:  E(RCAM-B3LYP) =  -4069.81176875     A.U. after   19 cycles

 Excitation energies and oscillator strengths:

 Excited State   1:      Singlet-A      1.6753 eV  740.07 nm  f=0.2116  <S**2>=0.000
     310 -> 316        0.16856
     311 -> 314       -0.16298
     312 -> 313        0.66642
     310 <- 316        0.10162
 This state for optimization and/or second-order correction.
 Total Energy, E(TD-HF/TD-DFT) =  -4069.75020245
 Copying the excited state density for this state as the 1-particle RhoCI density.

 Excited State   2:      Singlet-A      1.6801 eV  737.95 nm  f=0.5658  <S**2>=0.000
     309 -> 315        0.17058
     311 -> 314        0.66605
     312 -> 313        0.16293
     309 <- 315        0.10213

 Excited State   3:      Singlet-A      2.1861 eV  567.15 nm  f=0.0951  <S**2>=0.000
     310 -> 313        0.64209
     312 -> 316       -0.27295

 Excited State   4:      Singlet-A      2.1925 eV  565.49 nm  f=0.1050  <S**2>=0.000
     309 -> 314        0.64032
     311 -> 315       -0.27814

 Excited State   5:      Singlet-A      3.0654 eV  404.46 nm  f=0.0000  <S**2>=0.000
     311 -> 313        0.70711

 The electronic state is 1-A.
 Alpha  occ. eigenvalues --  -46.87794 -46.87660 -19.26348 -19.26281 -19.19160
 Alpha  occ. eigenvalues --  -19.19016 -19.18813 -19.18715 -19.18166 -19.18050
 Alpha  occ. eigenvalues --  -14.42497 -14.42447 -14.41447 -14.41359 -14.39400
 Alpha  occ. eigenvalues --  -14.39352 -14.38600 -14.38584 -10.39090 -10.39076
 Alpha  occ. eigenvalues --  -10.35447 -10.35393 -10.34386 -10.34227 -10.31755
 Alpha  occ. eigenvalues --  -10.31675 -10.31402 -10.31308 -10.31023 -10.30906
 Alpha  occ. eigenvalues --  -10.30567 -10.30504 -10.30397 -10.30360 -10.30204
 Alpha  occ. eigenvalues --  -10.30141 -10.29917 -10.29894 -10.29628 -10.29437
 Alpha  occ. eigenvalues --  -10.29401 -10.29252 -10.28747 -10.28719 -10.28655
 Alpha  occ. eigenvalues --  -10.28537 -10.28405 -10.28362 -10.28140 -10.28114
 Alpha  occ. eigenvalues --  -10.28001 -10.27790 -10.27724 -10.27669 -10.27582
 Alpha  occ. eigenvalues --  -10.27517 -10.27498 -10.27483 -10.27480 -10.27469
 Alpha  occ. eigenvalues --  -10.27465 -10.27446 -10.27401 -10.27375 -10.27155
 Alpha  occ. eigenvalues --  -10.27049 -10.26703 -10.26693 -10.26417 -10.26409
 Alpha  occ. eigenvalues --  -10.26232 -10.26180 -10.26137 -10.26024 -10.26016
 Alpha  occ. eigenvalues --  -10.25934 -10.25848 -10.25839 -10.25432 -10.25395
 Alpha  occ. eigenvalues --  -10.24872 -10.24830 -10.24785 -10.24731 -10.24690
 Alpha  occ. eigenvalues --  -10.24683  -3.16537  -3.16410  -1.91418  -1.91292
 Alpha  occ. eigenvalues --   -1.91005  -1.90881  -1.90847  -1.90718  -1.16642
 Alpha  occ. eigenvalues --   -1.16629  -1.08657  -1.08624  -1.07214  -1.06968
 Alpha  occ. eigenvalues --   -1.06945  -1.06639  -1.04578  -1.04495  -1.03758
 Alpha  occ. eigenvalues --   -1.03663  -1.03231  -1.03039  -1.02408  -1.02111
 Alpha  occ. eigenvalues --   -0.91987  -0.91969  -0.89516  -0.89494  -0.89185
 Alpha  occ. eigenvalues --   -0.89151  -0.88284  -0.88220  -0.87867  -0.87793
 Alpha  occ. eigenvalues --   -0.87684  -0.87670  -0.87272  -0.87121  -0.85000
 Alpha  occ. eigenvalues --   -0.84980  -0.83933  -0.83876  -0.82965  -0.82932
 Alpha  occ. eigenvalues --   -0.82653  -0.82646  -0.81596  -0.81582  -0.80593
 Alpha  occ. eigenvalues --   -0.80442  -0.78795  -0.78636  -0.77216  -0.77144
 Alpha  occ. eigenvalues --   -0.76931  -0.76898  -0.75920  -0.75838  -0.74895
 Alpha  occ. eigenvalues --   -0.74802  -0.72771  -0.72699  -0.71669  -0.71580
 Alpha  occ. eigenvalues --   -0.69904  -0.69757  -0.68871  -0.68827  -0.67638
 Alpha  occ. eigenvalues --   -0.67602  -0.67218  -0.67200  -0.65284  -0.65272
 Alpha  occ. eigenvalues --   -0.64851  -0.64770  -0.64654  -0.64618  -0.64266
 Alpha  occ. eigenvalues --   -0.64203  -0.62294  -0.62278  -0.60440  -0.60340
 Alpha  occ. eigenvalues --   -0.59802  -0.59796  -0.58993  -0.58984  -0.58501
 Alpha  occ. eigenvalues --   -0.58425  -0.57581  -0.57554  -0.57306  -0.57236
 Alpha  occ. eigenvalues --   -0.56307  -0.56204  -0.55975  -0.55886  -0.55518
 Alpha  occ. eigenvalues --   -0.55452  -0.55336  -0.55247  -0.54520  -0.54487
 Alpha  occ. eigenvalues --   -0.53912  -0.53892  -0.53296  -0.53228  -0.53219
 Alpha  occ. eigenvalues --   -0.53142  -0.52912  -0.52902  -0.52754  -0.52669
 Alpha  occ. eigenvalues --   -0.52435  -0.52401  -0.51911  -0.51883  -0.51659
 Alpha  occ. eigenvalues --   -0.51614  -0.51201  -0.51193  -0.50571  -0.50476
 Alpha  occ. eigenvalues --   -0.50028  -0.49980  -0.49916  -0.49867  -0.49512
 Alpha  occ. eigenvalues --   -0.49488  -0.49212  -0.49202  -0.49104  -0.49093
 Alpha  occ. eigenvalues --   -0.48590  -0.48558  -0.48458  -0.48443  -0.48375
 Alpha  occ. eigenvalues --   -0.48339  -0.47692  -0.47595  -0.47294  -0.47118
 Alpha  occ. eigenvalues --   -0.46794  -0.46709  -0.46554  -0.46553  -0.46356
 Alpha  occ. eigenvalues --   -0.46270  -0.46159  -0.46085  -0.45821  -0.45818
 Alpha  occ. eigenvalues --   -0.45208  -0.45198  -0.44574  -0.44514  -0.44505
 Alpha  occ. eigenvalues --   -0.44476  -0.44142  -0.44127  -0.44086  -0.44078
 Alpha  occ. eigenvalues --   -0.44017  -0.43939  -0.43553  -0.43491  -0.43385
 Alpha  occ. eigenvalues --   -0.43383  -0.43024  -0.42930  -0.42900  -0.42696
 Alpha  occ. eigenvalues --   -0.42651  -0.42553  -0.42006  -0.41964  -0.41701
 Alpha  occ. eigenvalues --   -0.41669  -0.41531  -0.41459  -0.41138  -0.40989
 Alpha  occ. eigenvalues --   -0.40867  -0.40821  -0.40723  -0.40699  -0.40568
 Alpha  occ. eigenvalues --   -0.40493  -0.40232  -0.40228  -0.39437  -0.39425
 Alpha  occ. eigenvalues --   -0.38466  -0.38350  -0.37746  -0.37654  -0.37317
 Alpha  occ. eigenvalues --   -0.37266  -0.37261  -0.37199  -0.36770  -0.36710
 Alpha  occ. eigenvalues --   -0.36217  -0.36189  -0.34283  -0.34253  -0.33861
 Alpha  occ. eigenvalues --   -0.33767  -0.33183  -0.33175  -0.31343  -0.31274
 Alpha  occ. eigenvalues --   -0.31033  -0.30973  -0.30025  -0.29954  -0.29446
 Alpha  occ. eigenvalues --   -0.29327  -0.29319  -0.29211  -0.24078  -0.24036
 Alpha  occ. eigenvalues --   -0.21125  -0.21117
 Alpha virt. eigenvalues --   -0.08792  -0.08771  -0.01747  -0.01684  -0.00056
 Alpha virt. eigenvalues --   -0.00029   0.02204   0.02208   0.03126   0.03226
 Alpha virt. eigenvalues --    0.04721   0.04729   0.05102   0.05166   0.06180

 Mulliken charges:
               1
     1  Mg   0.838772
     2  C   -0.002978
     3  C   -0.094127
     4  C   -0.045871
     5  C   -0.063962
     6  N   -0.256776
     7  C   -0.052458
     8  C   -0.014023
     9  C   -0.087001
    10  C    0.046324
    11  C    0.104813
    12  C    0.053473
    13  C   -0.071792
    14  H    0.036121
    15  N   -0.433143
    16  C    0.168423
    17  C   -0.177170
    18  C   -0.004007
    19  C    0.148710
    20  C    0.110182
    21  C    0.012275
    22  O   -0.249625
    23  C    0.062481
    24  N   -0.341176
    25  C    0.041257
    26  C   -0.028175
    27  C   -0.023992
    28  C    0.074875
    29  C    0.076165
    30  C    0.035120
    31  C   -0.004504
    32  N   -0.310471
    33  C    0.080414
    34  C   -0.169694
    35  C    0.008358
    36  C    0.082972
    37  C    0.127307
    38  C    0.046134
    39  O   -0.188414
    40  C   -0.005313
    41  C    0.212861
    42  O   -0.257098
    43  O   -0.304797
    44  C    0.157693
    45  H   -0.017616
    46  H   -0.016839
    47  H   -0.041476
    48  H    0.000944
    49  H   -0.004046
    50  H    0.025480
    51  H    0.016448
    52  H    0.016650
    53  H    0.011193
    54  H    0.044128
    55  H    0.017874
    56  H    0.017932
    57  H    0.005865
    58  H    0.026817
    59  H    0.039529
    60  H    0.037341
    61  H    0.035641
    62  H    0.031487
    63  H    0.016554
    64  H    0.009467
    65  H    0.023212
    66  H    0.012543
    67  H    0.004759
    68  H    0.006371
    69  H    0.004745
    70  H    0.008775
    71  H    0.018161
    72  H    0.028975
    73  H    0.047593
    74  H    0.009122
    75  H    0.046015
    76  H    0.035151
    77  H    0.042960
    78  H    0.046385
    79  H    0.053697
    80  Mg   0.837841
    81  C   -0.016821
    82  C   -0.087798
    83  C   -0.045498
    84  C   -0.064860
    85  N   -0.254573
    86  C   -0.049814
    87  C   -0.015109
    88  C   -0.090507
    89  C    0.045769
    90  C    0.114368
    91  C    0.062546
    92  C   -0.077907
    93  H    0.034900
    94  N   -0.423482
    95  C    0.162924
    96  C   -0.174633
    97  C   -0.007800
    98  C    0.152106
    99  C    0.099369
   100  C    0.015567
   101  O   -0.253180
   102  C    0.061201
   103  N   -0.350071
   104  C    0.037524
   105  C   -0.019839
   106  C   -0.034819
   107  C    0.088925
   108  C    0.073638
   109  C    0.034732
   110  C   -0.007681
   111  N   -0.324113
   112  C    0.078471
   113  C   -0.163119
   114  C    0.002266
   115  C    0.096171
   116  C    0.131491
   117  C    0.042410
   118  O   -0.187829
   119  C    0.000917
   120  C    0.211243
   121  O   -0.251019
   122  O   -0.305614
   123  C    0.152022
   124  H   -0.019669
   125  H   -0.015568
   126  H   -0.040420
   127  H   -0.000624
   128  H   -0.004342
   129  H    0.022502
   130  H    0.014443
   131  H    0.016278
   132  H    0.013907
   133  H    0.037675
   134  H    0.020803
   135  H    0.019580
   136  H    0.008754
   137  H    0.026135
   138  H    0.039779
   139  H    0.038246
   140  H    0.036390
   141  H    0.033890
   142  H    0.014393
   143  H    0.012471
   144  H    0.025145
   145  H    0.011652
   146  H    0.005727
   147  H    0.006279
   148  H    0.003673
   149  H    0.010927
   150  H    0.017938
   151  H    0.030090
   152  H    0.046017
   153  H    0.008528
   154  H    0.047015
   155  H    0.035070
   156  H    0.043938
   157  H    0.049483
   158  H    0.053577
 Sum of Mulliken charges =  -0.00000

 Dipole moment (field-independent basis, Debye):
    X=             -3.7841    Y=             -2.3073    Z=             -7.9026  Tot=              9.0606
 Quadrupole moment (field-independent basis, Debye-Ang):
   XX=           -509.2017   YY=           -551.9142   ZZ=           -446.9442
   XY=             -0.5230   XZ=             -6.6228   YZ=            -47.8593

 Normal termination of Gaussian 16 at Sun Sep 12 21:56:13 2021.
