 Gaussian 16, Revision A.03,
 Gaussian 16:  ES64L-G16RevA.03 25-Dec-2016

 -----------------------------------
 #p cam-b3lyp/Def2SVP td=(nstates=5)
 -----------------------------------

 --------------------------------
 TDDFT excited states in gaussian
 --------------------------------
 Symbolic Z-matrix:
 Charge =  0 Multiplicity = 1

                         Standard orientation:
 ---------------------------------------------------------------------
 Center     Atomic      Atomic             Coordinates (Angstroms)
 Number     Number       Type             X           Y           Z
 ---------------------------------------------------------------------
      1         12           0       -6.461078   -0.799415    0.009592
      2          6           0       -6.743436    2.016294    2.201456
      3          6           0       -7.372079    1.280450   -2.537427
      4          6           0       -6.660798   -3.353466   -1.859514
      5          6           0       -6.689469   -2.831961    2.831339
      6          7           0       -6.965776    1.355529   -0.036682
      7          6           0       -6.977971    2.334991    0.862027
      8          6           0       -7.189018    3.745764    0.235487
      9          6           0       -7.924252    3.315276   -1.112143
     10          6           0       -7.361166    1.912639   -1.258658
     11          6           0       -9.440752    3.224067   -0.976458
     12          6           0       -5.834621    4.474431   -0.058422
     13          6           0       -5.950362    5.970881   -0.362716
     14          1           0       -4.898366    6.863108    0.100514
     15          7           0       -6.466320   -0.948123   -1.960359
     16          6           0       -6.853621    0.003540   -2.843321
     17          6           0       -6.672233   -0.588398   -4.186224
     18          6           0       -6.328243   -2.026326   -4.006981
     19          6           0       -6.499264   -2.175037   -2.584303
     20          6           0       -6.778543    0.201202   -5.454679
     21          6           0       -5.921688   -3.099130   -4.967157
     22          8           0       -5.894548   -4.333711   -4.636026
     23          6           0       -5.637530   -2.670944   -6.348805
     24          7           0       -6.868343   -2.810731    0.392187
     25          6           0       -6.835649   -3.720022   -0.588172
     26          6           0       -6.876843   -5.115651   -0.040028
     27          6           0       -6.698971   -4.975212    1.540602
     28          6           0       -6.666560   -3.429987    1.638062
     29          6           0       -8.151833   -5.915531   -0.341032
     30          6           0       -5.546653   -5.779718    2.192792
     31          6           0       -4.214053   -5.229900    1.735655
     32          7           0       -6.500256   -0.497507    2.158629
     33          6           0       -6.622796   -1.485121    3.146696
     34          6           0       -6.710971   -0.789774    4.443918
     35          6           0       -6.649875    0.563412    4.116809
     36          6           0       -6.557491    0.705152    2.702713
     37          6           0       -6.888587   -1.410520    5.711815
     38          6           0       -6.665955    1.923208    4.631157
     39          8           0       -6.634922    2.425439    5.755565
     40          6           0       -6.849922    2.921019    3.403820
     41          6           0       -5.829664    4.016667    3.551934
     42          8           0       -4.610420    3.774707    3.441183
     43          8           0       -6.452209    5.205305    3.562880
     44          6           0       -5.494289    6.337267    3.677796
     45          1           0       -7.874274    1.779346   -3.368596
     46          1           0       -6.623493   -4.265622   -2.458695
     47          1           0       -6.677280   -3.402869    3.761591
     48          1           0       -7.831801    4.408817    0.814810
     49          1           0       -7.622284    3.934921   -1.956286
     50          1           0       -9.755998    3.344777    0.059867
     51          1           0       -9.706551    2.232041   -1.342146
     52          1           0       -9.932675    3.931445   -1.644594
     53          1           0       -5.435903    4.121974   -1.009664
     54          1           0       -5.131129    4.326648    0.761691
     55          1           0       -6.930552    6.359446   -0.084952
     56          1           0       -5.902379    6.104353   -1.443495
     57          1           0       -7.204117    1.188152   -5.277586
     58          1           0       -7.513012   -0.302599   -6.082731
     59          1           0       -5.825725    0.263052   -5.980650
     60          1           0       -6.523342   -2.191985   -6.766517
     61          1           0       -5.276403   -3.556876   -6.869921
     62          1           0       -4.857644   -1.909145   -6.329040
     63          1           0       -6.060996   -5.716833   -0.439277
     64          1           0       -7.588344   -5.297703    2.082533
     65          1           0       -7.966050   -6.857512   -0.857620
     66          1           0       -8.821040   -5.278261   -0.918388
     67          1           0       -8.765969   -6.141614    0.530254
     68          1           0       -5.587765   -6.822475    1.879880
     69          1           0       -5.570415   -5.759247    3.282410
     70          1           0       -4.059855   -5.728946    0.779617
     71          1           0       -3.429606   -5.494829    2.445350
     72          1           0       -4.271576   -4.159191    1.538781
     73          1           0       -6.205805   -0.907148    6.396208
     74          1           0       -6.682600   -2.479472    5.661682
     75          1           0       -7.941252   -1.196299    5.895832
     76          1           0       -7.869594    3.300971    3.458846
     77          1           0       -5.793501    6.924044    4.546357
     78          1           0       -5.486354    6.836105    2.708516
     79          1           0       -4.470420    6.076726    3.948254
     80         12           0        6.760197   -0.475055    0.090229
     81          6           0        5.483670    1.850737   -2.326429
     82          6           0        8.728105    2.052458    1.262235
     83          6           0        8.227348   -2.603803    1.929600
     84          6           0        5.581044   -3.036610   -1.957635
     85          7           0        6.986536    1.634858   -0.533712
     86          6           0        6.404365    2.423568   -1.424418
     87          6           0        6.772955    3.925597   -1.291744
     88          6           0        8.186190    3.761518   -0.546958
     89          6           0        7.948026    2.416134    0.135599
     90          6           0        9.356947    3.610921   -1.504031
     91          6           0        5.746295    4.717171   -0.407779
     92          6           0        5.869075    6.240421   -0.487718
     93          1           0        4.650643    7.041821   -0.412454
     94          7           0        7.883379   -0.218835    1.706205
     95          6           0        8.595449    0.878937    2.036559
     96          6           0        9.264189    0.557478    3.306839
     97          6           0        9.020146   -0.877781    3.615353
     98          6           0        8.370763   -1.303679    2.391826
     99          6           0        9.975233    1.587578    4.135539
    100          6           0        9.332490   -1.729476    4.808355
    101          8           0        9.243312   -3.007380    4.765297
    102          6           0        9.835415   -1.029955    5.999661
    103          7           0        7.076409   -2.521260   -0.097925
    104          6           0        7.698278   -3.216618    0.870423
    105          6           0        7.566683   -4.703886    0.644367
    106          6           0        6.516722   -4.865510   -0.551057
    107          6           0        6.280231   -3.375841   -0.883290
    108          6           0        8.858624   -5.439709    0.289601
    109          6           0        5.281296   -5.768722   -0.285348
    110          6           0        4.387009   -5.128038    0.751545
    111          7           0        5.561489   -0.606149   -1.702523
    112          6           0        5.208511   -1.776854   -2.408882
    113          6           0        4.484652   -1.350546   -3.624089
    114          6           0        4.486830    0.050606   -3.551505
    115          6           0        5.181787    0.468628   -2.384544
    116          6           0        3.973928   -2.213849   -4.634026
    117          6           0        4.068472    1.271367   -4.202218
    118          8           0        3.370215    1.539837   -5.178990
    119          6           0        4.804902    2.494429   -3.503526
    120          6           0        3.777734    3.557359   -3.224876
    121          8           0        2.859831    3.351509   -2.411439
    122          8           0        4.170662    4.710401   -3.796238
    123          6           0        3.189527    5.797927   -3.538375
    124          1           0        9.548436    2.706868    1.558373
    125          1           0        8.620400   -3.383634    2.585997
    126          1           0        5.096261   -3.777774   -2.596642
    127          1           0        6.906777    4.445341   -2.232881
    128          1           0        8.335771    4.543361    0.193124
    129          1           0        9.030129    3.520324   -2.529269
    130          1           0        9.878206    2.715194   -1.192536
    131          1           0       10.064029    4.434100   -1.367149
    132          1           0        5.992550    4.564130    0.650847
    133          1           0        4.740370    4.423223   -0.636564
    134          1           0        6.487633    6.560191   -1.335112
    135          1           0        6.416120    6.591046    0.390818
    136          1           0       10.131863    2.517091    3.574392
    137          1           0       10.986046    1.207782    4.319564
    138          1           0        9.485340    1.767841    5.094799
    139          1           0       10.744821   -0.490927    5.744908
    140          1           0        9.916051   -1.794253    6.775054
    141          1           0        9.097795   -0.277883    6.301211
    142          1           0        7.174072   -5.195782    1.525839
    143          1           0        6.979156   -5.316460   -1.441349
    144          1           0        9.094304   -6.267648    0.984614
    145          1           0        9.666255   -4.720138    0.267594
    146          1           0        8.892099   -5.855413   -0.716017
    147          1           0        5.596727   -6.729837    0.128058
    148          1           0        4.698884   -5.977085   -1.176632
    149          1           0        4.852797   -5.424375    1.696163
    150          1           0        3.372577   -5.513897    0.673556
    151          1           0        4.433537   -4.034561    0.689836
    152          1           0        2.986498   -1.849690   -4.884789
    153          1           0        3.943218   -3.247365   -4.295392
    154          1           0        4.720824   -2.060658   -5.417569
    155          1           0        5.580305    2.843468   -4.186534
    156          1           0        2.892338    6.197763   -4.512793
    157          1           0        3.691543    6.493836   -2.840203
    158          1           0        2.228672    5.517901   -3.122695
 ---------------------------------------------------------------------

 SCF Done:  E(RCAM-B3LYP) =  -4069.81180660     A.U. after   19 cycles

 Excitation energies and oscillator strengths:

 Excited State   1:      Singlet-A      1.6666 eV  743.94 nm  f=0.0851  <S**2>=0.000
     309 -> 315        0.13461
     310 -> 316        0.10635
     311 -> 313        0.53921
     312 -> 314        0.42503
 This state for optimization and/or second-order correction.
 Total Energy, E(TD-HF/TD-DFT) =  -4069.75056039
 Copying the excited state density for this state as the 1-particle RhoCI density.

 Excited State   2:      Singlet-A      1.6886 eV  734.26 nm  f=0.6704  <S**2>=0.000
     309 -> 315       -0.10951
     310 -> 316        0.13955
     311 -> 313       -0.42420
     312 -> 314        0.53809

 Excited State   3:      Singlet-A      2.1848 eV  567.49 nm  f=0.0394  <S**2>=0.000
     309 -> 313        0.60888
     310 -> 314       -0.20754
     311 -> 315       -0.25738

 Excited State   4:      Singlet-A      2.1934 eV  565.26 nm  f=0.1489  <S**2>=0.000
     309 -> 313        0.20589
     310 -> 314        0.60633
     312 -> 316       -0.26396

 Excited State   5:      Singlet-A      2.6513 eV  467.63 nm  f=0.0000  <S**2>=0.000
     312 -> 313        0.70697

 The electronic state is 1-A.
 Alpha  occ. eigenvalues --  -46.87583 -46.87522 -19.26328 -19.26059 -19.19118
 Alpha  occ. eigenvalues --  -19.18772 -19.18636 -19.18542 -19.18015 -19.17928
 Alpha  occ. eigenvalues --  -14.42423 -14.42181 -14.41286 -14.41191 -14.39275
 Alpha  occ. eigenvalues --  -14.39127 -14.38526 -14.38319 -10.39048 -10.38834
 Alpha  occ. eigenvalues --  -10.35312 -10.35173 -10.34191 -10.34148 -10.31761
 Alpha  occ. eigenvalues --  -10.31479 -10.31242 -10.31145 -10.30950 -10.30634
 Alpha  occ. eigenvalues --  -10.30326 -10.30306 -10.30292 -10.30247 -10.30064
 Alpha  occ. eigenvalues --  -10.29949 -10.29826 -10.29677 -10.29367 -10.29361
 Alpha  occ. eigenvalues --  -10.29330 -10.28984 -10.28651 -10.28585 -10.28481
 Alpha  occ. eigenvalues --  -10.28334 -10.28276 -10.28094 -10.28077 -10.27935
 Alpha  occ. eigenvalues --  -10.27859 -10.27597 -10.27531 -10.27461 -10.27445
 Alpha  occ. eigenvalues --  -10.27414 -10.27394 -10.27386 -10.27312 -10.27307
 Alpha  occ. eigenvalues --  -10.27285 -10.27237 -10.27174 -10.27141 -10.27006
 Alpha  occ. eigenvalues --  -10.26915 -10.26608 -10.26403 -10.26327 -10.26103
 Alpha  occ. eigenvalues --  -10.26056 -10.26005 -10.25987 -10.25976 -10.25860
 Alpha  occ. eigenvalues --  -10.25802 -10.25765 -10.25625 -10.25340 -10.25245
 Alpha  occ. eigenvalues --  -10.24809 -10.24635 -10.24619 -10.24573 -10.24532
 Alpha  occ. eigenvalues --  -10.24484  -3.16332  -3.16264  -1.91214  -1.91145
 Alpha  occ. eigenvalues --   -1.90803  -1.90732  -1.90640  -1.90574  -1.16618
 Alpha  occ. eigenvalues --   -1.16403  -1.08625  -1.08389  -1.06944  -1.06907
 Alpha  occ. eigenvalues --   -1.06887  -1.06398  -1.04422  -1.04313  -1.03590
 Alpha  occ. eigenvalues --   -1.03500  -1.02968  -1.02966  -1.02148  -1.02039
 Alpha  occ. eigenvalues --   -0.91925  -0.91715  -0.89422  -0.89283  -0.89084
 Alpha  occ. eigenvalues --   -0.88925  -0.88148  -0.88055  -0.87732  -0.87621
 Alpha  occ. eigenvalues --   -0.87612  -0.87409  -0.87043  -0.86991  -0.84931
 Alpha  occ. eigenvalues --   -0.84719  -0.83806  -0.83714  -0.82854  -0.82695
 Alpha  occ. eigenvalues --   -0.82586  -0.82388  -0.81550  -0.81346  -0.80384
 Alpha  occ. eigenvalues --   -0.80341  -0.78564  -0.78526  -0.77076  -0.76969
 Alpha  occ. eigenvalues --   -0.76840  -0.76691  -0.75784  -0.75677  -0.74740
 Alpha  occ. eigenvalues --   -0.74671  -0.72631  -0.72521  -0.71518  -0.71426
 Alpha  occ. eigenvalues --   -0.69687  -0.69681  -0.68760  -0.68613  -0.67536
 Alpha  occ. eigenvalues --   -0.67383  -0.67125  -0.66943  -0.65207  -0.65025
 Alpha  occ. eigenvalues --   -0.64706  -0.64604  -0.64593  -0.64374  -0.64134
 Alpha  occ. eigenvalues --   -0.64031  -0.62234  -0.62062  -0.60265  -0.60174
 Alpha  occ. eigenvalues --   -0.59729  -0.59541  -0.58927  -0.58736  -0.58363
 Alpha  occ. eigenvalues --   -0.58252  -0.57507  -0.57339  -0.57170  -0.57063
 Alpha  occ. eigenvalues --   -0.56141  -0.56053  -0.55841  -0.55740  -0.55391
 Alpha  occ. eigenvalues --   -0.55258  -0.55188  -0.55112  -0.54432  -0.54295
 Alpha  occ. eigenvalues --   -0.53844  -0.53631  -0.53161  -0.53079  -0.53044
 Alpha  occ. eigenvalues --   -0.52954  -0.52840  -0.52665  -0.52593  -0.52477
 Alpha  occ. eigenvalues --   -0.52323  -0.52219  -0.51831  -0.51679  -0.51589
 Alpha  occ. eigenvalues --   -0.51346  -0.51144  -0.50952  -0.50395  -0.50280
 Alpha  occ. eigenvalues --   -0.49909  -0.49798  -0.49797  -0.49648  -0.49417
 Alpha  occ. eigenvalues --   -0.49251  -0.49141  -0.49050  -0.48958  -0.48848
 Alpha  occ. eigenvalues --   -0.48505  -0.48352  -0.48318  -0.48269  -0.48229
 Alpha  occ. eigenvalues --   -0.48180  -0.47530  -0.47440  -0.47052  -0.47042
 Alpha  occ. eigenvalues --   -0.46641  -0.46550  -0.46486  -0.46294  -0.46204
 Alpha  occ. eigenvalues --   -0.46106  -0.46025  -0.45924  -0.45774  -0.45588
 Alpha  occ. eigenvalues --   -0.45142  -0.44973  -0.44460  -0.44409  -0.44336
 Alpha  occ. eigenvalues --   -0.44245  -0.44069  -0.44009  -0.43898  -0.43874
 Alpha  occ. eigenvalues --   -0.43840  -0.43760  -0.43508  -0.43323  -0.43257
 Alpha  occ. eigenvalues --   -0.43133  -0.42888  -0.42845  -0.42780  -0.42478
 Alpha  occ. eigenvalues --   -0.42466  -0.42430  -0.41891  -0.41772  -0.41613
 Alpha  occ. eigenvalues --   -0.41455  -0.41389  -0.41276  -0.40927  -0.40893
 Alpha  occ. eigenvalues --   -0.40648  -0.40623  -0.40619  -0.40547  -0.40424
 Alpha  occ. eigenvalues --   -0.40339  -0.40150  -0.39952  -0.39345  -0.39223
 Alpha  occ. eigenvalues --   -0.38279  -0.38236  -0.37583  -0.37481  -0.37194
 Alpha  occ. eigenvalues --   -0.37129  -0.37078  -0.36995  -0.36729  -0.36477
 Alpha  occ. eigenvalues --   -0.36154  -0.35950  -0.34183  -0.34024  -0.33812
 Alpha  occ. eigenvalues --   -0.33518  -0.33105  -0.32925  -0.31195  -0.31074
 Alpha  occ. eigenvalues --   -0.30903  -0.30776  -0.29921  -0.29789  -0.29255
 Alpha  occ. eigenvalues --   -0.29176  -0.29145  -0.29059  -0.23964  -0.23816
 Alpha  occ. eigenvalues --   -0.21045  -0.20864
 Alpha virt. eigenvalues --   -0.08722  -0.08508  -0.01609  -0.01486   0.00043
 Alpha virt. eigenvalues --    0.00215   0.02264   0.02450   0.03352   0.03476
 Alpha virt. eigenvalues --    0.04800   0.04978   0.05206   0.05343   0.06247

 Mulliken charges:
               1
     1  Mg   0.840405
     2  C   -0.002470
     3  C   -0.093351
     4  C   -0.046024
     5  C   -0.064227
     6  N   -0.256739
     7  C   -0.052218
     8  C   -0.014312
     9  C   -0.087176
    10  C    0.046841
    11  C    0.104924
    12  C    0.053276
    13  C   -0.071447
    14  H    0.035528
    15  N   -0.433116
    16  C    0.169205
    17  C   -0.176367
    18  C   -0.003626
    19  C    0.149079
    20  C    0.110110
    21  C    0.012704
    22  O   -0.250356
    23  C    0.061991
    24  N   -0.341168
    25  C    0.041341
    26  C   -0.028078
    27  C   -0.023819
    28  C    0.074775
    29  C    0.076373
    30  C    0.035274
    31  C   -0.004457
    32  N   -0.310349
    33  C    0.080367
    34  C   -0.170040
    35  C    0.008068
    36  C    0.083200
    37  C    0.127374
    38  C    0.046007
    39  O   -0.189323
    40  C   -0.005398
    41  C    0.212548
    42  O   -0.256212
    43  O   -0.305026
    44  C    0.157952
    45  H   -0.017831
    46  H   -0.017302
    47  H   -0.042117
    48  H    0.000305
    49  H   -0.003809
    50  H    0.025125
    51  H    0.016247
    52  H    0.016246
    53  H    0.012936
    54  H    0.044893
    55  H    0.017017
    56  H    0.018044
    57  H    0.005770
    58  H    0.026178
    59  H    0.041557
    60  H    0.036886
    61  H    0.035183
    62  H    0.033668
    63  H    0.016225
    64  H    0.008974
    65  H    0.022719
    66  H    0.012493
    67  H    0.004345
    68  H    0.005641
    69  H    0.004420
    70  H    0.008322
    71  H    0.017631
    72  H    0.030044
    73  H    0.047191
    74  H    0.008748
    75  H    0.045458
    76  H    0.034612
    77  H    0.042122
    78  H    0.046326
    79  H    0.053689
    80  Mg   0.838824
    81  C   -0.016634
    82  C   -0.087694
    83  C   -0.045432
    84  C   -0.064849
    85  N   -0.254574
    86  C   -0.049694
    87  C   -0.015243
    88  C   -0.090584
    89  C    0.046009
    90  C    0.114434
    91  C    0.062432
    92  C   -0.077841
    93  H    0.034867
    94  N   -0.423480
    95  C    0.163263
    96  C   -0.174520
    97  C   -0.007639
    98  C    0.152311
    99  C    0.099388
   100  C    0.015813
   101  O   -0.253203
   102  C    0.061045
   103  N   -0.350111
   104  C    0.037581
   105  C   -0.019824
   106  C   -0.034812
   107  C    0.088954
   108  C    0.073725
   109  C    0.034734
   110  C   -0.007717
   111  N   -0.324076
   112  C    0.078560
   113  C   -0.163052
   114  C    0.001840
   115  C    0.096557
   116  C    0.131504
   117  C    0.042405
   118  O   -0.189163
   119  C    0.000941
   120  C    0.210656
   121  O   -0.250125
   122  O   -0.305772
   123  C    0.152303
   124  H   -0.019772
   125  H   -0.015594
   126  H   -0.040461
   127  H   -0.001067
   128  H   -0.004234
   129  H    0.022215
   130  H    0.014375
   131  H    0.016112
   132  H    0.014564
   133  H    0.038220
   134  H    0.020268
   135  H    0.019727
   136  H    0.008720
   137  H    0.025982
   138  H    0.040248
   139  H    0.038073
   140  H    0.036429
   141  H    0.034395
   142  H    0.014503
   143  H    0.012208
   144  H    0.025057
   145  H    0.011515
   146  H    0.005517
   147  H    0.006015
   148  H    0.003745
   149  H    0.010850
   150  H    0.018107
   151  H    0.030545
   152  H    0.045533
   153  H    0.008891
   154  H    0.046509
   155  H    0.034627
   156  H    0.042858
   157  H    0.049719
   158  H    0.053494
 Sum of Mulliken charges =  -0.00000

 Dipole moment (field-independent basis, Debye):
    X=              1.7222    Y=              3.0140    Z=             -2.3178  Tot=              4.1741
 Quadrupole moment (field-independent basis, Debye-Ang):
   XX=           -450.5831   YY=           -462.2586   ZZ=           -536.5536
   XY=             19.5160   XZ=             28.4096   YZ=            -13.2726

 Normal termination of Gaussian 16 at Sat Sep 11 08:26:27 2021.
