 Gaussian 16, Revision A.03,
 Gaussian 16:  ES64L-G16RevA.03 25-Dec-2016

 -----------------------------------
 #p cam-b3lyp/Def2SVP td=(nstates=5)
 -----------------------------------

 --------------------------------
 TDDFT excited states in gaussian
 --------------------------------
 Symbolic Z-matrix:
 Charge =  0 Multiplicity = 1

                         Standard orientation:
 ---------------------------------------------------------------------
 Center     Atomic      Atomic             Coordinates (Angstroms)
 Number     Number       Type             X           Y           Z
 ---------------------------------------------------------------------
      1         12           0       -4.391042    0.632759    0.520017
      2          6           0       -4.836361   -2.339165   -1.424609
      3          6           0       -4.883417   -1.288759    3.296418
      4          6           0       -4.454046    3.305540    2.225566
      5          6           0       -5.060951    2.451320   -2.376484
      6          7           0       -4.797459   -1.528413    0.774589
      7          6           0       -4.884539   -2.569162   -0.047865
      8          6           0       -4.956092   -3.937838    0.693067
      9          6           0       -5.529917   -3.436274    2.093480
     10          6           0       -5.010340   -2.009565    2.071934
     11          6           0       -7.053765   -3.403243    2.150894
     12          6           0       -3.546677   -4.600304    0.855610
     13          6           0       -3.561496   -6.074267    1.271023
     14          1           0       -2.541886   -6.963232    0.734846
     15          7           0       -4.150431    0.920857    2.459594
     16          6           0       -4.382565    0.022512    3.446699
     17          6           0       -4.055240    0.713867    4.712230
     18          6           0       -3.795865    2.145636    4.394651
     19          6           0       -4.153292    2.187342    2.999701
     20          6           0       -3.966242    0.013433    6.033298
     21          6           0       -3.313935    3.296361    5.220307
     22          8           0       -3.379679    4.504523    4.807273
     23          6           0       -2.838253    2.976713    6.578465
     24          7           0       -4.925488    2.597816    0.061157
     25          6           0       -4.804795    3.575063    0.966368
     26          6           0       -4.972563    4.926185    0.336876
     27          6           0       -4.992666    4.679495   -1.240620
     28          6           0       -4.910051    3.133066   -1.238715
     29          6           0       -6.230127    5.704458    0.747771
     30          6           0       -3.966933    5.471874   -2.089399
     31          6           0       -2.565537    4.998619   -1.774412
     32          7           0       -4.692326    0.177785   -1.580761
     33          6           0       -4.980325    1.088278   -2.607764
     34          6           0       -5.205226    0.300040   -3.833394
     35          6           0       -5.047725   -1.023845   -3.427970
     36          6           0       -4.769605   -1.061712   -2.031723
     37          6           0       -5.568631    0.823138   -5.105691
     38          6           0       -5.074018   -2.416579   -3.844453
     39          8           0       -5.166562   -2.996211   -4.927483
     40          6           0       -5.058747   -3.329985   -2.540120
     41          6           0       -4.022012   -4.400367   -2.746935
     42          8           0       -2.809494   -4.112473   -2.812374
     43          8           0       -4.591897   -5.605983   -2.597729
     44          6           0       -3.611213   -6.712193   -2.761166
     45          1           0       -5.254476   -1.743048    4.217221
     46          1           0       -4.377636    4.258698    2.752908
     47          1           0       -5.191069    2.954767   -3.336205
     48          1           0       -5.640114   -4.660505    0.247770
     49          1           0       -5.097506   -3.984434    2.930298
     50          1           0       -7.493739   -3.607270    1.174822
     51          1           0       -7.310825   -2.396697    2.481466
     52          1           0       -7.426995   -4.076641    2.922912
     53          1           0       -3.044307   -4.168624    1.721252
     54          1           0       -2.960424   -4.488871   -0.057197
     55          1           0       -4.552503   -6.512584    1.149811
     56          1           0       -3.370327   -6.128994    2.342779
     57          1           0       -4.370397   -0.996648    5.979082
     58          1           0       -4.634296    0.536970    6.716907
     59          1           0       -2.952274    0.019473    6.433505
     60          1           0       -3.643133    2.500708    7.138944
     61          1           0       -2.449863    3.908484    6.988108
     62          1           0       -2.036909    2.240640    6.507799
     63          1           0       -4.137544    5.579878    0.585581
     64          1           0       -5.956422    4.934190   -1.682183
     65          1           0       -6.018357    6.686204    1.172072
     66          1           0       -6.793501    5.088861    1.448443
     67          1           0       -6.959318    5.848387   -0.049088
     68          1           0       -4.010152    6.532395   -1.843691
     69          1           0       -4.128958    5.373268   -3.162840
     70          1           0       -2.310834    5.569004   -0.881876
     71          1           0       -1.889716    5.237267   -2.596315
     72          1           0       -2.553744    3.943323   -1.501104
     73          1           0       -4.959017    0.294380   -5.838327
     74          1           0       -5.401651    1.898962   -5.153886
     75          1           0       -6.626574    0.562992   -5.136287
     76          1           0       -6.060752   -3.745141   -2.436416
     77          1           0       -3.994860   -7.368440   -3.542441
     78          1           0       -3.459099   -7.140376   -1.770245
     79          1           0       -2.641797   -6.439085   -3.179478
     80         12           0        4.531407    0.701855   -0.681448
     81          6           0        4.577096   -2.461096    1.013475
     82          6           0        4.048003    2.158402    2.364767
     83          6           0        4.037129    3.451592   -2.185455
     84          6           0        3.875860   -1.042695   -3.626354
     85          7           0        4.353591   -0.147287    1.353157
     86          6           0        4.448532   -1.357664    1.882591
     87          6           0        4.483850   -1.379988    3.434305
     88          6           0        3.744121    0.018105    3.711809
     89          6           0        4.095178    0.742252    2.413712
     90          6           0        2.231937   -0.107220    3.794907
     91          6           0        5.947809   -1.377279    3.998969
     92          6           0        6.063207   -1.709094    5.488373
     93          1           0        7.222215   -2.471845    5.943768
     94          7           0        4.592904    2.565871   -0.003041
     95          6           0        4.395815    2.976362    1.267362
     96          6           0        4.527208    4.441377    1.241750
     97          6           0        4.654525    4.876200   -0.175791
     98          6           0        4.406824    3.622595   -0.859316
     99          6           0        4.603359    5.273441    2.488864
    100          6           0        4.938004    6.203556   -0.811372
    101          8           0        4.767339    6.399283   -2.066520
    102          6           0        5.331734    7.293124    0.093797
    103          7           0        3.821190    1.162536   -2.580314
    104          6           0        3.754493    2.437200   -3.003041
    105          6           0        3.477955    2.506343   -4.485984
    106          6           0        3.613358    1.004542   -5.018740
    107          6           0        3.868098    0.282246   -3.677550
    108          6           0        2.111778    3.065520   -4.882561
    109          6           0        4.603969    0.759857   -6.189845
    110          6           0        6.022923    0.991039   -5.722409
    111          7           0        4.451233   -1.374208   -1.274413
    112          6           0        4.132965   -1.884717   -2.551977
    113          6           0        4.095148   -3.356934   -2.435484
    114          6           0        4.373592   -3.601766   -1.082334
    115          6           0        4.551084   -2.368387   -0.399137
    116          6           0        3.783111   -4.266698   -3.484809
    117          6           0        4.547236   -4.622767   -0.074310
    118          8           0        4.597784   -5.852038   -0.082656
    119          6           0        4.561798   -3.925487    1.353970
    120          6           0        5.727516   -4.476996    2.128219
    121          8           0        6.893828   -4.256589    1.757102
    122          8           0        5.282616   -4.985808    3.291639
    123          6           0        6.403675   -5.535122    4.099913
    124          1           0        3.668819    2.695258    3.234752
    125          1           0        3.962229    4.367665   -2.775943
    126          1           0        3.775141   -1.662028   -4.520205
    127          1           0        3.928612   -2.191233    3.889696
    128          1           0        4.178840    0.532465    4.564930
    129          1           0        1.895059   -1.099819    3.535307
    130          1           0        1.837695    0.620524    3.097765
    131          1           0        1.881807    0.202299    4.783827
    132          1           0        6.326944   -0.347253    4.006024
    133          1           0        6.576018   -2.036575    3.432144
    134          1           0        5.137603   -2.141668    5.887229
    135          1           0        6.183772   -0.775659    6.043524
    136          1           0        4.316141    4.695693    3.376060
    137          1           0        3.830861    6.045588    2.405760
    138          1           0        5.574493    5.757116    2.613867
    139          1           0        4.547377    7.452284    0.829941
    140          1           0        5.578435    8.136504   -0.554056
    141          1           0        6.224726    6.982452    0.647555
    142          1           0        4.211991    3.124768   -4.987837
    143          1           0        2.657439    0.621589   -5.405288
    144          1           0        2.177189    3.939748   -5.557501
    145          1           0        1.572632    3.321340   -3.980117
    146          1           0        1.441009    2.351904   -5.357989
    147          1           0        4.422107    1.475424   -6.995480
    148          1           0        4.528819   -0.233846   -6.618678
    149          1           0        6.136191    2.076159   -5.804813
    150          1           0        6.728235    0.470495   -6.367094
    151          1           0        6.136752    0.727126   -4.664563
    152          1           0        4.496122   -5.077517   -3.416189
    153          1           0        3.824582   -3.781042   -4.457528
    154          1           0        2.762331   -4.542365   -3.206829
    155          1           0        3.608770   -4.146450    1.836125
    156          1           0        6.155536   -6.577253    4.323692
    157          1           0        6.516538   -4.848378    4.959796
    158          1           0        7.365245   -5.646608    3.612668
 ---------------------------------------------------------------------

 SCF Done:  E(RCAM-B3LYP) =  -4069.81202757     A.U. after   19 cycles

 Excitation energies and oscillator strengths:

 Excited State   1:      Singlet-A      1.6596 eV  747.07 nm  f=0.1827  <S**2>=0.000
     309 -> 315        0.11481
     310 -> 316       -0.12472
     311 -> 313       -0.46393
     312 -> 314        0.50614
 This state for optimization and/or second-order correction.
 Total Energy, E(TD-HF/TD-DFT) =  -4069.75103827
 Copying the excited state density for this state as the 1-particle RhoCI density.

 Excited State   2:      Singlet-A      1.6879 eV  734.55 nm  f=0.4914  <S**2>=0.000
     309 -> 315       -0.13033
     310 -> 316       -0.11996
     311 -> 313        0.50482
     312 -> 314        0.46297

 Excited State   3:      Singlet-A      2.1847 eV  567.52 nm  f=0.0690  <S**2>=0.000
     309 -> 313       -0.25151
     310 -> 314        0.59162
     311 -> 315       -0.10527
     312 -> 316        0.25101

 Excited State   4:      Singlet-A      2.1907 eV  565.97 nm  f=0.1246  <S**2>=0.000
     309 -> 313        0.58980
     310 -> 314        0.24963
     311 -> 315        0.25508
     312 -> 316        0.10904

 Excited State   5:      Singlet-A      2.3492 eV  527.77 nm  f=0.0000  <S**2>=0.000
     312 -> 313        0.70707

 The electronic state is 1-A.
 Alpha  occ. eigenvalues --  -46.87895 -46.87455 -19.26297 -19.26288 -19.19078
 Alpha  occ. eigenvalues --  -19.19052 -19.19005 -19.18534 -19.18268 -19.17882
 Alpha  occ. eigenvalues --  -14.42540 -14.42308 -14.41543 -14.41145 -14.39514
 Alpha  occ. eigenvalues --  -14.39149 -14.38686 -14.38384 -10.39113 -10.39002
 Alpha  occ. eigenvalues --  -10.35644 -10.35214 -10.34482 -10.34062 -10.31740
 Alpha  occ. eigenvalues --  -10.31634 -10.31484 -10.31123 -10.31001 -10.30864
 Alpha  occ. eigenvalues --  -10.30667 -10.30616 -10.30312 -10.30178 -10.30142
 Alpha  occ. eigenvalues --  -10.30010 -10.29914 -10.29749 -10.29668 -10.29374
 Alpha  occ. eigenvalues --  -10.29218 -10.29180 -10.28784 -10.28642 -10.28633
 Alpha  occ. eigenvalues --  -10.28472 -10.28460 -10.28213 -10.28166 -10.28051
 Alpha  occ. eigenvalues --  -10.27910 -10.27822 -10.27787 -10.27714 -10.27648
 Alpha  occ. eigenvalues --  -10.27569 -10.27527 -10.27494 -10.27474 -10.27295
 Alpha  occ. eigenvalues --  -10.27261 -10.27257 -10.27253 -10.27226 -10.27153
 Alpha  occ. eigenvalues --  -10.26912 -10.26696 -10.26678 -10.26629 -10.26282
 Alpha  occ. eigenvalues --  -10.26256 -10.26215 -10.26116 -10.25994 -10.25956
 Alpha  occ. eigenvalues --  -10.25899 -10.25690 -10.25513 -10.25498 -10.25185
 Alpha  occ. eigenvalues --  -10.24945 -10.24890 -10.24686 -10.24654 -10.24525
 Alpha  occ. eigenvalues --  -10.24487  -3.16638  -3.16205  -1.91520  -1.91106
 Alpha  occ. eigenvalues --   -1.91087  -1.90949  -1.90676  -1.90512  -1.16643
 Alpha  occ. eigenvalues --   -1.16583  -1.08719  -1.08498  -1.07411  -1.06863
 Alpha  occ. eigenvalues --   -1.06790  -1.06672  -1.04672  -1.04312  -1.03856
 Alpha  occ. eigenvalues --   -1.03460  -1.03339  -1.02821  -1.02512  -1.01900
 Alpha  occ. eigenvalues --   -0.92061  -0.91803  -0.89597  -0.89277  -0.89233
 Alpha  occ. eigenvalues --   -0.89045  -0.88363  -0.88003  -0.87979  -0.87755
 Alpha  occ. eigenvalues --   -0.87551  -0.87483  -0.87429  -0.86919  -0.85040
 Alpha  occ. eigenvalues --   -0.84870  -0.84001  -0.83668  -0.83139  -0.82744
 Alpha  occ. eigenvalues --   -0.82718  -0.82515  -0.81635  -0.81455  -0.80679
 Alpha  occ. eigenvalues --   -0.80279  -0.78929  -0.78421  -0.77294  -0.76984
 Alpha  occ. eigenvalues --   -0.76973  -0.76753  -0.75980  -0.75701  -0.74969
 Alpha  occ. eigenvalues --   -0.74610  -0.72871  -0.72482  -0.71752  -0.71407
 Alpha  occ. eigenvalues --   -0.69961  -0.69541  -0.68946  -0.68688  -0.67747
 Alpha  occ. eigenvalues --   -0.67418  -0.67280  -0.67071  -0.65340  -0.65143
 Alpha  occ. eigenvalues --   -0.64930  -0.64684  -0.64585  -0.64500  -0.64344
 Alpha  occ. eigenvalues --   -0.63995  -0.62339  -0.62144  -0.60575  -0.60136
 Alpha  occ. eigenvalues --   -0.59873  -0.59656  -0.59074  -0.58799  -0.58593
 Alpha  occ. eigenvalues --   -0.58242  -0.57656  -0.57405  -0.57399  -0.57037
 Alpha  occ. eigenvalues --   -0.56419  -0.56009  -0.56008  -0.55772  -0.55641
 Alpha  occ. eigenvalues --   -0.55400  -0.55291  -0.55062  -0.54571  -0.54323
 Alpha  occ. eigenvalues --   -0.53943  -0.53808  -0.53424  -0.53310  -0.53034
 Alpha  occ. eigenvalues --   -0.52999  -0.52991  -0.52871  -0.52761  -0.52508
 Alpha  occ. eigenvalues --   -0.52488  -0.52188  -0.52021  -0.51692  -0.51592
 Alpha  occ. eigenvalues --   -0.51526  -0.51267  -0.51023  -0.50757  -0.50292
 Alpha  occ. eigenvalues --   -0.50108  -0.50054  -0.49833  -0.49661  -0.49607
 Alpha  occ. eigenvalues --   -0.49332  -0.49317  -0.49154  -0.49056  -0.48950
 Alpha  occ. eigenvalues --   -0.48662  -0.48605  -0.48527  -0.48410  -0.48186
 Alpha  occ. eigenvalues --   -0.48156  -0.47783  -0.47432  -0.47399  -0.46929
 Alpha  occ. eigenvalues --   -0.46873  -0.46606  -0.46531  -0.46451  -0.46420
 Alpha  occ. eigenvalues --   -0.46240  -0.46064  -0.45886  -0.45875  -0.45646
 Alpha  occ. eigenvalues --   -0.45280  -0.45014  -0.44672  -0.44606  -0.44388
 Alpha  occ. eigenvalues --   -0.44302  -0.44233  -0.44146  -0.44112  -0.43979
 Alpha  occ. eigenvalues --   -0.43890  -0.43775  -0.43556  -0.43452  -0.43419
 Alpha  occ. eigenvalues --   -0.43229  -0.43110  -0.42810  -0.42755  -0.42719
 Alpha  occ. eigenvalues --   -0.42684  -0.42348  -0.42062  -0.41794  -0.41791
 Alpha  occ. eigenvalues --   -0.41581  -0.41500  -0.41317  -0.41220  -0.40995
 Alpha  occ. eigenvalues --   -0.40903  -0.40835  -0.40635  -0.40581  -0.40559
 Alpha  occ. eigenvalues --   -0.40293  -0.40253  -0.40134  -0.39484  -0.39202
 Alpha  occ. eigenvalues --   -0.38532  -0.38157  -0.37777  -0.37552  -0.37397
 Alpha  occ. eigenvalues --   -0.37313  -0.37066  -0.37035  -0.36753  -0.36669
 Alpha  occ. eigenvalues --   -0.36246  -0.36038  -0.34380  -0.34056  -0.33817
 Alpha  occ. eigenvalues --   -0.33755  -0.33281  -0.32967  -0.31531  -0.31131
 Alpha  occ. eigenvalues --   -0.31095  -0.30781  -0.30122  -0.29791  -0.29581
 Alpha  occ. eigenvalues --   -0.29433  -0.29118  -0.28986  -0.24176  -0.23828
 Alpha  occ. eigenvalues --   -0.21229  -0.20908
 Alpha virt. eigenvalues --   -0.08888  -0.08581  -0.01855  -0.01478  -0.00197
 Alpha virt. eigenvalues --    0.00153   0.02095   0.02405   0.02849   0.03482
 Alpha virt. eigenvalues --    0.04660   0.04896   0.05059   0.05262   0.06184

 Mulliken charges:
               1
     1  Mg   0.838807
     2  C   -0.002755
     3  C   -0.094296
     4  C   -0.046071
     5  C   -0.064067
     6  N   -0.256864
     7  C   -0.052000
     8  C   -0.014041
     9  C   -0.086935
    10  C    0.046325
    11  C    0.104802
    12  C    0.053563
    13  C   -0.073144
    14  H    0.039829
    15  N   -0.433019
    16  C    0.168063
    17  C   -0.177707
    18  C   -0.004812
    19  C    0.148599
    20  C    0.110222
    21  C    0.011013
    22  O   -0.249960
    23  C    0.063124
    24  N   -0.341297
    25  C    0.041462
    26  C   -0.028100
    27  C   -0.024084
    28  C    0.075394
    29  C    0.076156
    30  C    0.034945
    31  C   -0.004833
    32  N   -0.310545
    33  C    0.080764
    34  C   -0.170083
    35  C    0.008353
    36  C    0.083193
    37  C    0.127372
    38  C    0.045923
    39  O   -0.188169
    40  C   -0.005176
    41  C    0.212931
    42  O   -0.257362
    43  O   -0.304831
    44  C    0.157546
    45  H   -0.017524
    46  H   -0.017166
    47  H   -0.041281
    48  H    0.001258
    49  H   -0.003835
    50  H    0.025579
    51  H    0.016208
    52  H    0.016899
    53  H    0.010551
    54  H    0.044607
    55  H    0.017570
    56  H    0.017816
    57  H    0.006370
    58  H    0.026948
    59  H    0.037673
    60  H    0.038240
    61  H    0.034673
    62  H    0.028986
    63  H    0.016379
    64  H    0.009593
    65  H    0.023118
    66  H    0.012450
    67  H    0.004988
    68  H    0.006766
    69  H    0.004668
    70  H    0.008800
    71  H    0.020318
    72  H    0.028387
    73  H    0.047098
    74  H    0.009258
    75  H    0.046440
    76  H    0.035456
    77  H    0.043082
    78  H    0.047418
    79  H    0.053936
    80  Mg   0.838058
    81  C   -0.016995
    82  C   -0.088020
    83  C   -0.045371
    84  C   -0.061293
    85  N   -0.254427
    86  C   -0.049963
    87  C   -0.015016
    88  C   -0.090559
    89  C    0.045389
    90  C    0.114901
    91  C    0.062733
    92  C   -0.077426
    93  H    0.034496
    94  N   -0.423416
    95  C    0.162433
    96  C   -0.174406
    97  C   -0.008134
    98  C    0.151957
    99  C    0.099323
   100  C    0.015288
   101  O   -0.253923
   102  C    0.061249
   103  N   -0.349816
   104  C    0.037518
   105  C   -0.020025
   106  C   -0.035491
   107  C    0.088807
   108  C    0.073135
   109  C    0.034597
   110  C   -0.007541
   111  N   -0.324541
   112  C    0.078437
   113  C   -0.160248
   114  C    0.002206
   115  C    0.096683
   116  C    0.130751
   117  C    0.042834
   118  O   -0.188977
   119  C    0.000736
   120  C    0.211004
   121  O   -0.250978
   122  O   -0.306070
   123  C    0.152175
   124  H   -0.019921
   125  H   -0.016182
   126  H   -0.038556
   127  H   -0.002041
   128  H   -0.005066
   129  H    0.021878
   130  H    0.016258
   131  H    0.012637
   132  H    0.014175
   133  H    0.037759
   134  H    0.019527
   135  H    0.019342
   136  H    0.008461
   137  H    0.026962
   138  H    0.038994
   139  H    0.038521
   140  H    0.035725
   141  H    0.033637
   142  H    0.013774
   143  H    0.015677
   144  H    0.023584
   145  H    0.011375
   146  H    0.007594
   147  H    0.005920
   148  H    0.004509
   149  H    0.010408
   150  H    0.017552
   151  H    0.029857
   152  H    0.044337
   153  H    0.008871
   154  H    0.052432
   155  H    0.034117
   156  H    0.043155
   157  H    0.049050
   158  H    0.053650
 Sum of Mulliken charges =  -0.00000

 Dipole moment (field-independent basis, Debye):
    X=             -3.2359    Y=              1.7979    Z=              6.6591  Tot=              7.6188
 Quadrupole moment (field-independent basis, Debye-Ang):
   XX=           -519.3470   YY=           -523.8026   ZZ=           -475.5965
   XY=             19.5434   XZ=             -0.2989   YZ=            -23.1693

 Normal termination of Gaussian 16 at Fri Sep 10 00:50:53 2021.
