 Gaussian 16, Revision A.03,
 Gaussian 16:  ES64L-G16RevA.03 25-Dec-2016

 -----------------------------------
 #p cam-b3lyp/Def2SVP td=(nstates=5)
 -----------------------------------

 --------------------------------
 TDDFT excited states in gaussian
 --------------------------------
 Symbolic Z-matrix:
 Charge =  0 Multiplicity = 1

                         Standard orientation:
 ---------------------------------------------------------------------
 Center     Atomic      Atomic             Coordinates (Angstroms)
 Number     Number       Type             X           Y           Z
 ---------------------------------------------------------------------
      1         12           0       -6.533640   -0.667780    0.350037
      2          6           0       -6.716936    2.843664   -0.319575
      3          6           0       -7.553010   -1.182977   -2.865320
      4          6           0       -6.817572   -3.748060    1.048520
      5          6           0       -6.640505    0.123434    3.742414
      6          7           0       -7.037641    0.733179   -1.288237
      7          6           0       -7.009500    2.054219   -1.433949
      8          6           0       -7.246283    2.519037   -2.902026
      9          6           0       -8.040203    1.246995   -3.443873
     10          6           0       -7.485521    0.194424   -2.500292
     11          6           0       -9.549411    1.339930   -3.243483
     12          6           0       -5.905281    2.732273   -3.681753
     13          6           0       -6.032667    3.492603   -5.005016
     14          1           0       -4.960491    4.393000   -5.401337
     15          7           0       -6.625193   -2.246771   -0.833709
     16          6           0       -7.049754   -2.271113   -2.119960
     17          6           0       -6.927890   -3.676699   -2.562857
     18          6           0       -6.577883   -4.500198   -1.372295
     19          6           0       -6.686669   -3.522611   -0.319743
     20          6           0       -7.088759   -4.107048   -3.988575
     21          6           0       -6.214827   -5.942164   -1.207808
     22          8           0       -6.174512   -6.506926   -0.061513
     23          6           0       -5.990927   -6.708698   -2.446895
     24          7           0       -6.925869   -1.690640    2.126987
     25          6           0       -6.937029   -3.027565    2.165598
     26          6           0       -6.955659   -3.532884    3.577776
     27          6           0       -6.708677   -2.257880    4.506816
     28          6           0       -6.670431   -1.168326    3.406962
     29          6           0       -8.243424   -4.243006    4.017548
     30          6           0       -5.529772   -2.335881    5.509073
     31          6           0       -4.217872   -2.362400    4.757201
     32          7           0       -6.478472    1.148228    1.537520
     33          6           0       -6.558704    1.245065    2.934252
     34          6           0       -6.589335    2.681254    3.266656
     35          6           0       -6.541199    3.324162    2.031262
     36          6           0       -6.510606    2.351081    0.991806
     37          6           0       -6.711970    3.231895    4.572867
     38          6           0       -6.533355    4.606730    1.346561
     39          8           0       -6.452651    5.781824    1.707303
     40          6           0       -6.769792    4.346993   -0.206649
     41          6           0       -5.742894    5.145443   -0.962472
     42          8           0       -4.529913    4.861891   -0.887364
     43          8           0       -6.363130    5.957180   -1.832491
     44          6           0       -5.399927    6.756671   -2.635738
     45          1           0       -8.090561   -1.462612   -3.773496
     46          1           0       -6.807457   -4.800408    1.339895
     47          1           0       -6.588233    0.446627    4.783696
     48          1           0       -7.862424    3.412793   -3.002007
     49          1           0       -7.774801    1.010082   -4.473997
     50          1           0       -9.818903    2.209238   -2.643817
     51          1           0       -9.831980    0.420751   -2.729908
     52          1           0      -10.069352    1.319801   -4.201624
     53          1           0       -5.548917    1.771557   -4.053358
     54          1           0       -5.166746    3.227999   -3.050764
     55          1           0       -6.999367    3.990226   -5.087307
     56          1           0       -6.031862    2.766200   -5.817751
     57          1           0       -7.505155   -3.309788   -4.603015
     58          1           0       -7.850517   -4.886314   -4.001928
     59          1           0       -6.159794   -4.493836   -4.407802
     60          1           0       -6.893664   -6.677679   -3.057349
     61          1           0       -5.653859   -7.695963   -2.132979
     62          1           0       -5.210133   -6.218483   -3.029131
     63          1           0       -6.158679   -4.256317    3.744791
     64          1           0       -7.573830   -2.032826    5.130943
     65          1           0       -8.081391   -5.257875    4.381541
     66          1           0       -8.936581   -4.235075    3.176857
     67          1           0       -8.819098   -3.716076    4.778047
     68          1           0       -5.585614   -3.256327    6.089251
     69          1           0       -5.505833   -1.502292    6.211075
     70          1           0       -4.106155   -3.415019    4.499625
     71          1           0       -3.403411   -2.029548    5.401463
     72          1           0       -4.282839   -1.803558    3.823412
     73          1           0       -5.999385    4.054979    4.625052
     74          1           0       -6.509483    2.483489    5.338695
     75          1           0       -7.755356    3.546676    4.562166
     76          1           0       -7.785686    4.672790   -0.427866
     77          1           0       -5.660254    7.806148   -2.497674
     78          1           0       -5.433875    6.356007   -3.649011
     79          1           0       -4.365478    6.754092   -2.290414
     80         12           0        6.689716   -0.843183   -0.216699
     81          6           0        6.577284    2.563869    0.905099
     82          6           0        5.697391    0.288635   -3.277569
     83          6           0        6.343196   -3.867279   -1.112334
     84          6           0        6.550979   -1.804065    3.130410
     85          7           0        6.229317    1.186362   -0.965848
     86          6           0        6.281092    2.411644   -0.465496
     87          6           0        6.078481    3.541992   -1.509932
     88          6           0        5.259948    2.707826   -2.611312
     89          6           0        5.782422    1.307807   -2.295647
     90          6           0        3.757795    2.720059   -2.381684
     91          6           0        7.437537    4.074426   -2.085699
     92          6           0        7.333630    5.381379   -2.874895
     93          1           0        8.433136    6.338169   -2.784758
     94          7           0        6.585802   -1.641499   -2.030657
     95          6           0        6.182822   -1.032806   -3.165724
     96          6           0        6.268964   -2.053235   -4.221878
     97          6           0        6.598213   -3.358461   -3.587310
     98          6           0        6.499187   -3.002703   -2.185982
     99          6           0        6.125728   -1.728716   -5.680501
    100          6           0        6.932672   -4.707199   -4.148792
    101          8           0        6.950442   -5.757031   -3.413700
    102          6           0        7.147201   -4.777708   -5.601546
    103          7           0        6.264839   -2.585388    0.835220
    104          6           0        6.222491   -3.776197    0.212223
    105          6           0        6.174786   -4.911037    1.207335
    106          6           0        6.439037   -4.241554    2.635459
    107          6           0        6.508176   -2.758257    2.210696
    108          6           0        4.868272   -5.703189    1.250813
    109          6           0        7.605099   -4.823518    3.480618
    110          6           0        8.927220   -4.522820    2.812069
    111          7           0        6.768932    0.161423    1.694470
    112          6           0        6.667299   -0.428873    2.973257
    113          6           0        6.659836    0.669947    3.960653
    114          6           0        6.735054    1.833537    3.180336
    115          6           0        6.765436    1.485317    1.802908
    116          6           0        6.542287    0.520007    5.371256
    117          6           0        6.784936    3.277644    3.208231
    118          8           0        6.876038    4.126749    4.093927
    119          6           0        6.557434    3.819769    1.731496
    120          6           0        7.607747    4.859445    1.451429
    121          8           0        8.809437    4.544411    1.394007
    122          8           0        7.006285    6.005657    1.084268
    123          6           0        8.007196    7.064226    0.785246
    124          1           0        5.171931    0.506872   -4.207695
    125          1           0        6.330152   -4.930879   -1.361472
    126          1           0        6.608827   -2.024864    4.198385
    127          1           0        5.486543    4.380401   -1.162865
    128          1           0        5.541619    3.001679   -3.619117
    129          1           0        3.497161    3.191042   -1.445533
    130          1           0        3.451841    1.682067   -2.381072
    131          1           0        3.250154    3.183385   -3.232541
    132          1           0        7.777463    3.400342   -2.882443
    133          1           0        8.166382    4.180190   -1.305808
    134          1           0        6.372304    5.884442   -2.714492
    135          1           0        7.337193    5.143915   -3.941480
    136          1           0        5.724621   -0.718744   -5.830395
    137          1           0        5.350499   -2.391023   -6.080805
    138          1           0        7.049943   -1.887774   -6.240143
    139          1           0        6.254388   -4.429929   -6.115732
    140          1           0        7.462937   -5.803608   -5.800864
    141          1           0        7.954217   -4.086835   -5.869952
    142          1           0        6.956697   -5.633465    1.007799
    143          1           0        5.566733   -4.338243    3.298461
    144          1           0        5.008109   -6.785889    1.071151
    145          1           0        4.188957   -5.281416    0.521999
    146          1           0        4.301954   -5.609473    2.175858
    147          1           0        7.525947   -5.911984    3.536336
    148          1           0        7.628962   -4.449808    4.498838
    149          1           0        9.016511   -5.322677    2.070890
    150          1           0        9.739653   -4.562002    3.534881
    151          1           0        8.885802   -3.572194    2.267786
    152          1           0        7.262240    1.193407    5.817013
    153          1           0        6.716801   -0.509300    5.677581
    154          1           0        5.500417    0.819450    5.513075
    155          1           0        5.549356    4.233658    1.686144
    156          1           0        7.761598    7.923679    1.416681
    157          1           0        7.964367    7.215107   -0.309811
    158          1           0        9.035272    6.877489    1.072729
 ---------------------------------------------------------------------

 SCF Done:  E(RCAM-B3LYP) =  -4069.81174187     A.U. after   19 cycles

 Excitation energies and oscillator strengths:

 Excited State   1:      Singlet-A      1.6668 eV  743.85 nm  f=0.0489  <S**2>=0.000
     309 -> 315       -0.10768
     310 -> 316        0.13361
     311 -> 313       -0.42898
     312 -> 314        0.53604
 This state for optimization and/or second-order correction.
 Total Energy, E(TD-HF/TD-DFT) =  -4069.75048876
 Copying the excited state density for this state as the 1-particle RhoCI density.

 Excited State   2:      Singlet-A      1.6876 eV  734.67 nm  f=0.6930  <S**2>=0.000
     309 -> 315        0.13880
     310 -> 316        0.11008
     311 -> 313        0.53493
     312 -> 314        0.42817

 Excited State   3:      Singlet-A      2.1843 eV  567.61 nm  f=0.0531  <S**2>=0.000
     309 -> 313       -0.17664
     310 -> 314        0.61841
     312 -> 316       -0.26110

 Excited State   4:      Singlet-A      2.1936 eV  565.20 nm  f=0.1375  <S**2>=0.000
     309 -> 313        0.61588
     310 -> 314        0.17501
     311 -> 315       -0.26852

 Excited State   5:      Singlet-A      2.6479 eV  468.24 nm  f=0.0000  <S**2>=0.000
     312 -> 313        0.70710

 The electronic state is 1-A.
 Alpha  occ. eigenvalues --  -46.87855 -46.87545 -19.26382 -19.26202 -19.19116
 Alpha  occ. eigenvalues --  -19.19024 -19.18861 -19.18637 -19.18224 -19.17921
 Alpha  occ. eigenvalues --  -14.42513 -14.42376 -14.41506 -14.41246 -14.39460
 Alpha  occ. eigenvalues --  -14.39241 -14.38644 -14.38483 -10.39172 -10.38951
 Alpha  occ. eigenvalues --  -10.35494 -10.35317 -10.34446 -10.34096 -10.31792
 Alpha  occ. eigenvalues --  -10.31614 -10.31469 -10.31178 -10.30977 -10.30902
 Alpha  occ. eigenvalues --  -10.30627 -10.30561 -10.30287 -10.30259 -10.30243
 Alpha  occ. eigenvalues --  -10.30039 -10.29972 -10.29782 -10.29684 -10.29332
 Alpha  occ. eigenvalues --  -10.29308 -10.29295 -10.28838 -10.28677 -10.28569
 Alpha  occ. eigenvalues --  -10.28530 -10.28424 -10.28288 -10.28196 -10.27981
 Alpha  occ. eigenvalues --  -10.27890 -10.27845 -10.27788 -10.27638 -10.27551
 Alpha  occ. eigenvalues --  -10.27543 -10.27541 -10.27493 -10.27466 -10.27424
 Alpha  occ. eigenvalues --  -10.27399 -10.27364 -10.27363 -10.27278 -10.27227
 Alpha  occ. eigenvalues --  -10.26903 -10.26825 -10.26565 -10.26450 -10.26367
 Alpha  occ. eigenvalues --  -10.26304 -10.26221 -10.26071 -10.26057 -10.25871
 Alpha  occ. eigenvalues --  -10.25826 -10.25805 -10.25741 -10.25473 -10.25298
 Alpha  occ. eigenvalues --  -10.24886 -10.24842 -10.24757 -10.24728 -10.24655
 Alpha  occ. eigenvalues --  -10.24579  -3.16598  -3.16295  -1.91480  -1.91177
 Alpha  occ. eigenvalues --   -1.91067  -1.90909  -1.90766  -1.90603  -1.16730
 Alpha  occ. eigenvalues --   -1.16499  -1.08684  -1.08525  -1.07261  -1.06891
 Alpha  occ. eigenvalues --   -1.06808  -1.06737  -1.04644  -1.04373  -1.03818
 Alpha  occ. eigenvalues --   -1.03548  -1.03290  -1.02927  -1.02468  -1.01997
 Alpha  occ. eigenvalues --   -0.92034  -0.91862  -0.89570  -0.89390  -0.89270
 Alpha  occ. eigenvalues --   -0.89003  -0.88336  -0.88119  -0.87918  -0.87738
 Alpha  occ. eigenvalues --   -0.87680  -0.87566  -0.87327  -0.87034  -0.85061
 Alpha  occ. eigenvalues --   -0.84869  -0.83986  -0.83776  -0.83015  -0.82854
 Alpha  occ. eigenvalues --   -0.82721  -0.82531  -0.81662  -0.81470  -0.80663
 Alpha  occ. eigenvalues --   -0.80325  -0.78850  -0.78536  -0.77281  -0.77028
 Alpha  occ. eigenvalues --   -0.77011  -0.76771  -0.75996  -0.75701  -0.74951
 Alpha  occ. eigenvalues --   -0.74693  -0.72829  -0.72586  -0.71733  -0.71455
 Alpha  occ. eigenvalues --   -0.69953  -0.69662  -0.68946  -0.68702  -0.67701
 Alpha  occ. eigenvalues --   -0.67491  -0.67304  -0.67089  -0.65364  -0.65139
 Alpha  occ. eigenvalues --   -0.64918  -0.64689  -0.64653  -0.64530  -0.64322
 Alpha  occ. eigenvalues --   -0.64098  -0.62375  -0.62151  -0.60494  -0.60245
 Alpha  occ. eigenvalues --   -0.59877  -0.59661  -0.59047  -0.58877  -0.58563
 Alpha  occ. eigenvalues --   -0.58309  -0.57654  -0.57421  -0.57365  -0.57130
 Alpha  occ. eigenvalues --   -0.56367  -0.56094  -0.56065  -0.55758  -0.55577
 Alpha  occ. eigenvalues --   -0.55397  -0.55345  -0.55135  -0.54590  -0.54372
 Alpha  occ. eigenvalues --   -0.53978  -0.53771  -0.53354  -0.53291  -0.53123
 Alpha  occ. eigenvalues --   -0.53025  -0.52986  -0.52818  -0.52782  -0.52572
 Alpha  occ. eigenvalues --   -0.52484  -0.52310  -0.51957  -0.51771  -0.51694
 Alpha  occ. eigenvalues --   -0.51538  -0.51257  -0.51082  -0.50624  -0.50398
 Alpha  occ. eigenvalues --   -0.50082  -0.49976  -0.49864  -0.49768  -0.49581
 Alpha  occ. eigenvalues --   -0.49377  -0.49275  -0.49168  -0.49081  -0.48963
 Alpha  occ. eigenvalues --   -0.48660  -0.48512  -0.48502  -0.48429  -0.48273
 Alpha  occ. eigenvalues --   -0.48241  -0.47759  -0.47481  -0.47355  -0.47016
 Alpha  occ. eigenvalues --   -0.46857  -0.46637  -0.46595  -0.46424  -0.46416
 Alpha  occ. eigenvalues --   -0.46219  -0.46164  -0.45971  -0.45886  -0.45695
 Alpha  occ. eigenvalues --   -0.45251  -0.45102  -0.44639  -0.44570  -0.44393
 Alpha  occ. eigenvalues --   -0.44354  -0.44201  -0.44160  -0.44080  -0.43996
 Alpha  occ. eigenvalues --   -0.43979  -0.43832  -0.43565  -0.43452  -0.43427
 Alpha  occ. eigenvalues --   -0.43262  -0.43087  -0.42805  -0.42779  -0.42774
 Alpha  occ. eigenvalues --   -0.42711  -0.42456  -0.42070  -0.41855  -0.41765
 Alpha  occ. eigenvalues --   -0.41613  -0.41545  -0.41336  -0.41204  -0.40942
 Alpha  occ. eigenvalues --   -0.40882  -0.40860  -0.40628  -0.40625  -0.40581
 Alpha  occ. eigenvalues --   -0.40382  -0.40334  -0.40104  -0.39487  -0.39334
 Alpha  occ. eigenvalues --   -0.38525  -0.38243  -0.37844  -0.37531  -0.37375
 Alpha  occ. eigenvalues --   -0.37341  -0.37156  -0.37075  -0.36794  -0.36641
 Alpha  occ. eigenvalues --   -0.36262  -0.36100  -0.34344  -0.34137  -0.33859
 Alpha  occ. eigenvalues --   -0.33730  -0.33246  -0.33061  -0.31391  -0.31194
 Alpha  occ. eigenvalues --   -0.31095  -0.30856  -0.30085  -0.29823  -0.29503
 Alpha  occ. eigenvalues --   -0.29375  -0.29225  -0.29096  -0.24140  -0.23919
 Alpha  occ. eigenvalues --   -0.21184  -0.21003
 Alpha virt. eigenvalues --   -0.08830  -0.08681  -0.01806  -0.01573  -0.00114
 Alpha virt. eigenvalues --    0.00074   0.02147   0.02326   0.03052   0.03329
 Alpha virt. eigenvalues --    0.04642   0.04856   0.05010   0.05303   0.06069

 Mulliken charges:
               1
     1  Mg   0.838516
     2  C   -0.003195
     3  C   -0.094399
     4  C   -0.045754
     5  C   -0.063760
     6  N   -0.256772
     7  C   -0.052592
     8  C   -0.013982
     9  C   -0.086970
    10  C    0.046190
    11  C    0.104796
    12  C    0.053603
    13  C   -0.071434
    14  H    0.034968
    15  N   -0.433142
    16  C    0.168343
    17  C   -0.177245
    18  C   -0.003908
    19  C    0.148651
    20  C    0.110188
    21  C    0.012350
    22  O   -0.249483
    23  C    0.062469
    24  N   -0.341078
    25  C    0.041227
    26  C   -0.028218
    27  C   -0.024023
    28  C    0.074805
    29  C    0.076132
    30  C    0.035096
    31  C   -0.004534
    32  N   -0.310510
    33  C    0.080382
    34  C   -0.169420
    35  C    0.008431
    36  C    0.082970
    37  C    0.127250
    38  C    0.046202
    39  O   -0.188193
    40  C   -0.005408
    41  C    0.213019
    42  O   -0.257549
    43  O   -0.304637
    44  C    0.157801
    45  H   -0.017648
    46  H   -0.016707
    47  H   -0.041182
    48  H    0.001006
    49  H   -0.004311
    50  H    0.025568
    51  H    0.016636
    52  H    0.016647
    53  H    0.010852
    54  H    0.043723
    55  H    0.018263
    56  H    0.017796
    57  H    0.005684
    58  H    0.026973
    59  H    0.039381
    60  H    0.037330
    61  H    0.035932
    62  H    0.031445
    63  H    0.016573
    64  H    0.009630
    65  H    0.023305
    66  H    0.012563
    67  H    0.004884
    68  H    0.006432
    69  H    0.005011
    70  H    0.008633
    71  H    0.018282
    72  H    0.028910
    73  H    0.047966
    74  H    0.009369
    75  H    0.046100
    76  H    0.035256
    77  H    0.043208
    78  H    0.046097
    79  H    0.053209
    80  Mg   0.837947
    81  C   -0.016659
    82  C   -0.087763
    83  C   -0.045704
    84  C   -0.064933
    85  N   -0.254622
    86  C   -0.049300
    87  C   -0.015194
    88  C   -0.090655
    89  C    0.045966
    90  C    0.114400
    91  C    0.062535
    92  C   -0.077750
    93  H    0.034455
    94  N   -0.423448
    95  C    0.162884
    96  C   -0.174902
    97  C   -0.008134
    98  C    0.152128
    99  C    0.099552
   100  C    0.015295
   101  O   -0.253450
   102  C    0.061307
   103  N   -0.350020
   104  C    0.037545
   105  C   -0.019805
   106  C   -0.034789
   107  C    0.089045
   108  C    0.073675
   109  C    0.034766
   110  C   -0.007611
   111  N   -0.324186
   112  C    0.078697
   113  C   -0.163093
   114  C    0.002588
   115  C    0.096199
   116  C    0.131410
   117  C    0.042630
   118  O   -0.187527
   119  C    0.000779
   120  C    0.211148
   121  O   -0.251407
   122  O   -0.305156
   123  C    0.152148
   124  H   -0.019922
   125  H   -0.015885
   126  H   -0.040652
   127  H    0.000306
   128  H   -0.004889
   129  H    0.024439
   130  H    0.014373
   131  H    0.016373
   132  H    0.013549
   133  H    0.037515
   134  H    0.021339
   135  H    0.019208
   136  H    0.008598
   137  H    0.025419
   138  H    0.039427
   139  H    0.037820
   140  H    0.036020
   141  H    0.033840
   142  H    0.014128
   143  H    0.012425
   144  H    0.024889
   145  H    0.011783
   146  H    0.005811
   147  H    0.006085
   148  H    0.003527
   149  H    0.010804
   150  H    0.017720
   151  H    0.030207
   152  H    0.045896
   153  H    0.008200
   154  H    0.047399
   155  H    0.036508
   156  H    0.044123
   157  H    0.049399
   158  H    0.053227
 Sum of Mulliken charges =  -0.00000

 Dipole moment (field-independent basis, Debye):
    X=             -4.4362    Y=             -2.2045    Z=             -7.1374  Tot=              8.6880
 Quadrupole moment (field-independent basis, Debye-Ang):
   XX=           -517.8180   YY=           -545.0781   ZZ=           -454.3037
   XY=              6.7721   XZ=             -1.4783   YZ=            -42.6718

 Normal termination of Gaussian 16 at Sat Sep  4 09:58:39 2021.
