 Gaussian 16, Revision A.03,
 Gaussian 16:  ES64L-G16RevA.03 25-Dec-2016

 -----------------------------------
 #p cam-b3lyp/Def2SVP td=(nstates=5)
 -----------------------------------

 --------------------------------
 TDDFT excited states in gaussian
 --------------------------------
 Symbolic Z-matrix:
 Charge =  0 Multiplicity = 1

                         Standard orientation:
 ---------------------------------------------------------------------
 Center     Atomic      Atomic             Coordinates (Angstroms)
 Number     Number       Type             X           Y           Z
 ---------------------------------------------------------------------
      1         12           0        6.343827   -0.911565    0.056582
      2          6           0        6.683978    2.058703   -1.911671
      3          6           0        7.269984    0.952678    2.760264
      4          6           0        6.491845   -3.603939    1.725663
      5          6           0        6.559440   -2.725706   -2.911256
      6          7           0        6.881364    1.225245    0.270460
      7          6           0        6.914572    2.270258   -0.550525
      8          6           0        7.143208    3.625450    0.183337
      9          6           0        7.862829    3.081535    1.497985
     10          6           0        7.277238    1.680914    1.533622
     11          6           0        9.378603    2.976913    1.363883
     12          6           0        5.798296    4.350907    0.524884
     13          6           0        5.935082    5.817674    0.943499
     14          1           0        4.900035    6.759302    0.544295
     15          7           0        6.333803   -1.210573    2.009361
     16          6           0        6.729904   -0.335498    2.964679
     17          6           0        6.530574   -1.025459    4.257313
     18          6           0        6.165650   -2.439825    3.966633
     19          6           0        6.343723   -2.481983    2.537685
     20          6           0        6.640687   -0.336976    5.583064
     21          6           0        5.736294   -3.576337    4.839631
     22          8           0        5.692309   -4.781388    4.414789
     23          6           0        5.449677   -3.250623    6.248461
     24          7           0        6.722554   -2.893936   -0.476714
     25          6           0        6.669393   -3.874913    0.430945
     26          6           0        6.692681   -5.225006   -0.222235
     27          6           0        6.527407   -4.961280   -1.788404
     28          6           0        6.519459   -3.412807   -1.767420
     29          6           0        7.953181   -6.065701    0.023495
     30          6           0        5.367145   -5.695156   -2.506484
     31          6           0        4.040197   -5.160830   -2.015769
     32          7           0        6.401805   -0.446833   -2.062783
     33          6           0        6.515612   -1.357803   -3.122904
     34          6           0        6.623035   -0.566762   -4.362574
     35          6           0        6.580649    0.758240   -3.933135
     36          6           0        6.481151    0.792856   -2.512855
     37          6           0        6.799407   -1.091456   -5.673308
     38          6           0        6.621073    2.152965   -4.341747
     39          8           0        6.605190    2.740155   -5.424544
     40          6           0        6.812311    3.050935   -3.040630
     41          6           0        5.810059    4.170757   -3.109900
     42          8           0        4.586528    3.940418   -3.024572
     43          8           0        6.450909    5.346719   -3.026436
     44          6           0        5.511328    6.499216   -3.059489
     45          1           0        7.774325    1.378508    3.629891
     46          1           0        6.436540   -4.558544    2.253024
     47          1           0        6.544580   -3.223525   -3.882548
     48          1           0        7.799935    4.320584   -0.340039
     49          1           0        7.564894    3.639515    2.385461
     50          1           0        9.702489    3.171513    0.341558
     51          1           0        9.626667    1.955730    1.653956
     52          1           0        9.876960    3.623220    2.086867
     53          1           0        5.387938    3.933100    1.444180
     54          1           0        5.098025    4.277468   -0.307915
     55          1           0        6.922953    6.210739    0.701590
     56          1           0        5.882045    5.868837    2.031051
     57          1           0        7.082579    0.653748    5.484364
     58          1           0        7.363151   -0.898932    6.174639
     59          1           0        5.685492   -0.300421    6.107087
     60          1           0        6.339996   -2.819135    6.706390
     61          1           0        5.071515   -4.167974    6.698251
     62          1           0        4.681773   -2.477262    6.282891
     63          1           0        5.865053   -5.841939    0.125404
     64          1           0        7.415253   -5.255452   -2.348641
     65          1           0        7.749503   -7.041365    0.465422
     66          1           0        8.628314   -5.485158    0.651552
     67          1           0        8.569484   -6.234200   -0.859226
     68          1           0        5.390119   -6.759312   -2.274126
     69          1           0        5.398396   -5.591786   -3.591191
     70          1           0        3.872033   -5.729026   -1.101599
     71          1           0        3.256451   -5.358219   -2.747883
     72          1           0        4.112918   -4.109364   -1.737173
     73          1           0        6.128986   -0.526440   -6.320812
     74          1           0        6.576643   -2.157707   -5.706291
     75          1           0        7.856438   -0.880523   -5.834708
     76          1           0        7.838058    3.417751   -3.060906
     77          1           0        5.825262    7.145883   -3.878941
     78          1           0        5.504699    6.922521   -2.054912
     79          1           0        4.485367    6.276407   -3.354616
     80         12           0       -6.875010   -0.371818   -0.071153
     81          6           0       -4.523024    1.904850    1.399895
     82          6           0       -9.258386    2.023177    0.395927
     83          6           0       -9.051942   -2.508921   -0.943625
     84          6           0       -4.617071   -2.934363    0.622209
     85          7           0       -6.780065    1.660954    0.795497
     86          6           0       -5.819910    2.442901    1.265598
     87          6           0       -6.257724    3.907387    1.536068
     88          6           0       -7.831470    3.655434    1.732854
     89          6           0       -7.982469    2.386900    0.895788
     90          6           0       -8.214086    3.329682    3.167024
     91          6           0       -5.975390    4.850932    0.314585
     92          6           0       -6.090596    6.346569    0.617185
     93          1           0       -5.180386    7.265881   -0.060188
     94          7           0       -8.740472   -0.121433   -0.700380
     95          6           0       -9.555582    0.921035   -0.435510
     96          6           0      -10.827014    0.619424   -1.111266
     97          6           0      -10.750838   -0.762150   -1.659141
     98          6           0       -9.491770   -1.201600   -1.091933
     99          6           0      -11.929941    1.627213   -1.257344
    100          6           0      -11.666597   -1.560717   -2.536568
    101          8           0      -11.516744   -2.823955   -2.693390
    102          6           0      -12.799401   -0.837378   -3.132387
    103          7           0       -6.937222   -2.446959    0.039467
    104          6           0       -7.978770   -3.134994   -0.460240
    105          6           0       -7.678949   -4.613962   -0.516568
    106          6           0       -6.122625   -4.750151   -0.174692
    107          6           0       -5.797864   -3.269346    0.120526
    108          6           0       -8.487965   -5.493499    0.436476
    109          6           0       -5.240073   -5.509680   -1.202742
    110          6           0       -5.148216   -4.718900   -2.487900
    111          7           0       -4.850117   -0.502099    0.671064
    112          6           0       -4.103060   -1.676402    0.909813
    113          6           0       -2.823482   -1.261708    1.520661
    114          6           0       -2.925165    0.134318    1.616837
    115          6           0       -4.187761    0.557824    1.120844
    116          6           0       -1.783698   -2.135142    1.947375
    117          6           0       -2.255798    1.345024    2.034955
    118          8           0       -1.129907    1.615997    2.450508
    119          6           0       -3.311180    2.533531    2.029820
    120          6           0       -2.685578    3.707210    1.327239
    121          8           0       -2.409183    3.645016    0.116307
    122          8           0       -2.717089    4.776915    2.142779
    123          6           0       -2.117628    5.969185    1.486308
    124          1           0      -10.122992    2.612564    0.702443
    125          1           0       -9.722219   -3.278905   -1.332636
    126          1           0       -3.820227   -3.664870    0.777383
    127          1           0       -5.837101    4.349272    2.431382
    128          1           0       -8.417517    4.465529    1.306635
    129          1           0       -7.346053    3.204752    3.797133
    130          1           0       -8.781794    2.409680    3.118303
    131          1           0       -8.900744    4.087333    3.555349
    132          1           0       -6.787683    4.743895   -0.415800
    133          1           0       -5.014598    4.641962   -0.114174
    134          1           0       -6.109303    6.548796    1.695006
    135          1           0       -7.061924    6.698755    0.261515
    136          1           0      -11.766815    2.498564   -0.611166
    137          1           0      -12.840887    1.163678   -0.863428
    138          1           0      -12.101423    1.916337   -2.296413
    139          1           0      -13.409292   -0.407103   -2.341591
    140          1           0      -13.286815   -1.553789   -3.796524
    141          1           0      -12.409021    0.000903   -3.720180
    142          1           0       -7.856172   -5.006898   -1.510196
    143          1           0       -5.958124   -5.300943    0.763069
    144          1           0       -9.051375   -6.293433   -0.079999
    145          1           0       -9.158913   -4.858872    1.000049
    146          1           0       -7.909960   -5.975061    1.223381
    147          1           0       -5.697954   -6.467954   -1.460033
    148          1           0       -4.238479   -5.717965   -0.841619
    149          1           0       -6.065829   -4.997015   -3.014907
    150          1           0       -4.264939   -5.008496   -3.053581
    151          1           0       -5.194690   -3.641490   -2.291231
    152          1           0       -0.852037   -1.693750    1.619224
    153          1           0       -1.914450   -3.136526    1.542509
    154          1           0       -1.936864   -2.106659    3.029503
    155          1           0       -3.554263    2.760271    3.068599
    156          1           0       -1.323433    6.331753    2.146217
    157          1           0       -2.961174    6.656923    1.288290
    158          1           0       -1.570798    5.811615    0.564027
 ---------------------------------------------------------------------

 SCF Done:  E(RCAM-B3LYP) =  -4069.81136459     A.U. after   19 cycles

 Excitation energies and oscillator strengths:

 Excited State   1:      Singlet-A      1.6709 eV  742.02 nm  f=0.2896  <S**2>=0.000
     309 -> 315        0.14392
     311 -> 313        0.57280
     312 -> 314        0.37807
 This state for optimization and/or second-order correction.
 Total Energy, E(TD-HF/TD-DFT) =  -4069.74995976
 Copying the excited state density for this state as the 1-particle RhoCI density.

 Excited State   2:      Singlet-A      1.6840 eV  736.25 nm  f=0.4922  <S**2>=0.000
     310 -> 316        0.14704
     311 -> 313       -0.37762
     312 -> 314        0.57206

 Excited State   3:      Singlet-A      2.1840 eV  567.69 nm  f=0.0232  <S**2>=0.000
     309 -> 313        0.58119
     310 -> 314       -0.27621
     311 -> 315       -0.24542
     312 -> 316        0.11590

 Excited State   4:      Singlet-A      2.1925 eV  565.50 nm  f=0.1630  <S**2>=0.000
     309 -> 313        0.27430
     310 -> 314        0.57857
     311 -> 315       -0.11912
     312 -> 316       -0.25153

 Excited State   5:      Singlet-A      2.5914 eV  478.45 nm  f=0.0000  <S**2>=0.000
     312 -> 313        0.70652

 The electronic state is 1-A.
 Alpha  occ. eigenvalues --  -46.87571 -46.87409 -19.26247 -19.25906 -19.19020
 Alpha  occ. eigenvalues --  -19.18635 -19.18597 -19.18487 -19.17971 -19.17811
 Alpha  occ. eigenvalues --  -14.42413 -14.42068 -14.41273 -14.41092 -14.39265
 Alpha  occ. eigenvalues --  -14.39020 -14.38508 -14.38206 -10.38961 -10.38667
 Alpha  occ. eigenvalues --  -10.35313 -10.35122 -10.34147 -10.34029 -10.31672
 Alpha  occ. eigenvalues --  -10.31338 -10.31225 -10.31029 -10.30941 -10.30523
 Alpha  occ. eigenvalues --  -10.30309 -10.30272 -10.30195 -10.30147 -10.30058
 Alpha  occ. eigenvalues --  -10.29865 -10.29808 -10.29583 -10.29352 -10.29313
 Alpha  occ. eigenvalues --  -10.29272 -10.28888 -10.28644 -10.28579 -10.28357
 Alpha  occ. eigenvalues --  -10.28318 -10.28158 -10.28071 -10.27984 -10.27914
 Alpha  occ. eigenvalues --  -10.27746 -10.27587 -10.27437 -10.27428 -10.27397
 Alpha  occ. eigenvalues --  -10.27391 -10.27380 -10.27356 -10.27298 -10.27226
 Alpha  occ. eigenvalues --  -10.27219 -10.27178 -10.27107 -10.27030 -10.26965
 Alpha  occ. eigenvalues --  -10.26788 -10.26602 -10.26342 -10.26241 -10.26087
 Alpha  occ. eigenvalues --  -10.26051 -10.25976 -10.25952 -10.25911 -10.25846
 Alpha  occ. eigenvalues --  -10.25755 -10.25671 -10.25529 -10.25332 -10.25195
 Alpha  occ. eigenvalues --  -10.24784 -10.24633 -10.24605 -10.24467 -10.24465
 Alpha  occ. eigenvalues --  -10.24438  -3.16321  -3.16150  -1.91203  -1.91030
 Alpha  occ. eigenvalues --   -1.90792  -1.90629  -1.90618  -1.90460  -1.16534
 Alpha  occ. eigenvalues --   -1.16247  -1.08574  -1.08268  -1.06892  -1.06888
 Alpha  occ. eigenvalues --   -1.06813  -1.06228  -1.04411  -1.04201  -1.03577
 Alpha  occ. eigenvalues --   -1.03399  -1.02952  -1.02864  -1.02044  -1.02024
 Alpha  occ. eigenvalues --   -0.91900  -0.91602  -0.89409  -0.89206  -0.89076
 Alpha  occ. eigenvalues --   -0.88807  -0.88137  -0.87980  -0.87704  -0.87600
 Alpha  occ. eigenvalues --   -0.87519  -0.87302  -0.87039  -0.86913  -0.84920
 Alpha  occ. eigenvalues --   -0.84609  -0.83792  -0.83647  -0.82852  -0.82638
 Alpha  occ. eigenvalues --   -0.82573  -0.82292  -0.81508  -0.81228  -0.80357
 Alpha  occ. eigenvalues --   -0.80237  -0.78552  -0.78438  -0.77064  -0.76882
 Alpha  occ. eigenvalues --   -0.76818  -0.76584  -0.75760  -0.75569  -0.74723
 Alpha  occ. eigenvalues --   -0.74592  -0.72613  -0.72423  -0.71502  -0.71329
 Alpha  occ. eigenvalues --   -0.69672  -0.69630  -0.68747  -0.68511  -0.67517
 Alpha  occ. eigenvalues --   -0.67286  -0.67118  -0.66835  -0.65190  -0.64909
 Alpha  occ. eigenvalues --   -0.64684  -0.64568  -0.64498  -0.64272  -0.64119
 Alpha  occ. eigenvalues --   -0.63948  -0.62186  -0.61940  -0.60257  -0.60096
 Alpha  occ. eigenvalues --   -0.59718  -0.59429  -0.58907  -0.58635  -0.58339
 Alpha  occ. eigenvalues --   -0.58151  -0.57458  -0.57215  -0.57151  -0.56971
 Alpha  occ. eigenvalues --   -0.56118  -0.55956  -0.55798  -0.55612  -0.55368
 Alpha  occ. eigenvalues --   -0.55176  -0.55161  -0.55024  -0.54396  -0.54191
 Alpha  occ. eigenvalues --   -0.53834  -0.53513  -0.53144  -0.53057  -0.52957
 Alpha  occ. eigenvalues --   -0.52858  -0.52807  -0.52591  -0.52555  -0.52402
 Alpha  occ. eigenvalues --   -0.52313  -0.52159  -0.51791  -0.51578  -0.51577
 Alpha  occ. eigenvalues --   -0.51239  -0.51117  -0.50851  -0.50398  -0.50225
 Alpha  occ. eigenvalues --   -0.49902  -0.49788  -0.49736  -0.49567  -0.49406
 Alpha  occ. eigenvalues --   -0.49157  -0.49116  -0.49030  -0.48856  -0.48743
 Alpha  occ. eigenvalues --   -0.48471  -0.48295  -0.48260  -0.48247  -0.48143
 Alpha  occ. eigenvalues --   -0.48102  -0.47514  -0.47349  -0.47037  -0.46955
 Alpha  occ. eigenvalues --   -0.46624  -0.46475  -0.46458  -0.46184  -0.46181
 Alpha  occ. eigenvalues --   -0.46011  -0.45996  -0.45823  -0.45734  -0.45477
 Alpha  occ. eigenvalues --   -0.45128  -0.44899  -0.44431  -0.44396  -0.44229
 Alpha  occ. eigenvalues --   -0.44171  -0.44051  -0.43993  -0.43858  -0.43820
 Alpha  occ. eigenvalues --   -0.43737  -0.43666  -0.43465  -0.43303  -0.43145
 Alpha  occ. eigenvalues --   -0.43035  -0.42840  -0.42809  -0.42682  -0.42469
 Alpha  occ. eigenvalues --   -0.42384  -0.42310  -0.41879  -0.41687  -0.41587
 Alpha  occ. eigenvalues --   -0.41378  -0.41353  -0.41171  -0.40912  -0.40797
 Alpha  occ. eigenvalues --   -0.40643  -0.40619  -0.40528  -0.40481  -0.40412
 Alpha  occ. eigenvalues --   -0.40256  -0.40147  -0.39823  -0.39338  -0.39171
 Alpha  occ. eigenvalues --   -0.38270  -0.38158  -0.37571  -0.37364  -0.37181
 Alpha  occ. eigenvalues --   -0.37115  -0.36993  -0.36878  -0.36661  -0.36347
 Alpha  occ. eigenvalues --   -0.36123  -0.35834  -0.34165  -0.33917  -0.33728
 Alpha  occ. eigenvalues --   -0.33354  -0.33085  -0.32816  -0.31194  -0.31018
 Alpha  occ. eigenvalues --   -0.30887  -0.30672  -0.29875  -0.29670  -0.29242
 Alpha  occ. eigenvalues --   -0.29122  -0.29079  -0.28952  -0.23949  -0.23708
 Alpha  occ. eigenvalues --   -0.21031  -0.20762
 Alpha virt. eigenvalues --   -0.08706  -0.08408  -0.01598  -0.01388   0.00053
 Alpha virt. eigenvalues --    0.00303   0.02293   0.02555   0.03346   0.03648
 Alpha virt. eigenvalues --    0.04810   0.05086   0.05285   0.05502   0.06260

 Mulliken charges:
               1
     1  Mg   0.842007
     2  C   -0.001603
     3  C   -0.092831
     4  C   -0.046502
     5  C   -0.064560
     6  N   -0.256661
     7  C   -0.051665
     8  C   -0.014591
     9  C   -0.087375
    10  C    0.047339
    11  C    0.105013
    12  C    0.053184
    13  C   -0.070928
    14  H    0.034558
    15  N   -0.432956
    16  C    0.169786
    17  C   -0.176231
    18  C   -0.003840
    19  C    0.149128
    20  C    0.110306
    21  C    0.012406
    22  O   -0.250891
    23  C    0.062075
    24  N   -0.341156
    25  C    0.041237
    26  C   -0.027935
    27  C   -0.023808
    28  C    0.074842
    29  C    0.076467
    30  C    0.035396
    31  C   -0.004488
    32  N   -0.310463
    33  C    0.080703
    34  C   -0.169919
    35  C    0.008132
    36  C    0.083809
    37  C    0.127298
    38  C    0.046519
    39  O   -0.189161
    40  C   -0.005688
    41  C    0.212181
    42  O   -0.254415
    43  O   -0.305401
    44  C    0.157919
    45  H   -0.018230
    46  H   -0.017832
    47  H   -0.042401
    48  H    0.000043
    49  H   -0.003887
    50  H    0.025012
    51  H    0.016026
    52  H    0.015897
    53  H    0.014239
    54  H    0.046198
    55  H    0.016562
    56  H    0.017796
    57  H    0.005756
    58  H    0.025658
    59  H    0.041067
    60  H    0.036827
    61  H    0.034466
    62  H    0.033222
    63  H    0.015703
    64  H    0.008858
    65  H    0.022367
    66  H    0.012503
    67  H    0.004198
    68  H    0.005296
    69  H    0.004452
    70  H    0.007687
    71  H    0.017064
    72  H    0.030654
    73  H    0.047495
    74  H    0.008492
    75  H    0.045254
    76  H    0.034287
    77  H    0.041764
    78  H    0.045862
    79  H    0.054398
    80  Mg   0.838348
    81  C   -0.016466
    82  C   -0.087843
    83  C   -0.045520
    84  C   -0.064929
    85  N   -0.254522
    86  C   -0.049840
    87  C   -0.015087
    88  C   -0.090518
    89  C    0.045805
    90  C    0.114484
    91  C    0.062500
    92  C   -0.077823
    93  H    0.035130
    94  N   -0.423432
    95  C    0.162977
    96  C   -0.174744
    97  C   -0.007849
    98  C    0.152125
    99  C    0.099452
   100  C    0.015580
   101  O   -0.253305
   102  C    0.061171
   103  N   -0.350096
   104  C    0.037463
   105  C   -0.019750
   106  C   -0.034882
   107  C    0.089010
   108  C    0.073728
   109  C    0.034737
   110  C   -0.007650
   111  N   -0.324213
   112  C    0.078712
   113  C   -0.162557
   114  C    0.002171
   115  C    0.096753
   116  C    0.131364
   117  C    0.043329
   118  O   -0.188566
   119  C    0.000565
   120  C    0.211045
   121  O   -0.248713
   122  O   -0.306426
   123  C    0.151848
   124  H   -0.019941
   125  H   -0.015709
   126  H   -0.040263
   127  H   -0.001097
   128  H   -0.004400
   129  H    0.022083
   130  H    0.014354
   131  H    0.015967
   132  H    0.014110
   133  H    0.038484
   134  H    0.020209
   135  H    0.019456
   136  H    0.008610
   137  H    0.025886
   138  H    0.039808
   139  H    0.038090
   140  H    0.036279
   141  H    0.034024
   142  H    0.014398
   143  H    0.012323
   144  H    0.024994
   145  H    0.011473
   146  H    0.005537
   147  H    0.005999
   148  H    0.003767
   149  H    0.010799
   150  H    0.017994
   151  H    0.030544
   152  H    0.046396
   153  H    0.009144
   154  H    0.046176
   155  H    0.034041
   156  H    0.042306
   157  H    0.049111
   158  H    0.055497
 Sum of Mulliken charges =  -0.00000

 Dipole moment (field-independent basis, Debye):
    X=             -2.0976    Y=              2.5456    Z=              5.0083  Tot=              5.9969
 Quadrupole moment (field-independent basis, Debye-Ang):
   XX=           -454.9375   YY=           -469.3343   ZZ=           -520.9195
   XY=            -29.3572   XZ=             12.6263   YZ=             32.0242

 Normal termination of Gaussian 16 at Sat Sep 11 10:05:55 2021.
