 Gaussian 16, Revision A.03,
 Gaussian 16:  ES64L-G16RevA.03 25-Dec-2016

 -----------------------------------
 #p cam-b3lyp/Def2SVP td=(nstates=5)
 -----------------------------------

 --------------------------------
 TDDFT excited states in gaussian
 --------------------------------
 Symbolic Z-matrix:
 Charge =  0 Multiplicity = 1

                         Standard orientation:
 ---------------------------------------------------------------------
 Center     Atomic      Atomic             Coordinates (Angstroms)
 Number     Number       Type             X           Y           Z
 ---------------------------------------------------------------------
      1         12           0       -4.442357   -0.611554    0.053714
      2          6           0       -4.516641    2.924457    0.604465
      3          6           0       -5.276451    0.026702   -3.192820
      4          6           0       -4.827704   -3.733628   -0.347260
      5          6           0       -4.737511   -1.006271    3.503749
      6          7           0       -4.819587    1.277900   -1.036382
      7          6           0       -4.757012    2.568641   -0.724543
      8          6           0       -4.896023    3.509767   -1.958370
      9          6           0       -5.680563    2.526414   -2.937917
     10          6           0       -5.204209    1.196833   -2.380042
     11          6           0       -7.196991    2.604653   -2.793596
     12          6           0       -3.506678    3.921275   -2.551761
     13          6           0       -3.539459    5.087367   -3.543985
     14          1           0       -2.428065    6.026493   -3.557875
     15          7           0       -4.493328   -1.694504   -1.597792
     16          6           0       -4.840199   -1.267552   -2.835806
     17          6           0       -4.719334   -2.445277   -3.721829
     18          6           0       -4.457630   -3.634681   -2.864553
     19          6           0       -4.610426   -3.065529   -1.549982
     20          6           0       -4.802564   -2.363459   -5.215191
     21          6           0       -4.133273   -5.060628   -3.180147
     22          8           0       -4.172943   -5.979745   -2.292327
     23          6           0       -3.850271   -5.372830   -4.592762
     24          7           0       -4.960537   -2.157409    1.357346
     25          6           0       -5.000036   -3.427659    0.940346
     26          6           0       -5.113357   -4.378175    2.095170
     27          6           0       -4.897878   -3.501368    3.412186
     28          6           0       -4.772374   -2.107256    2.749638
     29          6           0       -6.438814   -5.144613    2.203542
     30          6           0       -3.783094   -3.958056    4.386409
     31          6           0       -2.429136   -3.780352    3.736549
     32          7           0       -4.423306    0.694510    1.787173
     33          6           0       -4.585449    0.318040    3.128312
     34          6           0       -4.608025    1.558260    3.925439
     35          6           0       -4.473203    2.577496    2.984786
     36          6           0       -4.399144    2.011192    1.680138
     37          6           0       -4.798205    1.640834    5.333077
     38          6           0       -4.399236    4.014457    2.776153
     39          8           0       -4.317490    4.995208    3.517058
     40          6           0       -4.546897    4.302656    1.216998
     41          6           0       -3.461067    5.268773    0.828538
     42          8           0       -2.260547    4.929832    0.863718
     43          8           0       -4.011956    6.349542    0.254952
     44          6           0       -2.986822    7.335081   -0.180899
     45          1           0       -5.763784    0.090460   -4.167695
     46          1           0       -4.855621   -4.822169   -0.429336
     47          1           0       -4.741640   -1.055147    4.594184
     48          1           0       -5.487514    4.408049   -1.780456
     49          1           0       -5.358386    2.640416   -3.972773
     50          1           0       -7.485057    3.230770   -1.949252
     51          1           0       -7.527769    1.577824   -2.636429
     52          1           0       -7.658690    2.928689   -3.726661
     53          1           0       -3.147402    3.128959   -3.208431
     54          1           0       -2.797892    4.146435   -1.754107
     55          1           0       -4.489588    5.620590   -3.501114
     56          1           0       -3.503952    4.677869   -4.553565
     57          1           0       -5.165665   -1.390313   -5.543351
     58          1           0       -5.577175   -3.062583   -5.529693
     59          1           0       -3.857790   -2.621958   -5.693639
     60          1           0       -4.713905   -5.103044   -5.200956
     61          1           0       -3.551975   -6.420381   -4.615278
     62          1           0       -3.026490   -4.745657   -4.934799
     63          1           0       -4.342100   -5.145810    2.046956
     64          1           0       -5.794435   -3.466530    4.031578
     65          1           0       -6.318753   -6.228241    2.209983
     66          1           0       -7.079898   -4.827063    1.381676
     67          1           0       -7.048788   -4.882938    3.067762
     68          1           0       -3.891626   -5.017286    4.617060
     69          1           0       -3.785163   -3.411368    5.329478
     70          1           0       -2.322663   -4.688091    3.143670
     71          1           0       -1.648546   -3.715818    4.495314
     72          1           0       -2.426959   -2.937461    3.045162
     73          1           0       -4.074149    2.369993    5.696447
     74          1           0       -4.656734    0.670900    5.809332
     75          1           0       -5.832731    1.980894    5.377465
     76          1           0       -5.541118    4.722955    1.068691
     77          1           0       -3.234486    8.285882    0.291196
     78          1           0       -2.967600    7.300933   -1.270334
     79          1           0       -1.975248    7.176301    0.194397
     80         12           0        4.554654   -0.943781    0.096180
     81          6           0        4.482347    2.641899   -0.033161
     82          6           0        3.695691   -0.931229   -3.204825
     83          6           0        4.169455   -4.087464    0.286683
     84          6           0        4.277580   -0.685923    3.560629
     85          7           0        4.167703    0.705633   -1.325788
     86          6           0        4.230462    2.027784   -1.277684
     87          6           0        4.090488    2.728895   -2.655517
     88          6           0        3.291569    1.573209   -3.433329
     89          6           0        3.770184    0.363842   -2.632692
     90          6           0        1.783037    1.678762   -3.283232
     91          6           0        5.480685    3.015979   -3.324060
     92          6           0        5.434565    3.970126   -4.519564
     93          1           0        6.552146    4.888258   -4.720845
     94          7           0        4.495307   -2.319327   -1.333134
     95          6           0        4.146190   -2.137030   -2.623929
     96          6           0        4.245272   -3.460628   -3.258295
     97          6           0        4.521953   -4.468857   -2.199218
     98          6           0        4.382613   -3.649291   -1.012207
     99          6           0        4.160322   -3.659423   -4.743784
    100          6           0        4.844360   -5.931743   -2.246323
    101          8           0        4.812263   -6.662548   -1.193842
    102          6           0        5.107504   -6.502601   -3.575374
    103          7           0        4.053263   -2.210237    1.666849
    104          6           0        4.004981   -3.542570    1.492239
    105          6           0        3.896473   -4.262519    2.815220
    106          6           0        4.126418   -3.142899    3.933761
    107          6           0        4.244619   -1.898905    3.026069
    108          6           0        2.571223   -4.977949    3.076515
    109          6           0        5.248637   -3.407850    4.974480
    110          6           0        6.599789   -3.369916    4.297466
    111          7           0        4.590741    0.659169    1.544387
    112          6           0        4.431120    0.548778    2.943101
    113          6           0        4.414861    1.921371    3.489118
    114          6           0        4.544066    2.742349    2.358714
    115          6           0        4.614171    1.938791    1.188731
    116          6           0        4.244957    2.269876    4.858719
    117          6           0        4.626411    4.106359    1.888208
    118          8           0        4.706364    5.208533    2.429102
    119          6           0        4.462939    4.106283    0.307167
    120          6           0        5.546149    4.974571   -0.271836
    121          8           0        6.741484    4.647433   -0.168100
    122          8           0        4.984517    5.928773   -1.036327
    123          6           0        6.019474    6.808704   -1.641616
    124          1           0        3.208036   -1.043162   -4.173616
    125          1           0        4.140413   -5.171393    0.419861
    126          1           0        4.293184   -0.524136    4.640560
    127          1           0        3.506452    3.641323   -2.643660
    128          1           0        3.614790    1.497482   -4.468299
    129          1           0        1.501049    2.447062   -2.578716
    130          1           0        1.453275    0.708117   -2.936613
    131          1           0        1.316111    1.824024   -4.261599
    132          1           0        5.832359    2.104597   -3.824516
    133          1           0        6.184273    3.377930   -2.599785
    134          1           0        4.480162    4.506954   -4.581921
    135          1           0        5.469636    3.378293   -5.437452
    136          1           0        3.788177   -2.759814   -5.249382
    137          1           0        3.384310   -4.411735   -4.921859
    138          1           0        5.099475   -4.011273   -5.176057
    139          1           0        4.241373   -6.345515   -4.213812
    140          1           0        5.406104   -7.537123   -3.395166
    141          1           0        5.939138   -5.955150   -4.032856
    142          1           0        4.667878   -5.016948    2.909349
    143          1           0        3.229621   -2.995729    4.553382
    144          1           0        2.692073   -6.057247    3.287629
    145          1           0        1.927577   -4.827775    2.219947
    146          1           0        1.975454   -4.564465    3.888481
    147          1           0        5.142396   -4.409001    5.399396
    148          1           0        5.245801   -2.705196    5.801082
    149          1           0        6.696203   -4.377638    3.882381
    150          1           0        7.385513   -3.164521    5.021694
    151          1           0        6.599340   -2.665942    3.457188
    152          1           0        4.964415    3.048868    5.073324
    153          1           0        4.384835    1.408462    5.508465
    154          1           0        3.206019    2.610030    4.845983
    155          1           0        3.466909    4.488717    0.080789
    156          1           0        5.772090    7.835899   -1.356351
    157          1           0        6.018196    6.571820   -2.722192
    158          1           0        7.032346    6.722966   -1.265865
 ---------------------------------------------------------------------

 SCF Done:  E(RCAM-B3LYP) =  -4069.81120868     A.U. after   19 cycles

 Excitation energies and oscillator strengths:

 Excited State   1:      Singlet-A      1.6478 eV  752.41 nm  f=0.0086  <S**2>=0.000
     309 -> 315       -0.11471
     310 -> 316        0.12110
     311 -> 313       -0.47097
     312 -> 314        0.50106
 This state for optimization and/or second-order correction.
 Total Energy, E(TD-HF/TD-DFT) =  -4069.75065217
 Copying the excited state density for this state as the 1-particle RhoCI density.

 Excited State   2:      Singlet-A      1.7041 eV  727.58 nm  f=0.6875  <S**2>=0.000
     309 -> 315        0.13268
     310 -> 316        0.12393
     311 -> 313        0.49843
     312 -> 314        0.46859

 Excited State   3:      Singlet-A      2.1809 eV  568.50 nm  f=0.0129  <S**2>=0.000
     309 -> 313       -0.33525
     310 -> 314        0.55087
     311 -> 315        0.13894
     312 -> 316       -0.22991

 Excited State   4:      Singlet-A      2.1956 eV  564.69 nm  f=0.1624  <S**2>=0.000
     309 -> 313        0.54620
     310 -> 314        0.33071
     311 -> 315       -0.24087
     312 -> 316       -0.14715

 Excited State   5:      Singlet-A      2.3484 eV  527.94 nm  f=0.0000  <S**2>=0.000
     312 -> 313        0.70709

 The electronic state is 1-A.
 Alpha  occ. eigenvalues --  -46.87895 -46.87435 -19.26305 -19.26141 -19.19049
 Alpha  occ. eigenvalues --  -19.18940 -19.18909 -19.18515 -19.18223 -19.17752
 Alpha  occ. eigenvalues --  -14.42556 -14.42279 -14.41546 -14.41138 -14.39503
 Alpha  occ. eigenvalues --  -14.39129 -14.38679 -14.38356 -10.39113 -10.38860
 Alpha  occ. eigenvalues --  -10.35545 -10.35197 -10.34444 -10.33925 -10.31671
 Alpha  occ. eigenvalues --  -10.31597 -10.31508 -10.31078 -10.31020 -10.30814
 Alpha  occ. eigenvalues --  -10.30668 -10.30596 -10.30311 -10.30155 -10.30117
 Alpha  occ. eigenvalues --  -10.30005 -10.29948 -10.29726 -10.29659 -10.29357
 Alpha  occ. eigenvalues --  -10.29224 -10.29164 -10.28884 -10.28731 -10.28559
 Alpha  occ. eigenvalues --  -10.28529 -10.28460 -10.28244 -10.28166 -10.27958
 Alpha  occ. eigenvalues --  -10.27885 -10.27836 -10.27756 -10.27686 -10.27637
 Alpha  occ. eigenvalues --  -10.27597 -10.27528 -10.27498 -10.27465 -10.27350
 Alpha  occ. eigenvalues --  -10.27338 -10.27248 -10.27240 -10.27219 -10.27195
 Alpha  occ. eigenvalues --  -10.26892 -10.26738 -10.26548 -10.26544 -10.26342
 Alpha  occ. eigenvalues --  -10.26297 -10.26264 -10.26120 -10.25995 -10.25913
 Alpha  occ. eigenvalues --  -10.25830 -10.25718 -10.25530 -10.25502 -10.25230
 Alpha  occ. eigenvalues --  -10.24919 -10.24877 -10.24823 -10.24612 -10.24589
 Alpha  occ. eigenvalues --  -10.24461  -3.16638  -3.16185  -1.91520  -1.91107
 Alpha  occ. eigenvalues --   -1.91067  -1.90948  -1.90656  -1.90492  -1.16656
 Alpha  occ. eigenvalues --   -1.16431  -1.08676  -1.08352  -1.07308  -1.06769
 Alpha  occ. eigenvalues --   -1.06723  -1.06671  -1.04686  -1.04273  -1.03859
 Alpha  occ. eigenvalues --   -1.03439  -1.03329  -1.02812  -1.02507  -1.01879
 Alpha  occ. eigenvalues --   -0.92058  -0.91734  -0.89617  -0.89318  -0.89291
 Alpha  occ. eigenvalues --   -0.88964  -0.88381  -0.88028  -0.87958  -0.87785
 Alpha  occ. eigenvalues --   -0.87531  -0.87473  -0.87389  -0.86927  -0.85107
 Alpha  occ. eigenvalues --   -0.84811  -0.84028  -0.83688  -0.83082  -0.82758
 Alpha  occ. eigenvalues --   -0.82755  -0.82464  -0.81652  -0.81379  -0.80684
 Alpha  occ. eigenvalues --   -0.80229  -0.78905  -0.78421  -0.77330  -0.77035
 Alpha  occ. eigenvalues --   -0.76950  -0.76708  -0.76014  -0.75631  -0.74983
 Alpha  occ. eigenvalues --   -0.74609  -0.72871  -0.72469  -0.71765  -0.71369
 Alpha  occ. eigenvalues --   -0.70011  -0.69586  -0.68990  -0.68635  -0.67734
 Alpha  occ. eigenvalues --   -0.67383  -0.67358  -0.67026  -0.65403  -0.65071
 Alpha  occ. eigenvalues --   -0.64941  -0.64713  -0.64556  -0.64450  -0.64364
 Alpha  occ. eigenvalues --   -0.64007  -0.62351  -0.62067  -0.60548  -0.60139
 Alpha  occ. eigenvalues --   -0.59921  -0.59591  -0.59079  -0.58772  -0.58592
 Alpha  occ. eigenvalues --   -0.58201  -0.57648  -0.57394  -0.57288  -0.57020
 Alpha  occ. eigenvalues --   -0.56406  -0.56040  -0.55983  -0.55688  -0.55619
 Alpha  occ. eigenvalues --   -0.55416  -0.55248  -0.55045  -0.54592  -0.54292
 Alpha  occ. eigenvalues --   -0.54023  -0.53729  -0.53399  -0.53334  -0.53020
 Alpha  occ. eigenvalues --   -0.52996  -0.52942  -0.52879  -0.52702  -0.52542
 Alpha  occ. eigenvalues --   -0.52495  -0.52231  -0.51992  -0.51740  -0.51591
 Alpha  occ. eigenvalues --   -0.51473  -0.51282  -0.50974  -0.50707  -0.50313
 Alpha  occ. eigenvalues --   -0.50140  -0.50032  -0.49795  -0.49681  -0.49626
 Alpha  occ. eigenvalues --   -0.49306  -0.49293  -0.49202  -0.48985  -0.48880
 Alpha  occ. eigenvalues --   -0.48672  -0.48555  -0.48521  -0.48342  -0.48178
 Alpha  occ. eigenvalues --   -0.48133  -0.47799  -0.47405  -0.47393  -0.46932
 Alpha  occ. eigenvalues --   -0.46899  -0.46678  -0.46510  -0.46452  -0.46375
 Alpha  occ. eigenvalues --   -0.46240  -0.46066  -0.45892  -0.45859  -0.45585
 Alpha  occ. eigenvalues --   -0.45291  -0.45010  -0.44657  -0.44625  -0.44313
 Alpha  occ. eigenvalues --   -0.44266  -0.44246  -0.44207  -0.44102  -0.43920
 Alpha  occ. eigenvalues --   -0.43885  -0.43724  -0.43561  -0.43495  -0.43350
 Alpha  occ. eigenvalues --   -0.43181  -0.43117  -0.42781  -0.42720  -0.42706
 Alpha  occ. eigenvalues --   -0.42670  -0.42366  -0.42114  -0.41792  -0.41779
 Alpha  occ. eigenvalues --   -0.41657  -0.41426  -0.41276  -0.41238  -0.40991
 Alpha  occ. eigenvalues --   -0.40938  -0.40782  -0.40668  -0.40544  -0.40521
 Alpha  occ. eigenvalues --   -0.40392  -0.40302  -0.40067  -0.39550  -0.39257
 Alpha  occ. eigenvalues --   -0.38571  -0.38169  -0.37890  -0.37491  -0.37420
 Alpha  occ. eigenvalues --   -0.37383  -0.37069  -0.36996  -0.36765  -0.36566
 Alpha  occ. eigenvalues --   -0.36268  -0.36017  -0.34382  -0.34026  -0.33812
 Alpha  occ. eigenvalues --   -0.33637  -0.33277  -0.32950  -0.31437  -0.31130
 Alpha  occ. eigenvalues --   -0.31074  -0.30747  -0.30081  -0.29654  -0.29548
 Alpha  occ. eigenvalues --   -0.29408  -0.29103  -0.28944  -0.24177  -0.23803
 Alpha  occ. eigenvalues --   -0.21228  -0.20892
 Alpha virt. eigenvalues --   -0.08871  -0.08558  -0.01848  -0.01465  -0.00159
 Alpha virt. eigenvalues --    0.00187   0.02123   0.02469   0.02847   0.03495
 Alpha virt. eigenvalues --    0.04599   0.04934   0.05056   0.05398   0.06024

 Mulliken charges:
               1
     1  Mg   0.838658
     2  C   -0.003070
     3  C   -0.095144
     4  C   -0.045375
     5  C   -0.063970
     6  N   -0.256684
     7  C   -0.052795
     8  C   -0.013738
     9  C   -0.086845
    10  C    0.045972
    11  C    0.104802
    12  C    0.053669
    13  C   -0.071547
    14  H    0.035469
    15  N   -0.433141
    16  C    0.168127
    17  C   -0.177944
    18  C   -0.004046
    19  C    0.148854
    20  C    0.110345
    21  C    0.012620
    22  O   -0.248698
    23  C    0.062690
    24  N   -0.341075
    25  C    0.041107
    26  C   -0.028404
    27  C   -0.023961
    28  C    0.074892
    29  C    0.076044
    30  C    0.035064
    31  C   -0.005687
    32  N   -0.310615
    33  C    0.080680
    34  C   -0.169587
    35  C    0.008784
    36  C    0.083245
    37  C    0.127221
    38  C    0.046636
    39  O   -0.187098
    40  C   -0.005558
    41  C    0.213324
    42  O   -0.256932
    43  O   -0.305022
    44  C    0.156863
    45  H   -0.017831
    46  H   -0.016407
    47  H   -0.041418
    48  H    0.001472
    49  H   -0.004803
    50  H    0.025795
    51  H    0.016648
    52  H    0.016627
    53  H    0.009559
    54  H    0.043811
    55  H    0.018824
    56  H    0.016997
    57  H    0.005496
    58  H    0.027147
    59  H    0.037725
    60  H    0.037325
    61  H    0.036091
    62  H    0.029789
    63  H    0.017086
    64  H    0.009731
    65  H    0.023596
    66  H    0.012583
    67  H    0.004842
    68  H    0.006712
    69  H    0.004484
    70  H    0.010165
    71  H    0.016728
    72  H    0.029722
    73  H    0.048148
    74  H    0.008904
    75  H    0.046340
    76  H    0.035300
    77  H    0.043856
    78  H    0.045420
    79  H    0.055502
    80  Mg   0.837821
    81  C   -0.015669
    82  C   -0.088144
    83  C   -0.045247
    84  C   -0.064660
    85  N   -0.254468
    86  C   -0.048634
    87  C   -0.015072
    88  C   -0.090873
    89  C    0.045873
    90  C    0.113543
    91  C    0.062680
    92  C   -0.077257
    93  H    0.034259
    94  N   -0.423377
    95  C    0.162689
    96  C   -0.175459
    97  C   -0.007855
    98  C    0.151652
    99  C    0.099803
   100  C    0.015501
   101  O   -0.253370
   102  C    0.061387
   103  N   -0.349955
   104  C    0.037162
   105  C   -0.019829
   106  C   -0.034742
   107  C    0.089254
   108  C    0.073572
   109  C    0.034786
   110  C   -0.007520
   111  N   -0.324684
   112  C    0.079277
   113  C   -0.161742
   114  C    0.004299
   115  C    0.096136
   116  C    0.130602
   117  C    0.045055
   118  O   -0.186736
   119  C   -0.000359
   120  C    0.210699
   121  O   -0.251737
   122  O   -0.305188
   123  C    0.152275
   124  H   -0.021667
   125  H   -0.015810
   126  H   -0.040574
   127  H   -0.000021
   128  H   -0.005839
   129  H    0.027574
   130  H    0.014079
   131  H    0.012671
   132  H    0.013573
   133  H    0.037754
   134  H    0.020134
   135  H    0.018780
   136  H    0.007333
   137  H    0.024713
   138  H    0.039101
   139  H    0.037741
   140  H    0.035995
   141  H    0.033376
   142  H    0.013972
   143  H    0.011725
   144  H    0.024450
   145  H    0.013132
   146  H    0.004467
   147  H    0.005590
   148  H    0.003513
   149  H    0.010737
   150  H    0.017589
   151  H    0.030413
   152  H    0.045554
   153  H    0.007352
   154  H    0.051254
   155  H    0.040114
   156  H    0.043467
   157  H    0.048647
   158  H    0.053269
 Sum of Mulliken charges =  -0.00000

 Dipole moment (field-independent basis, Debye):
    X=             -4.1815    Y=             -1.8825    Z=             -7.2577  Tot=              8.5850
 Quadrupole moment (field-independent basis, Debye-Ang):
   XX=           -518.7870   YY=           -549.8622   ZZ=           -449.4857
   XY=             -8.5330   XZ=             -0.6319   YZ=            -47.0489

 Normal termination of Gaussian 16 at Fri Sep  3 23:34:56 2021.
