 Gaussian 16, Revision A.03,
 Gaussian 16:  ES64L-G16RevA.03 25-Dec-2016

 -----------------------------------
 #p cam-b3lyp/Def2SVP td=(nstates=5)
 -----------------------------------

 --------------------------------
 TDDFT excited states in gaussian
 --------------------------------
 Symbolic Z-matrix:
 Charge =  0 Multiplicity = 1

                         Standard orientation:
 ---------------------------------------------------------------------
 Center     Atomic      Atomic             Coordinates (Angstroms)
 Number     Number       Type             X           Y           Z
 ---------------------------------------------------------------------
      1         12           0       -4.862728    0.906459   -0.310744
      2          6           0       -5.391609   -2.205142    1.377581
      3          6           0       -5.733852    2.462417    2.598415
      4          6           0       -4.843994    3.650701   -1.899896
      5          6           0       -5.144890   -0.842993   -3.311654
      6          7           0       -5.464258    0.119731    1.669122
      7          6           0       -5.569624   -1.092954    2.203411
      8          6           0       -5.812841   -1.071130    3.742158
      9          6           0       -6.454924    0.382176    3.874933
     10          6           0       -5.820058    1.039916    2.662396
     11          6           0       -7.970568    0.396544    3.704288
     12          6           0       -4.480272   -1.185275    4.556381
     13          6           0       -4.649453   -1.498647    6.045854
     14          1           0       -3.666186   -2.349901    6.698465
     15          7           0       -4.756884    2.766622    0.346097
     16          6           0       -5.140944    3.218460    1.564139
     17          6           0       -4.861404    4.670538    1.566939
     18          6           0       -4.460662    5.059427    0.186263
     19          6           0       -4.699524    3.830329   -0.526226
     20          6           0       -4.937233    5.520689    2.797890
     21          6           0       -3.954313    6.339177   -0.400237
     22          8           0       -3.887148    6.529113   -1.662769
     23          6           0       -3.617802    7.411271    0.553922
     24          7           0       -5.195371    1.389566   -2.314138
     25          6           0       -5.068514    2.647393   -2.750901
     26          6           0       -5.073473    2.708087   -4.249644
     27          6           0       -4.986149    1.195427   -4.753618
     28          6           0       -5.031060    0.485427   -3.378062
     29          6           0       -6.292062    3.389085   -4.887839
     30          6           0       -3.833643    0.844180   -5.727667
     31          6           0       -2.505844    0.952283   -5.011872
     32          7           0       -5.029495   -1.175728   -0.900433
     33          6           0       -5.157886   -1.674982   -2.204632
     34          6           0       -5.346855   -3.132982   -2.092407
     35          6           0       -5.331748   -3.380012   -0.721060
     36          6           0       -5.171455   -2.150685   -0.020094
     37          6           0       -5.562093   -4.031170   -3.174704
     38          6           0       -5.438416   -4.393482    0.315935
     39          8           0       -5.490329   -5.624230    0.323560
     40          6           0       -5.603596   -3.659066    1.719208
     41          6           0       -4.644821   -4.301673    2.684152
     42          8           0       -3.411469   -4.185453    2.533483
     43          8           0       -5.321848   -4.745836    3.754150
     44          6           0       -4.425196   -5.368459    4.764353
     45          1           0       -6.214136    3.055943    3.378796
     46          1           0       -4.732554    4.561022   -2.492631
     47          1           0       -5.155272   -1.465324   -4.208342
     48          1           0       -6.515582   -1.822892    4.101927
     49          1           0       -6.137992    0.885201    4.788301
     50          1           0       -8.345442   -0.577679    3.390794
     51          1           0       -8.170094    1.145822    2.937956
     52          1           0       -8.458949    0.756907    4.610048
     53          1           0       -4.015819   -0.201613    4.625333
     54          1           0       -3.814989   -1.922813    4.106089
     55          1           0       -5.660015   -1.842253    6.268584
     56          1           0       -4.550684   -0.567633    6.604117
     57          1           0       -5.417154    4.992224    3.620657
     58          1           0       -5.613171    6.345705    2.573911
     59          1           0       -3.961868    5.912599    3.086684
     60          1           0       -4.501673    7.660699    1.141378
     61          1           0       -3.188696    8.218002   -0.039292
     62          1           0       -2.876441    7.035785    1.259857
     63          1           0       -4.210504    3.258888   -4.621570
     64          1           0       -5.886911    0.889040   -5.285998
     65          1           0       -6.035487    4.225898   -5.537931
     66          1           0       -6.958814    3.706466   -4.086589
     67          1           0       -6.940180    2.724624   -5.458672
     68          1           0       -3.809464    1.550453   -6.556847
     69          1           0       -3.915900   -0.158182   -6.148090
     70          1           0       -2.278210    2.015448   -5.080387
     71          1           0       -1.748506    0.357124   -5.523181
     72          1           0       -2.602768    0.707315   -3.954005
     73          1           0       -4.940671   -4.904031   -2.974908
     74          1           0       -5.304099   -3.571145   -4.128339
     75          1           0       -6.631859   -4.214424   -3.075339
     76          1           0       -6.641365   -3.793020    2.022876
     77          1           0       -4.796952   -6.377075    4.945256
     78          1           0       -4.389315   -4.682955    5.611231
     79          1           0       -3.406016   -5.580051    4.439022
     80         12           0        5.668733    0.042116    0.131627
     81          6           0        2.992318   -1.999067   -1.113157
     82          6           0        3.611197    2.730908   -0.282533
     83          6           0        8.144274    1.913001    0.794112
     84          6           0        7.835575   -2.580068   -0.626408
     85          7           0        3.591964    0.215817   -0.609406
     86          6           0        2.653360   -0.634934   -0.996155
     87          6           0        1.251551    0.001118   -1.196007
     88          6           0        1.711137    1.515921   -1.466297
     89          6           0        3.039031    1.506789   -0.711779
     90          6           0        1.995751    1.806311   -2.930538
     91          6           0        0.357321   -0.107277    0.088753
     92          6           0       -1.123065    0.213218   -0.129192
     93          1           0       -2.117115   -0.535397    0.634953
     94          7           0        5.726138    1.941491    0.704020
     95          6           0        4.795105    2.890175    0.470680
     96          6           0        5.316492    4.123873    1.079227
     97          6           0        6.705383    3.865443    1.547114
     98          6           0        6.924706    2.540463    1.002664
     99          6           0        4.486726    5.364072    1.242984
    100          6           0        7.680083    4.681584    2.340884
    101          8           0        8.916696    4.356073    2.428432
    102          6           0        7.164234    5.923342    2.935375
    103          7           0        7.720392   -0.198148   -0.103487
    104          6           0        8.579674    0.747473    0.315276
    105          6           0       10.001694    0.239689    0.295484
    106          6           0        9.893650   -1.329213    0.004862
    107          6           0        8.365980   -1.445850   -0.190074
    108          6           0       10.924524    0.885984   -0.737511
    109          6           0       10.584302   -2.281969    1.018735
    110          6           0        9.872060   -2.222101    2.350854
    111          7           0        5.462864   -2.000936   -0.540405
    112          6           0        6.501671   -2.915759   -0.819778
    113          6           0        5.871557   -4.139364   -1.356605
    114          6           0        4.500810   -3.840637   -1.374007
    115          6           0        4.293193   -2.516519   -0.901667
    116          6           0        6.559660   -5.305840   -1.794752
    117          6           0        3.183221   -4.340553   -1.694531
    118          8           0        2.729345   -5.427206   -2.050792
    119          6           0        2.159220   -3.125422   -1.658931
    120          6           0        0.955877   -3.555168   -0.865320
    121          8           0        1.055317   -3.802713    0.349354
    122          8           0       -0.148341   -3.393494   -1.616938
    123          6           0       -1.369284   -3.796030   -0.869218
    124          1           0        3.132081    3.662165   -0.586006
    125          1           0        9.024773    2.476412    1.111571
    126          1           0        8.434265   -3.477866   -0.794372
    127          1           0        0.698290   -0.377086   -2.047257
    128          1           0        1.021214    2.224439   -1.015329
    129          1           0        1.955841    0.911574   -3.533871
    130          1           0        2.988195    2.236874   -2.957537
    131          1           0        1.319972    2.583397   -3.299006
    132          1           0        0.624851    0.701807    0.780529
    133          1           0        0.454788   -1.075421    0.540226
    134          1           0       -1.388907    0.229844   -1.193143
    135          1           0       -1.310499    1.234927    0.209902
    136          1           0        3.561642    5.309544    0.655922
    137          1           0        5.048736    6.187128    0.788469
    138          1           0        4.291712    5.605163    2.290128
    139          1           0        6.775288    6.565819    2.148990
    140          1           0        7.983415    6.321458    3.537302
    141          1           0        6.318252    5.674700    3.585842
    142          1           0       10.478359    0.386997    1.256834
    143          1           0       10.354615   -1.598129   -0.956923
    144          1           0       11.827589    1.343027   -0.290651
    145          1           0       10.356864    1.624801   -1.287463
    146          1           0       11.268058    0.222326   -1.529188
    147          1           0       11.612283   -1.959551    1.201662
    148          1           0       10.624944   -3.313066    0.683832
    149          1           0       10.310564   -1.339302    2.825690
    150          1           0       10.068910   -3.121234    2.931236
    151          1           0        8.801817   -2.026744    2.216477
    152          1           0        6.012404   -6.154463   -1.406371
    153          1           0        7.593219   -5.308967   -1.454871
    154          1           0        6.484244   -5.181326   -2.878302
    155          1           0        1.903481   -2.882186   -2.690919
    156          1           0       -1.882183   -4.548414   -1.476287
    157          1           0       -1.916361   -2.856962   -0.662796
    158          1           0       -1.232396   -4.333110    0.062042
 ---------------------------------------------------------------------

 SCF Done:  E(RCAM-B3LYP) =  -4069.81673330     A.U. after   19 cycles

 Excitation energies and oscillator strengths:

 Excited State   1:      Singlet-A      1.6492 eV  751.76 nm  f=0.0058  <S**2>=0.000
     309 -> 315        0.12368
     310 -> 316       -0.11173
     311 -> 313        0.50844
     312 -> 314       -0.46291
 This state for optimization and/or second-order correction.
 Total Energy, E(TD-HF/TD-DFT) =  -4069.75612463
 Copying the excited state density for this state as the 1-particle RhoCI density.

 Excited State   2:      Singlet-A      1.6975 eV  730.40 nm  f=0.7011  <S**2>=0.000
     309 -> 315        0.12068
     310 -> 316        0.13214
     311 -> 313        0.46067
     312 -> 314        0.50621

 Excited State   3:      Singlet-A      2.1825 eV  568.08 nm  f=0.1085  <S**2>=0.000
     309 -> 313        0.16927
     310 -> 314        0.62045
     312 -> 316       -0.26169

 Excited State   4:      Singlet-A      2.1857 eV  567.26 nm  f=0.0950  <S**2>=0.000
     309 -> 313        0.61978
     310 -> 314       -0.16862
     311 -> 315       -0.26389

 Excited State   5:      Singlet-A      2.3714 eV  522.84 nm  f=0.0000  <S**2>=0.000
     312 -> 313        0.70616

 The electronic state is 1-A.
 Alpha  occ. eigenvalues --  -46.88113 -46.87430 -19.26494 -19.25232 -19.19389
 Alpha  occ. eigenvalues --  -19.19202 -19.18539 -19.18505 -19.18241 -19.17680
 Alpha  occ. eigenvalues --  -14.42739 -14.42276 -14.41754 -14.41126 -14.39715
 Alpha  occ. eigenvalues --  -14.39125 -14.38888 -14.38354 -10.39384 -10.38213
 Alpha  occ. eigenvalues --  -10.35834 -10.35222 -10.34722 -10.33835 -10.31729
 Alpha  occ. eigenvalues --  -10.31704 -10.31214 -10.31050 -10.30901 -10.30855
 Alpha  occ. eigenvalues --  -10.30782 -10.30520 -10.30253 -10.30163 -10.30107
 Alpha  occ. eigenvalues --  -10.30047 -10.29984 -10.29945 -10.29664 -10.29568
 Alpha  occ. eigenvalues --  -10.29226 -10.29170 -10.28968 -10.28835 -10.28705
 Alpha  occ. eigenvalues --  -10.28631 -10.28503 -10.28346 -10.28139 -10.28135
 Alpha  occ. eigenvalues --  -10.28028 -10.27938 -10.27895 -10.27814 -10.27805
 Alpha  occ. eigenvalues --  -10.27772 -10.27752 -10.27739 -10.27462 -10.27443
 Alpha  occ. eigenvalues --  -10.27345 -10.27311 -10.27241 -10.27210 -10.27198
 Alpha  occ. eigenvalues --  -10.26869 -10.26808 -10.26589 -10.26554 -10.26524
 Alpha  occ. eigenvalues --  -10.26443 -10.26323 -10.26297 -10.26102 -10.25985
 Alpha  occ. eigenvalues --  -10.25766 -10.25715 -10.25712 -10.25622 -10.25242
 Alpha  occ. eigenvalues --  -10.25194 -10.25149 -10.25123 -10.24607 -10.24582
 Alpha  occ. eigenvalues --  -10.24457  -3.16769  -3.16180  -1.91649  -1.91243
 Alpha  occ. eigenvalues --   -1.91086  -1.91062  -1.90651  -1.90487  -1.16859
 Alpha  occ. eigenvalues --   -1.15580  -1.08965  -1.08244  -1.07607  -1.06955
 Alpha  occ. eigenvalues --   -1.06795  -1.06017  -1.04882  -1.04259  -1.04073
 Alpha  occ. eigenvalues --   -1.03559  -1.03433  -1.02808  -1.02733  -1.01873
 Alpha  occ. eigenvalues --   -0.92294  -0.91663  -0.89848  -0.89421  -0.89267
 Alpha  occ. eigenvalues --   -0.88944  -0.88609  -0.88178  -0.88018  -0.87961
 Alpha  occ. eigenvalues --   -0.87623  -0.87559  -0.87471  -0.86928  -0.85234
 Alpha  occ. eigenvalues --   -0.84809  -0.84263  -0.83640  -0.83328  -0.82918
 Alpha  occ. eigenvalues --   -0.82754  -0.82397  -0.81830  -0.81021  -0.80882
 Alpha  occ. eigenvalues --   -0.79909  -0.79128  -0.78418  -0.77513  -0.77173
 Alpha  occ. eigenvalues --   -0.76977  -0.76548  -0.76169  -0.75367  -0.75195
 Alpha  occ. eigenvalues --   -0.74445  -0.73086  -0.72466  -0.71961  -0.71284
 Alpha  occ. eigenvalues --   -0.70253  -0.69564  -0.69145  -0.68641  -0.67956
 Alpha  occ. eigenvalues --   -0.67469  -0.67334  -0.67103  -0.65543  -0.65141
 Alpha  occ. eigenvalues --   -0.65023  -0.64892  -0.64591  -0.64517  -0.64192
 Alpha  occ. eigenvalues --   -0.63894  -0.62539  -0.61481  -0.60779  -0.60133
 Alpha  occ. eigenvalues --   -0.60066  -0.59567  -0.59293  -0.58811  -0.58713
 Alpha  occ. eigenvalues --   -0.58100  -0.57879  -0.57629  -0.57121  -0.56830
 Alpha  occ. eigenvalues --   -0.56617  -0.56195  -0.55953  -0.55828  -0.55638
 Alpha  occ. eigenvalues --   -0.55389  -0.55048  -0.54810  -0.54779  -0.54132
 Alpha  occ. eigenvalues --   -0.53933  -0.53698  -0.53615  -0.53508  -0.53212
 Alpha  occ. eigenvalues --   -0.53064  -0.52928  -0.52889  -0.52783  -0.52464
 Alpha  occ. eigenvalues --   -0.52439  -0.52246  -0.52054  -0.51870  -0.51609
 Alpha  occ. eigenvalues --   -0.51488  -0.51409  -0.50923  -0.50809  -0.50356
 Alpha  occ. eigenvalues --   -0.50312  -0.50241  -0.49802  -0.49779  -0.49673
 Alpha  occ. eigenvalues --   -0.49520  -0.49342  -0.49279  -0.48906  -0.48868
 Alpha  occ. eigenvalues --   -0.48850  -0.48798  -0.48748  -0.48193  -0.48109
 Alpha  occ. eigenvalues --   -0.48002  -0.47988  -0.47593  -0.47307  -0.47099
 Alpha  occ. eigenvalues --   -0.46845  -0.46801  -0.46663  -0.46489  -0.46453
 Alpha  occ. eigenvalues --   -0.46353  -0.46075  -0.46018  -0.45694  -0.45513
 Alpha  occ. eigenvalues --   -0.45316  -0.44962  -0.44866  -0.44825  -0.44479
 Alpha  occ. eigenvalues --   -0.44353  -0.44325  -0.44304  -0.44111  -0.43900
 Alpha  occ. eigenvalues --   -0.43842  -0.43744  -0.43659  -0.43593  -0.43328
 Alpha  occ. eigenvalues --   -0.43202  -0.43029  -0.42897  -0.42803  -0.42614
 Alpha  occ. eigenvalues --   -0.42363  -0.42321  -0.42018  -0.41835  -0.41784
 Alpha  occ. eigenvalues --   -0.41678  -0.41425  -0.41336  -0.41266  -0.41181
 Alpha  occ. eigenvalues --   -0.41139  -0.40872  -0.40720  -0.40576  -0.40537
 Alpha  occ. eigenvalues --   -0.40426  -0.40262  -0.40118  -0.39792  -0.39255
 Alpha  occ. eigenvalues --   -0.38765  -0.38189  -0.37975  -0.37672  -0.37547
 Alpha  occ. eigenvalues --   -0.37427  -0.37057  -0.37003  -0.36964  -0.36478
 Alpha  occ. eigenvalues --   -0.36215  -0.35542  -0.34566  -0.34101  -0.34008
 Alpha  occ. eigenvalues --   -0.33513  -0.33151  -0.32796  -0.31727  -0.31359
 Alpha  occ. eigenvalues --   -0.31094  -0.30703  -0.30353  -0.29791  -0.29656
 Alpha  occ. eigenvalues --   -0.29563  -0.29107  -0.28951  -0.24392  -0.23783
 Alpha  occ. eigenvalues --   -0.21461  -0.20891
 Alpha virt. eigenvalues --   -0.09115  -0.08552  -0.02077  -0.01463  -0.00410
 Alpha virt. eigenvalues --    0.00189   0.01820   0.02473   0.03107   0.03477
 Alpha virt. eigenvalues --    0.04404   0.04789   0.05223   0.05946   0.06015

 Mulliken charges:
               1
     1  Mg   0.793308
     2  C   -0.002188
     3  C   -0.091915
     4  C   -0.044770
     5  C   -0.061185
     6  N   -0.252086
     7  C   -0.054863
     8  C   -0.013482
     9  C   -0.087428
    10  C    0.047373
    11  C    0.104725
    12  C    0.052544
    13  C   -0.072832
    14  H    0.039062
    15  N   -0.431839
    16  C    0.168483
    17  C   -0.177597
    18  C   -0.005053
    19  C    0.146695
    20  C    0.110268
    21  C    0.010496
    22  O   -0.249904
    23  C    0.063043
    24  N   -0.334713
    25  C    0.039698
    26  C   -0.028253
    27  C   -0.024220
    28  C    0.072000
    29  C    0.076127
    30  C    0.035175
    31  C   -0.007638
    32  N   -0.304163
    33  C    0.079461
    34  C   -0.172207
    35  C    0.004848
    36  C    0.072248
    37  C    0.129541
    38  C    0.040407
    39  O   -0.186098
    40  C   -0.004276
    41  C    0.215042
    42  O   -0.257268
    43  O   -0.304305
    44  C    0.155802
    45  H   -0.017428
    46  H   -0.017639
    47  H   -0.041535
    48  H    0.001518
    49  H   -0.003420
    50  H    0.025906
    51  H    0.016495
    52  H    0.017377
    53  H    0.011391
    54  H    0.045153
    55  H    0.017926
    56  H    0.017978
    57  H    0.006853
    58  H    0.027478
    59  H    0.038932
    60  H    0.038604
    61  H    0.035502
    62  H    0.029874
    63  H    0.015299
    64  H    0.010453
    65  H    0.023413
    66  H    0.013097
    67  H    0.005626
    68  H    0.007294
    69  H    0.006780
    70  H    0.007333
    71  H    0.020003
    72  H    0.028533
    73  H    0.046456
    74  H    0.010683
    75  H    0.047006
    76  H    0.036665
    77  H    0.044216
    78  H    0.047009
    79  H    0.057651
    80  Mg   0.837287
    81  C   -0.015255
    82  C   -0.088271
    83  C   -0.046078
    84  C   -0.065696
    85  N   -0.254145
    86  C   -0.049182
    87  C   -0.019945
    88  C   -0.091112
    89  C    0.044920
    90  C    0.113896
    91  C    0.092558
    92  C   -0.159986
    93  H    0.084903
    94  N   -0.423355
    95  C    0.162294
    96  C   -0.175023
    97  C   -0.008507
    98  C    0.151968
    99  C    0.099406
   100  C    0.015099
   101  O   -0.253827
   102  C    0.061467
   103  N   -0.350263
   104  C    0.037334
   105  C   -0.019612
   106  C   -0.034830
   107  C    0.089303
   108  C    0.073860
   109  C    0.034864
   110  C   -0.007587
   111  N   -0.324265
   112  C    0.078931
   113  C   -0.163476
   114  C    0.002841
   115  C    0.095947
   116  C    0.131455
   117  C    0.042404
   118  O   -0.185903
   119  C    0.002076
   120  C    0.210376
   121  O   -0.249164
   122  O   -0.311096
   123  C    0.146232
   124  H   -0.019271
   125  H   -0.016304
   126  H   -0.040886
   127  H    0.001395
   128  H   -0.003477
   129  H    0.021901
   130  H    0.013846
   131  H    0.018275
   132  H    0.009582
   133  H    0.042644
   134  H    0.040846
   135  H    0.039527
   136  H    0.008671
   137  H    0.025765
   138  H    0.038016
   139  H    0.038030
   140  H    0.035658
   141  H    0.033085
   142  H    0.013919
   143  H    0.012092
   144  H    0.024587
   145  H    0.011560
   146  H    0.005269
   147  H    0.005774
   148  H    0.003534
   149  H    0.010585
   150  H    0.017606
   151  H    0.030499
   152  H    0.046580
   153  H    0.007947
   154  H    0.046556
   155  H    0.033142
   156  H    0.041718
   157  H    0.056943
   158  H    0.065002
 Sum of Mulliken charges =  -0.00000

 Dipole moment (field-independent basis, Debye):
    X=             -3.4504    Y=              6.9464    Z=              1.8578  Tot=              7.9756
 Quadrupole moment (field-independent basis, Debye-Ang):
   XX=           -487.4922   YY=           -546.8940   ZZ=           -473.9472
   XY=            -28.1861   XZ=            -25.1734   YZ=              8.2725

 Normal termination of Gaussian 16 at Fri Sep 10 18:16:33 2021.
