 Gaussian 16, Revision A.03,
 Gaussian 16:  ES64L-G16RevA.03 25-Dec-2016

 -----------------------------------
 #p cam-b3lyp/Def2SVP td=(nstates=5)
 -----------------------------------

 --------------------------------
 TDDFT excited states in gaussian
 --------------------------------
 Symbolic Z-matrix:
 Charge =  0 Multiplicity = 1

                         Standard orientation:
 ---------------------------------------------------------------------
 Center     Atomic      Atomic             Coordinates (Angstroms)
 Number     Number       Type             X           Y           Z
 ---------------------------------------------------------------------
      1         12           0       -3.214798   -2.174135    0.253963
      2          6           0       -5.392441    0.635052   -0.168593
      3          6           0       -3.856041   -2.971889   -3.001104
      4          6           0       -1.665797   -4.899983    0.730377
      5          6           0       -3.649372   -1.806477    3.692223
      6          7           0       -4.479466   -1.211731   -1.287153
      7          6           0       -5.215797   -0.106158   -1.339084
      8          6           0       -5.721109    0.232793   -2.773359
      9          6           0       -5.662082   -1.226664   -3.412500
     10          6           0       -4.576473   -1.830559   -2.539180
     11          6           0       -6.946616   -2.027077   -3.223258
     12          6           0       -4.767434    1.224541   -3.520801
     13          6           0       -5.347410    1.858390   -4.788563
     14          1           0       -4.994969    3.233510   -5.108217
     15          7           0       -2.424289   -3.441419   -1.039071
     16          6           0       -2.798428   -3.621543   -2.328591
     17          6           0       -1.909022   -4.672571   -2.868017
     18          6           0       -1.114502   -5.222160   -1.734534
     19          6           0       -1.729705   -4.552785   -0.617019
     20          6           0       -1.839235   -5.024810   -4.322254
     21          6           0        0.012318   -6.203982   -1.667941
     22          8           0        0.403648   -6.716372   -0.563907
     23          6           0        0.595534   -6.622940   -2.955333
     24          7           0       -2.896851   -3.349106    1.949836
     25          6           0       -2.140838   -4.451065    1.894015
     26          6           0       -1.823570   -4.965674    3.266771
     27          6           0       -2.320806   -3.841628    4.286098
     28          6           0       -2.946156   -2.858195    3.266261
     29          6           0       -2.460189   -6.311367    3.640718
     30          6           0       -1.278383   -3.295315    5.293726
     31          6           0       -0.210705   -2.518035    4.556842
     32          7           0       -4.170469   -0.734120    1.567011
     33          6           0       -4.248291   -0.790651    2.966090
     34          6           0       -5.083793    0.344702    3.398499
     35          6           0       -5.450006    0.977323    2.212107
     36          6           0       -4.901095    0.266050    1.107082
     37          6           0       -5.458515    0.640767    4.738783
     38          6           0       -6.197710    2.074480    1.619619
     39          8           0       -6.791834    3.058237    2.063164
     40          6           0       -6.291340    1.826695    0.049376
     41          6           0       -5.928922    3.115667   -0.636562
     42          8           0       -4.769844    3.573026   -0.567814
     43          8           0       -6.928386    3.480416   -1.454225
     44          6           0       -6.620266    4.736845   -2.188119
     45          1           0       -4.165231   -3.449701   -3.932790
     46          1           0       -1.047117   -5.773345    0.946969
     47          1           0       -3.758903   -1.579269    4.754218
     48          1           0       -6.740206    0.617436   -2.817123
     49          1           0       -5.340997   -1.202284   -4.453668
     50          1           0       -7.645775   -1.509064   -2.566935
     51          1           0       -6.637163   -2.973306   -2.778982
     52          1           0       -7.391206   -2.279423   -4.186294
     53          1           0       -3.937729    0.666835   -3.955098
     54          1           0       -4.425502    2.011849   -2.848080
     55          1           0       -6.427073    1.717435   -4.846587
     56          1           0       -4.956858    1.317185   -5.650402
     57          1           0       -2.655341   -4.571700   -4.883689
     58          1           0       -2.019036   -6.096942   -4.399158
     59          1           0       -0.869402   -4.782581   -4.757089
     60          1           0       -0.181419   -7.074843   -3.572323
     61          1           0        1.445842   -7.257467   -2.707947
     62          1           0        0.937652   -5.737956   -3.492649
     63          1           0       -0.751424   -5.111899    3.391458
     64          1           0       -3.139535   -4.192756    4.914640
     65          1           0       -1.736093   -7.071833    3.934114
     66          1           0       -3.059220   -6.647432    2.794837
     67          1           0       -3.209803   -6.258816    4.429853
     68          1           0       -0.780210   -4.117137    5.806929
     69          1           0       -1.713327   -2.645196    6.052949
     70          1           0        0.474428   -3.298192    4.227022
     71          1           0        0.286976   -1.821307    5.232190
     72          1           0       -0.612279   -2.038253    3.664075
     73          1           0       -5.342874    1.718094    4.856949
     74          1           0       -4.841051    0.095477    5.452226
     75          1           0       -6.494364    0.301838    4.738409
     76          1           0       -7.317467    1.526036   -0.159888
     77          1           0       -7.429178    5.437088   -1.979419
     78          1           0       -6.450571    4.454979   -3.227426
     79          1           0       -5.759774    5.304409   -1.832077
     80         12           0        3.347787    2.297243    0.007755
     81          6           0        5.122779   -0.716485   -0.795904
     82          6           0        3.181501    1.165217    3.221082
     83          6           0        1.399116    4.716395    0.654145
     84          6           0        2.662353    2.635500   -3.392461
     85          7           0        4.093742    0.448401    0.965670
     86          6           0        4.807807   -0.596001    0.573659
     87          6           0        5.275436   -1.524610    1.726301
     88          6           0        4.145273   -1.155663    2.805878
     89          6           0        3.803832    0.254866    2.329972
     90          6           0        2.897233   -2.014665    2.688139
     91          6           0        6.709064   -1.155922    2.246668
     92          6           0        7.353534   -2.206009    3.154260
     93          1           0        8.797422   -2.407247    3.069695
     94          7           0        2.841419    3.109207    1.746395
     95          6           0        2.854954    2.513595    2.957329
     96          6           0        2.375481    3.527204    3.909617
     97          6           0        1.921598    4.716942    3.139392
     98          6           0        2.019203    4.207795    1.786119
     99          6           0        2.452347    3.346352    5.397844
    100          6           0        1.462011    6.082168    3.553065
    101          8           0        0.888392    6.878154    2.728322
    102          6           0        1.618843    6.424006    4.974343
    103          7           0        2.019096    3.388535   -1.161001
    104          6           0        1.333356    4.423525   -0.644789
    105          6           0        0.655171    5.224419   -1.730613
    106          6           0        1.228538    4.651113   -3.109080
    107          6           0        2.110395    3.507995   -2.560439
    108          6           0       -0.871912    5.160560   -1.749103
    109          6           0        1.869210    5.675552   -4.085152
    110          6           0        3.145143    6.226710   -3.490507
    111          7           0        3.946378    1.289670   -1.807332
    112          6           0        3.520696    1.577264   -3.122694
    113          6           0        4.109865    0.549622   -4.005446
    114          6           0        4.824349   -0.284567   -3.132434
    115          6           0        4.673417    0.178022   -1.797245
    116          6           0        3.912592    0.448437   -5.411490
    117          6           0        5.663219   -1.457428   -3.035540
    118          8           0        6.197805   -2.212490   -3.846599
    119          6           0        5.790253   -1.862734   -1.503884
    120          6           0        7.243245   -2.117323   -1.209743
    121          8           0        8.071579   -1.191547   -1.268104
    122          8           0        7.379260   -3.354866   -0.699480
    123          6           0        8.801730   -3.650006   -0.381248
    124          1           0        2.874888    0.802778    4.202679
    125          1           0        0.803692    5.619298    0.808149
    126          1           0        2.576156    2.728223   -4.477187
    127          1           0        5.241043   -2.583355    1.499046
    128          1           0        4.554122   -1.129892    3.812621
    129          1           0        2.929189   -2.654699    1.818962
    130          1           0        2.068887   -1.321913    2.617613
    131          1           0        2.739932   -2.579549    3.611447
    132          1           0        6.629406   -0.320031    2.953563
    133          1           0        7.365906   -0.933510    1.428306
    134          1           0        6.828206   -3.167763    3.109527
    135          1           0        7.237797   -1.885426    4.192452
    136          1           0        2.677595    2.306658    5.665604
    137          1           0        1.445024    3.516496    5.793087
    138          1           0        3.141408    4.048233    5.872418
    139          1           0        1.072729    5.705513    5.580974
    140          1           0        1.317725    7.470019    5.058278
    141          1           0        2.676243    6.323951    5.243618
    142          1           0        0.910248    6.274220   -1.653436
    143          1           0        0.440291    4.177835   -3.712820
    144          1           0       -1.351252    6.155092   -1.676943
    145          1           0       -1.196683    4.522166   -0.938227
    146          1           0       -1.302999    4.667103   -2.618507
    147          1           0        1.201385    6.528067   -4.231406
    148          1           0        2.083615    5.262591   -5.065197
    149          1           0        2.786449    7.023241   -2.831753
    150          1           0        3.792264    6.621561   -4.271123
    151          1           0        3.642032    5.478213   -2.862395
    152          1           0        4.879444    0.233631   -5.846866
    153          1           0        3.485978    1.362213   -5.819878
    154          1           0        3.207888   -0.386529   -5.449972
    155          1           0        5.179104   -2.752677   -1.348727
    156          1           0        9.064343   -4.569004   -0.914330
    157          1           0        8.862151   -3.673476    0.723088
    158          1           0        9.552187   -2.965044   -0.758203
 ---------------------------------------------------------------------

 SCF Done:  E(RCAM-B3LYP) =  -4069.81199484     A.U. after   19 cycles

 Excitation energies and oscillator strengths:

 Excited State   1:      Singlet-A      1.6394 eV  756.28 nm  f=0.0189  <S**2>=0.000
     309 -> 315        0.11018
     310 -> 316        0.12312
     311 -> 313        0.45953
     312 -> 314        0.51230
 This state for optimization and/or second-order correction.
 Total Energy, E(TD-HF/TD-DFT) =  -4069.75174782
 Copying the excited state density for this state as the 1-particle RhoCI density.

 Excited State   2:      Singlet-A      1.7090 eV  725.48 nm  f=0.6588  <S**2>=0.000
     309 -> 315        0.13637
     310 -> 316       -0.12200
     311 -> 313        0.50898
     312 -> 314       -0.45650

 Excited State   3:      Singlet-A      2.1785 eV  569.13 nm  f=0.0170  <S**2>=0.000
     309 -> 313        0.33007
     310 -> 314        0.55604
     311 -> 315       -0.13474
     312 -> 316       -0.22813

 Excited State   4:      Singlet-A      2.1993 eV  563.75 nm  f=0.1525  <S**2>=0.000
     309 -> 313        0.54883
     310 -> 314       -0.32422
     311 -> 315       -0.24433
     312 -> 316        0.14583

 Excited State   5:      Singlet-A      2.2314 eV  555.63 nm  f=0.0001  <S**2>=0.000
     312 -> 313        0.70698

 The electronic state is 1-A.
 Alpha  occ. eigenvalues --  -46.87934 -46.87380 -19.26421 -19.26152 -19.19193
 Alpha  occ. eigenvalues --  -19.18962 -19.18874 -19.18392 -19.18268 -19.17848
 Alpha  occ. eigenvalues --  -14.42588 -14.42215 -14.41613 -14.41053 -14.39529
 Alpha  occ. eigenvalues --  -14.39068 -14.38719 -14.38338 -10.39235 -10.38886
 Alpha  occ. eigenvalues --  -10.35497 -10.35067 -10.34493 -10.34026 -10.31806
 Alpha  occ. eigenvalues --  -10.31583 -10.31545 -10.31068 -10.31032 -10.30728
 Alpha  occ. eigenvalues --  -10.30704 -10.30649 -10.30376 -10.30132 -10.30120
 Alpha  occ. eigenvalues --  -10.30102 -10.29812 -10.29751 -10.29564 -10.29377
 Alpha  occ. eigenvalues --  -10.29157 -10.29142 -10.28890 -10.28720 -10.28481
 Alpha  occ. eigenvalues --  -10.28455 -10.28440 -10.28246 -10.28129 -10.27907
 Alpha  occ. eigenvalues --  -10.27859 -10.27859 -10.27780 -10.27746 -10.27707
 Alpha  occ. eigenvalues --  -10.27689 -10.27539 -10.27510 -10.27405 -10.27282
 Alpha  occ. eigenvalues --  -10.27250 -10.27208 -10.27201 -10.27146 -10.26881
 Alpha  occ. eigenvalues --  -10.26866 -10.26819 -10.26594 -10.26462 -10.26346
 Alpha  occ. eigenvalues --  -10.26333 -10.26191 -10.26115 -10.25988 -10.25871
 Alpha  occ. eigenvalues --  -10.25760 -10.25663 -10.25657 -10.25652 -10.25260
 Alpha  occ. eigenvalues --  -10.24947 -10.24944 -10.24627 -10.24520 -10.24486
 Alpha  occ. eigenvalues --  -10.24348  -3.16677  -3.16130  -1.91558  -1.91145
 Alpha  occ. eigenvalues --   -1.91013  -1.90987  -1.90601  -1.90438  -1.16773
 Alpha  occ. eigenvalues --   -1.16446  -1.08727  -1.08467  -1.07275  -1.06792
 Alpha  occ. eigenvalues --   -1.06748  -1.06634  -1.04715  -1.04218  -1.03916
 Alpha  occ. eigenvalues --   -1.03375  -1.03370  -1.02743  -1.02552  -1.01822
 Alpha  occ. eigenvalues --   -0.92104  -0.91726  -0.89766  -0.89329  -0.89193
 Alpha  occ. eigenvalues --   -0.88877  -0.88519  -0.88000  -0.87850  -0.87819
 Alpha  occ. eigenvalues --   -0.87589  -0.87394  -0.87344  -0.86856  -0.85127
 Alpha  occ. eigenvalues --   -0.84725  -0.84216  -0.83492  -0.83066  -0.82758
 Alpha  occ. eigenvalues --   -0.82615  -0.82371  -0.81728  -0.81366  -0.80726
 Alpha  occ. eigenvalues --   -0.80185  -0.78894  -0.78387  -0.77409  -0.77107
 Alpha  occ. eigenvalues --   -0.76877  -0.76600  -0.76061  -0.75587  -0.75100
 Alpha  occ. eigenvalues --   -0.74351  -0.72926  -0.72436  -0.71824  -0.71233
 Alpha  occ. eigenvalues --   -0.70239  -0.69409  -0.69009  -0.68556  -0.67769
 Alpha  occ. eigenvalues --   -0.67342  -0.67316  -0.66944  -0.65440  -0.65020
 Alpha  occ. eigenvalues --   -0.65007  -0.64800  -0.64505  -0.64480  -0.64379
 Alpha  occ. eigenvalues --   -0.63872  -0.62451  -0.62035  -0.60557  -0.60037
 Alpha  occ. eigenvalues --   -0.59937  -0.59531  -0.59146  -0.58697  -0.58654
 Alpha  occ. eigenvalues --   -0.58145  -0.57718  -0.57475  -0.57333  -0.56926
 Alpha  occ. eigenvalues --   -0.56430  -0.56117  -0.55968  -0.55652  -0.55642
 Alpha  occ. eigenvalues --   -0.55555  -0.55200  -0.54930  -0.54737  -0.54169
 Alpha  occ. eigenvalues --   -0.54037  -0.53661  -0.53457  -0.53317  -0.53099
 Alpha  occ. eigenvalues --   -0.52959  -0.52891  -0.52841  -0.52738  -0.52637
 Alpha  occ. eigenvalues --   -0.52391  -0.52115  -0.52050  -0.51732  -0.51729
 Alpha  occ. eigenvalues --   -0.51406  -0.51366  -0.50957  -0.50631  -0.50266
 Alpha  occ. eigenvalues --   -0.50194  -0.50008  -0.49702  -0.49618  -0.49458
 Alpha  occ. eigenvalues --   -0.49332  -0.49226  -0.49214  -0.48959  -0.48842
 Alpha  occ. eigenvalues --   -0.48751  -0.48641  -0.48522  -0.48312  -0.48066
 Alpha  occ. eigenvalues --   -0.47967  -0.47836  -0.47421  -0.47312  -0.46988
 Alpha  occ. eigenvalues --   -0.46802  -0.46692  -0.46525  -0.46426  -0.46331
 Alpha  occ. eigenvalues --   -0.46263  -0.46000  -0.45968  -0.45775  -0.45578
 Alpha  occ. eigenvalues --   -0.45408  -0.44761  -0.44708  -0.44643  -0.44366
 Alpha  occ. eigenvalues --   -0.44257  -0.44219  -0.44174  -0.44109  -0.43858
 Alpha  occ. eigenvalues --   -0.43773  -0.43686  -0.43642  -0.43542  -0.43312
 Alpha  occ. eigenvalues --   -0.43200  -0.43091  -0.42958  -0.42828  -0.42703
 Alpha  occ. eigenvalues --   -0.42607  -0.42243  -0.42216  -0.41848  -0.41695
 Alpha  occ. eigenvalues --   -0.41674  -0.41395  -0.41294  -0.41190  -0.41067
 Alpha  occ. eigenvalues --   -0.40900  -0.40784  -0.40678  -0.40466  -0.40408
 Alpha  occ. eigenvalues --   -0.40373  -0.40129  -0.39971  -0.39678  -0.39099
 Alpha  occ. eigenvalues --   -0.38696  -0.37960  -0.37909  -0.37532  -0.37401
 Alpha  occ. eigenvalues --   -0.37376  -0.36962  -0.36923  -0.36880  -0.36525
 Alpha  occ. eigenvalues --   -0.36373  -0.35876  -0.34429  -0.33973  -0.33921
 Alpha  occ. eigenvalues --   -0.33646  -0.33330  -0.32897  -0.31413  -0.31176
 Alpha  occ. eigenvalues --   -0.30945  -0.30675  -0.30131  -0.29757  -0.29553
 Alpha  occ. eigenvalues --   -0.29437  -0.29065  -0.28968  -0.24225  -0.23753
 Alpha  occ. eigenvalues --   -0.21268  -0.20834
 Alpha virt. eigenvalues --   -0.08898  -0.08520  -0.01895  -0.01378  -0.00148
 Alpha virt. eigenvalues --    0.00251   0.02069   0.02354   0.02578   0.03614
 Alpha virt. eigenvalues --    0.04555   0.04924   0.05021   0.05376   0.05925

 Mulliken charges:
               1
     1  Mg   0.838968
     2  C   -0.002884
     3  C   -0.093570
     4  C   -0.047048
     5  C   -0.064543
     6  N   -0.256555
     7  C   -0.052792
     8  C   -0.013993
     9  C   -0.087062
    10  C    0.046305
    11  C    0.104695
    12  C    0.052907
    13  C   -0.071514
    14  H    0.034538
    15  N   -0.433436
    16  C    0.168911
    17  C   -0.176189
    18  C   -0.003211
    19  C    0.148926
    20  C    0.109919
    21  C    0.012283
    22  O   -0.250596
    23  C    0.061979
    24  N   -0.340941
    25  C    0.041632
    26  C   -0.029243
    27  C   -0.024144
    28  C    0.073672
    29  C    0.076224
    30  C    0.043788
    31  C   -0.024569
    32  N   -0.310573
    33  C    0.080080
    34  C   -0.169925
    35  C    0.008875
    36  C    0.083156
    37  C    0.127276
    38  C    0.046666
    39  O   -0.187742
    40  C   -0.005844
    41  C    0.213906
    42  O   -0.257039
    43  O   -0.304561
    44  C    0.157159
    45  H   -0.016968
    46  H   -0.017257
    47  H   -0.042573
    48  H    0.001218
    49  H   -0.003780
    50  H    0.025627
    51  H    0.016633
    52  H    0.017102
    53  H    0.011284
    54  H    0.043451
    55  H    0.018661
    56  H    0.018328
    57  H    0.005823
    58  H    0.027379
    59  H    0.041696
    60  H    0.037193
    61  H    0.037178
    62  H    0.034522
    63  H    0.015894
    64  H    0.010136
    65  H    0.023008
    66  H    0.013503
    67  H    0.004999
    68  H    0.005114
    69  H    0.003353
    70  H    0.016854
    71  H    0.014088
    72  H    0.035997
    73  H    0.047835
    74  H    0.007793
    75  H    0.046258
    76  H    0.035473
    77  H    0.043771
    78  H    0.046037
    79  H    0.053932
    80  Mg   0.836653
    81  C   -0.017291
    82  C   -0.088720
    83  C   -0.042243
    84  C   -0.065432
    85  N   -0.255049
    86  C   -0.050058
    87  C   -0.015021
    88  C   -0.092308
    89  C    0.045830
    90  C    0.107601
    91  C    0.062884
    92  C   -0.077582
    93  H    0.033861
    94  N   -0.424127
    95  C    0.164172
    96  C   -0.174157
    97  C   -0.005727
    98  C    0.152077
    99  C    0.099380
   100  C    0.016633
   101  O   -0.250958
   102  C    0.061164
   103  N   -0.350301
   104  C    0.039404
   105  C   -0.021378
   106  C   -0.033121
   107  C    0.088614
   108  C    0.072363
   109  C    0.034853
   110  C   -0.007326
   111  N   -0.323723
   112  C    0.078014
   113  C   -0.164690
   114  C    0.001200
   115  C    0.095875
   116  C    0.131929
   117  C    0.040605
   118  O   -0.190265
   119  C    0.001247
   120  C    0.210897
   121  O   -0.251452
   122  O   -0.305147
   123  C    0.152404
   124  H   -0.020523
   125  H   -0.012613
   126  H   -0.042322
   127  H    0.000469
   128  H   -0.005834
   129  H    0.025447
   130  H    0.018308
   131  H    0.019100
   132  H    0.013441
   133  H    0.037280
   134  H    0.021291
   135  H    0.018894
   136  H    0.007298
   137  H    0.026634
   138  H    0.039420
   139  H    0.038576
   140  H    0.036558
   141  H    0.032732
   142  H    0.012869
   143  H    0.010608
   144  H    0.023223
   145  H    0.027052
   146  H    0.004135
   147  H    0.005593
   148  H    0.001643
   149  H    0.011150
   150  H    0.016573
   151  H    0.030028
   152  H    0.045259
   153  H    0.007939
   154  H    0.043296
   155  H    0.035479
   156  H    0.043380
   157  H    0.049600
   158  H    0.052984
 Sum of Mulliken charges =  -0.00000

 Dipole moment (field-independent basis, Debye):
    X=             -3.0303    Y=             -3.2863    Z=              0.5164  Tot=              4.4999
 Quadrupole moment (field-independent basis, Debye-Ang):
   XX=           -536.4057   YY=           -531.5381   ZZ=           -452.7346
   XY=             20.0660   XZ=             57.7529   YZ=            -21.3988

 Normal termination of Gaussian 16 at Fri Sep  3 14:08:24 2021.
