 Gaussian 16, Revision A.03,
 Gaussian 16:  ES64L-G16RevA.03 25-Dec-2016

 -----------------------------------
 #p cam-b3lyp/Def2SVP td=(nstates=5)
 -----------------------------------

 --------------------------------
 TDDFT excited states in gaussian
 --------------------------------
 Symbolic Z-matrix:
 Charge =  0 Multiplicity = 1

                         Standard orientation:
 ---------------------------------------------------------------------
 Center     Atomic      Atomic             Coordinates (Angstroms)
 Number     Number       Type             X           Y           Z
 ---------------------------------------------------------------------
      1         12           0       -4.340352   -0.894459    0.182808
      2          6           0       -4.637282    1.898419    2.401788
      3          6           0       -5.411037    1.167355   -2.316317
      4          6           0       -4.522026   -3.443707   -1.694678
      5          6           0       -4.399388   -2.948617    2.997521
      6          7           0       -4.917823    1.242589    0.168743
      7          6           0       -4.930292    2.216260    1.073719
      8          6           0       -5.210559    3.622512    0.464393
      9          6           0       -5.979029    3.174872   -0.858887
     10          6           0       -5.375206    1.792688   -1.034636
     11          6           0       -7.485795    3.032196   -0.669676
     12          6           0       -3.892603    4.397699    0.127039
     13          6           0       -4.068945    5.891043   -0.163100
     14          1           0       -3.031253    6.815508    0.268069
     15          7           0       -4.411455   -1.032694   -1.786630
     16          6           0       -4.861703   -0.089816   -2.648920
     17          6           0       -4.709108   -0.668137   -4.001303
     18          6           0       -4.311234   -2.094677   -3.843909
     19          6           0       -4.425958   -2.256660   -2.417032
     20          6           0       -4.887168    0.124250   -5.259940
     21          6           0       -3.903982   -3.148098   -4.825021
     22          8           0       -3.823884   -4.382835   -4.503179
     23          6           0       -3.684083   -2.703232   -6.213107
     24          7           0       -4.666438   -2.920310    0.566515
     25          6           0       -4.638764   -3.822726   -0.420330
     26          6           0       -4.613759   -5.221871    0.119770
     27          6           0       -4.383952   -5.084031    1.693918
     28          6           0       -4.399502   -3.539132    1.800291
     29          6           0       -5.871419   -6.062380   -0.140703
     30          6           0       -3.182799   -5.852976    2.299205
     31          6           0       -1.886530   -5.256389    1.798337
     32          7           0       -4.312275   -0.605561    2.333806
     33          6           0       -4.366281   -1.602009    3.319122
     34          6           0       -4.430859   -0.916971    4.623201
     35          6           0       -4.426628    0.439236    4.303000
     36          6           0       -4.389906    0.591571    2.887466
     37          6           0       -4.542024   -1.550108    5.892537
     38          6           0       -4.469452    1.794953    4.826503
     39          8           0       -4.414750    2.291905    5.952354
     40          6           0       -4.730526    2.792609    3.613099
     41          6           0       -3.742631    3.921004    3.731830
     42          8           0       -2.520780    3.720614    3.575977
     43          8           0       -4.403592    5.088048    3.772821
     44          6           0       -3.480363    6.250827    3.860842
     45          1           0       -5.959112    1.653600   -3.125711
     46          1           0       -4.475949   -4.350875   -2.300781
     47          1           0       -4.334774   -3.523775    3.922978
     48          1           0       -5.853811    4.260548    1.070662
     49          1           0       -5.728390    3.808801   -1.709203
     50          1           0       -7.767425    3.136720    0.378026
     51          1           0       -7.731407    2.033799   -1.032127
     52          1           0       -8.024687    3.726273   -1.315144
     53          1           0       -3.516830    4.063900   -0.840140
     54          1           0       -3.155556    4.269166    0.920491
     55          1           0       -5.050905    6.245065    0.152071
     56          1           0       -4.064314    6.031840   -1.244004
     57          1           0       -5.338710    1.095428   -5.061275
     58          1           0       -5.626566   -0.400493   -5.864625
     59          1           0       -3.956460    0.220798   -5.819220
     60          1           0       -4.599787   -2.251977   -6.595734
     61          1           0       -3.312640   -3.573765   -6.752600
     62          1           0       -2.929776   -1.915856   -6.216238
     63          1           0       -3.793236   -5.793240   -0.312325
     64          1           0       -5.242043   -5.439031    2.265170
     65          1           0       -5.673080   -6.994826   -0.669770
     66          1           0       -6.581786   -5.444795   -0.689573
     67          1           0       -6.445972   -6.313574    0.750480
     68          1           0       -3.200408   -6.894832    1.981129
     69          1           0       -3.168044   -5.839156    3.389087
     70          1           0       -1.750277   -5.744857    0.834144
     71          1           0       -1.068696   -5.498698    2.477782
     72          1           0       -1.986694   -4.187167    1.610673
     73          1           0       -3.852210   -1.027827    6.555371
     74          1           0       -4.302512   -2.611277    5.828061
     75          1           0       -5.593939   -1.372255    6.115470
     76          1           0       -5.759640    3.137895    3.707035
     77          1           0       -3.767520    6.822587    4.743375
     78          1           0       -3.523883    6.754842    2.895191
     79          1           0       -2.439330    6.023278    4.092809
     80         12           0        4.631747   -0.370980   -0.080781
     81          6           0        3.471360    1.926509   -2.581612
     82          6           0        6.367059    2.227309    1.287505
     83          6           0        6.024574   -2.455333    1.864191
     84          6           0        3.761491   -2.955872   -2.250265
     85          7           0        4.815291    1.755131   -0.662358
     86          6           0        4.279663    2.528424   -1.594807
     87          6           0        4.564850    4.043716   -1.415601
     88          6           0        5.911456    3.933958   -0.547570
     89          6           0        5.675455    2.570202    0.098300
     90          6           0        7.169259    3.849306   -1.396162
     91          6           0        3.427287    4.776133   -0.620913
     92          6           0        3.486048    6.304311   -0.675475
     93          1           0        2.229964    7.048594   -0.703396
     94          7           0        5.591965   -0.085639    1.632434
     95          6           0        6.219814    1.038783    2.035882
     96          6           0        6.785765    0.731098    3.358455
     97          6           0        6.581727   -0.717717    3.630472
     98          6           0        6.065444   -1.156304    2.349383
     99          6           0        7.370907    1.781254    4.257459
    100          6           0        6.824640   -1.570174    4.838992
    101          8           0        6.798986   -2.850117    4.776352
    102          6           0        7.185434   -0.864482    6.077263
    103          7           0        5.058068   -2.398069   -0.258285
    104          6           0        5.621860   -3.077347    0.755932
    105          6           0        5.580180   -4.565914    0.505294
    106          6           0        4.650598   -4.759041   -0.781623
    107          6           0        4.376189   -3.277339   -1.120235
    108          6           0        6.931490   -5.237656    0.262132
    109          6           0        3.439466   -5.720763   -0.637033
    110          6           0        2.426825   -5.135101    0.320553
    111          7           0        3.606492   -0.532405   -1.975735
    112          6           0        3.373090   -1.708406   -2.721815
    113          6           0        2.742485   -1.299223   -3.993559
    114          6           0        2.673207    0.099495   -3.908257
    115          6           0        3.240279    0.533024   -2.679445
    116          6           0        2.365206   -2.171276   -5.053415
    117          6           0        2.258968    1.308595   -4.582931
    118          8           0        1.639692    1.558109   -5.616369
    119          6           0        2.872113    2.554380   -3.809331
    120          6           0        1.775917    3.565861   -3.615021
    121          8           0        0.799100    3.307834   -2.889849
    122          8           0        2.164795    4.743027   -4.137915
    123          6           0        1.115116    5.781446   -3.959913
    124          1           0        7.126220    2.914218    1.662606
    125          1           0        6.392696   -3.225204    2.546287
    126          1           0        3.371012   -3.709686   -2.937262
    127          1           0        4.758545    4.581463   -2.335973
    128          1           0        5.957483    4.711867    0.210126
    129          1           0        6.940512    3.757630   -2.447548
    130          1           0        7.701318    2.974060   -1.047016
    131          1           0        7.822265    4.701788   -1.188356
    132          1           0        3.584150    4.620337    0.454202
    133          1           0        2.460717    4.439973   -0.942421
    134          1           0        4.162835    6.663022   -1.460481
    135          1           0        3.935031    6.667656    0.252110
    136          1           0        7.534144    2.724287    3.721309
    137          1           0        8.377589    1.445234    4.528680
    138          1           0        6.788911    1.926365    5.170088
    139          1           0        8.088104   -0.281462    5.910750
    140          1           0        7.231329   -1.634585    6.849735
    141          1           0        6.389639   -0.150693    6.317722
    142          1           0        5.133099   -5.086771    1.343108
    143          1           0        5.211633   -5.176693   -1.630532
    144          1           0        7.141822   -6.063233    0.968009
    145          1           0        7.703618   -4.481998    0.319850
    146          1           0        7.074500   -5.637999   -0.740104
    147          1           0        3.760630   -6.672010   -0.205589
    148          1           0        2.949849   -5.943437   -1.579196
    149          1           0        2.819004   -5.422562    1.300677
    150          1           0        1.442491   -5.565457    0.147591
    151          1           0        2.428006   -4.039918    0.273307
    152          1           0        1.388534   -1.848938   -5.389112
    153          1           0        2.352077   -3.209531   -4.728415
    154          1           0        3.171645   -1.973982   -5.764757
    155          1           0        3.688788    2.947240   -4.416184
    156          1           0        0.888550    6.180325   -4.953522
    157          1           0        1.519523    6.490046   -3.212851
    158          1           0        0.134778    5.452661   -3.635422
 ---------------------------------------------------------------------

 SCF Done:  E(RCAM-B3LYP) =  -4069.81261474     A.U. after   19 cycles

 Excitation energies and oscillator strengths:

 Excited State   1:      Singlet-A      1.6476 eV  752.49 nm  f=0.0557  <S**2>=0.000
     309 -> 315        0.12442
     310 -> 316        0.11044
     311 -> 313        0.51341
     312 -> 314        0.45763
 This state for optimization and/or second-order correction.
 Total Energy, E(TD-HF/TD-DFT) =  -4069.75206493
 Copying the excited state density for this state as the 1-particle RhoCI density.

 Excited State   2:      Singlet-A      1.7038 eV  727.70 nm  f=0.6593  <S**2>=0.000
     309 -> 315       -0.12030
     310 -> 316        0.13512
     311 -> 313       -0.45526
     312 -> 314        0.51079

 Excited State   3:      Singlet-A      2.1811 eV  568.46 nm  f=0.0146  <S**2>=0.000
     309 -> 313        0.55976
     310 -> 314       -0.32084
     311 -> 315       -0.23294
     312 -> 316        0.13209

 Excited State   4:      Singlet-A      2.1961 eV  564.57 nm  f=0.1596  <S**2>=0.000
     309 -> 313        0.31684
     310 -> 314        0.55500
     311 -> 315       -0.13973
     312 -> 316       -0.24344

 Excited State   5:      Singlet-A      2.3771 eV  521.58 nm  f=0.0000  <S**2>=0.000
     312 -> 313        0.70685

 The electronic state is 1-A.
 Alpha  occ. eigenvalues --  -46.87539 -46.87356 -19.26447 -19.26024 -19.19232
 Alpha  occ. eigenvalues --  -19.18724 -19.18587 -19.18414 -19.18068 -19.17815
 Alpha  occ. eigenvalues --  -14.42378 -14.42012 -14.41250 -14.41044 -14.39230
 Alpha  occ. eigenvalues --  -14.38954 -14.38498 -14.38169 -10.39149 -10.38780
 Alpha  occ. eigenvalues --  -10.35262 -10.35041 -10.34244 -10.34038 -10.31923
 Alpha  occ. eigenvalues --  -10.31487 -10.31216 -10.30989 -10.30909 -10.30459
 Alpha  occ. eigenvalues --  -10.30297 -10.30267 -10.30147 -10.30111 -10.30010
 Alpha  occ. eigenvalues --  -10.29801 -10.29799 -10.29565 -10.29313 -10.29302
 Alpha  occ. eigenvalues --  -10.29223 -10.28813 -10.28616 -10.28571 -10.28315
 Alpha  occ. eigenvalues --  -10.28308 -10.28192 -10.28042 -10.27931 -10.27913
 Alpha  occ. eigenvalues --  -10.27699 -10.27555 -10.27399 -10.27387 -10.27372
 Alpha  occ. eigenvalues --  -10.27358 -10.27316 -10.27289 -10.27273 -10.27205
 Alpha  occ. eigenvalues --  -10.27172 -10.27149 -10.27047 -10.26993 -10.26900
 Alpha  occ. eigenvalues --  -10.26812 -10.26546 -10.26251 -10.26181 -10.25999
 Alpha  occ. eigenvalues --  -10.25953 -10.25953 -10.25931 -10.25879 -10.25816
 Alpha  occ. eigenvalues --  -10.25806 -10.25621 -10.25519 -10.25312 -10.25187
 Alpha  occ. eigenvalues --  -10.24795 -10.24588 -10.24580 -10.24489 -10.24426
 Alpha  occ. eigenvalues --  -10.24398  -3.16287  -3.16096  -1.91169  -1.90977
 Alpha  occ. eigenvalues --   -1.90758  -1.90596  -1.90565  -1.90407  -1.16734
 Alpha  occ. eigenvalues --   -1.16364  -1.08690  -1.08285  -1.07017  -1.06838
 Alpha  occ. eigenvalues --   -1.06821  -1.06349  -1.04384  -1.04147  -1.03551
 Alpha  occ. eigenvalues --   -1.03352  -1.02931  -1.02813  -1.02008  -1.01997
 Alpha  occ. eigenvalues --   -0.91917  -0.91578  -0.89387  -0.89181  -0.89048
 Alpha  occ. eigenvalues --   -0.88765  -0.88111  -0.87957  -0.87717  -0.87573
 Alpha  occ. eigenvalues --   -0.87484  -0.87246  -0.86993  -0.86806  -0.84898
 Alpha  occ. eigenvalues --   -0.84571  -0.83779  -0.83641  -0.82806  -0.82559
 Alpha  occ. eigenvalues --   -0.82552  -0.82250  -0.81586  -0.81254  -0.80381
 Alpha  occ. eigenvalues --   -0.80214  -0.78526  -0.78355  -0.77043  -0.76847
 Alpha  occ. eigenvalues --   -0.76837  -0.76579  -0.75784  -0.75557  -0.74720
 Alpha  occ. eigenvalues --   -0.74573  -0.72603  -0.72380  -0.71497  -0.71298
 Alpha  occ. eigenvalues --   -0.69652  -0.69604  -0.68733  -0.68473  -0.67516
 Alpha  occ. eigenvalues --   -0.67247  -0.67083  -0.66787  -0.65188  -0.64880
 Alpha  occ. eigenvalues --   -0.64699  -0.64581  -0.64483  -0.64261  -0.64104
 Alpha  occ. eigenvalues --   -0.63917  -0.62278  -0.61983  -0.60223  -0.60019
 Alpha  occ. eigenvalues --   -0.59696  -0.59384  -0.58907  -0.58606  -0.58355
 Alpha  occ. eigenvalues --   -0.58124  -0.57552  -0.57240  -0.57147  -0.56948
 Alpha  occ. eigenvalues --   -0.56131  -0.55916  -0.55879  -0.55656  -0.55385
 Alpha  occ. eigenvalues --   -0.55187  -0.55117  -0.55033  -0.54445  -0.54224
 Alpha  occ. eigenvalues --   -0.53811  -0.53476  -0.53136  -0.53074  -0.52919
 Alpha  occ. eigenvalues --   -0.52835  -0.52808  -0.52555  -0.52542  -0.52309
 Alpha  occ. eigenvalues --   -0.52281  -0.52154  -0.51837  -0.51563  -0.51556
 Alpha  occ. eigenvalues --   -0.51186  -0.51146  -0.50838  -0.50333  -0.50090
 Alpha  occ. eigenvalues --   -0.49870  -0.49762  -0.49680  -0.49490  -0.49389
 Alpha  occ. eigenvalues --   -0.49132  -0.49114  -0.49047  -0.48823  -0.48719
 Alpha  occ. eigenvalues --   -0.48517  -0.48321  -0.48249  -0.48228  -0.48137
 Alpha  occ. eigenvalues --   -0.48037  -0.47509  -0.47309  -0.47023  -0.46898
 Alpha  occ. eigenvalues --   -0.46616  -0.46459  -0.46426  -0.46187  -0.46157
 Alpha  occ. eigenvalues --   -0.46017  -0.45967  -0.45818  -0.45794  -0.45492
 Alpha  occ. eigenvalues --   -0.45118  -0.44875  -0.44471  -0.44376  -0.44234
 Alpha  occ. eigenvalues --   -0.44108  -0.44076  -0.43985  -0.43844  -0.43783
 Alpha  occ. eigenvalues --   -0.43724  -0.43617  -0.43555  -0.43301  -0.43166
 Alpha  occ. eigenvalues --   -0.42997  -0.42953  -0.42837  -0.42661  -0.42439
 Alpha  occ. eigenvalues --   -0.42403  -0.42356  -0.41861  -0.41676  -0.41612
 Alpha  occ. eigenvalues --   -0.41359  -0.41331  -0.41146  -0.40904  -0.40766
 Alpha  occ. eigenvalues --   -0.40611  -0.40575  -0.40503  -0.40403  -0.40390
 Alpha  occ. eigenvalues --   -0.40239  -0.40099  -0.39769  -0.39330  -0.39130
 Alpha  occ. eigenvalues --   -0.38241  -0.38137  -0.37556  -0.37345  -0.37163
 Alpha  occ. eigenvalues --   -0.37100  -0.36960  -0.36843  -0.36805  -0.36413
 Alpha  occ. eigenvalues --   -0.36142  -0.35851  -0.34160  -0.33898  -0.33878
 Alpha  occ. eigenvalues --   -0.33452  -0.33076  -0.32779  -0.31148  -0.30948
 Alpha  occ. eigenvalues --   -0.30873  -0.30633  -0.29979  -0.29681  -0.29224
 Alpha  occ. eigenvalues --   -0.29124  -0.29016  -0.28904  -0.23930  -0.23663
 Alpha  occ. eigenvalues --   -0.21009  -0.20708
 Alpha virt. eigenvalues --   -0.08690  -0.08348  -0.01568  -0.01337   0.00079
 Alpha virt. eigenvalues --    0.00373   0.02258   0.02571   0.03139   0.04013
 Alpha virt. eigenvalues --    0.04827   0.05111   0.05122   0.05409   0.06211

 Mulliken charges:
               1
     1  Mg   0.842366
     2  C   -0.002260
     3  C   -0.090204
     4  C   -0.047059
     5  C   -0.064698
     6  N   -0.256780
     7  C   -0.051590
     8  C   -0.014854
     9  C   -0.087864
    10  C    0.048536
    11  C    0.105004
    12  C    0.052494
    13  C   -0.070094
    14  H    0.032014
    15  N   -0.433233
    16  C    0.171549
    17  C   -0.173691
    18  C   -0.003408
    19  C    0.149416
    20  C    0.109786
    21  C    0.011846
    22  O   -0.252026
    23  C    0.060832
    24  N   -0.341158
    25  C    0.041686
    26  C   -0.028190
    27  C   -0.023701
    28  C    0.074239
    29  C    0.076556
    30  C    0.036514
    31  C   -0.008664
    32  N   -0.310051
    33  C    0.079691
    34  C   -0.170788
    35  C    0.007571
    36  C    0.082638
    37  C    0.127577
    38  C    0.045309
    39  O   -0.190608
    40  C   -0.005384
    41  C    0.212599
    42  O   -0.256886
    43  O   -0.304818
    44  C    0.158562
    45  H   -0.018086
    46  H   -0.018248
    47  H   -0.042815
    48  H   -0.000677
    49  H   -0.003459
    50  H    0.024767
    51  H    0.016122
    52  H    0.015782
    53  H    0.019483
    54  H    0.044676
    55  H    0.016298
    56  H    0.017210
    57  H    0.005728
    58  H    0.024890
    59  H    0.046805
    60  H    0.037024
    61  H    0.033706
    62  H    0.037150
    63  H    0.015059
    64  H    0.008802
    65  H    0.022100
    66  H    0.012680
    67  H    0.004227
    68  H    0.004701
    69  H    0.004374
    70  H    0.008930
    71  H    0.019487
    72  H    0.030808
    73  H    0.046356
    74  H    0.008418
    75  H    0.045034
    76  H    0.034312
    77  H    0.041682
    78  H    0.046268
    79  H    0.052366
    80  Mg   0.840178
    81  C   -0.016614
    82  C   -0.087142
    83  C   -0.045409
    84  C   -0.064637
    85  N   -0.254742
    86  C   -0.049208
    87  C   -0.015762
    88  C   -0.090803
    89  C    0.046817
    90  C    0.114445
    91  C    0.062350
    92  C   -0.077289
    93  H    0.033237
    94  N   -0.423553
    95  C    0.164317
    96  C   -0.173943
    97  C   -0.007127
    98  C    0.152723
    99  C    0.099379
   100  C    0.016260
   101  O   -0.253365
   102  C    0.060711
   103  N   -0.350085
   104  C    0.037774
   105  C   -0.019921
   106  C   -0.034454
   107  C    0.088499
   108  C    0.073784
   109  C    0.034366
   110  C   -0.009574
   111  N   -0.323822
   112  C    0.078036
   113  C   -0.163200
   114  C    0.000769
   115  C    0.096313
   116  C    0.132137
   117  C    0.041523
   118  O   -0.191901
   119  C    0.001189
   120  C    0.210177
   121  O   -0.250951
   122  O   -0.305283
   123  C    0.153184
   124  H   -0.019760
   125  H   -0.015641
   126  H   -0.039954
   127  H   -0.001672
   128  H   -0.003933
   129  H    0.021992
   130  H    0.014386
   131  H    0.016053
   132  H    0.016780
   133  H    0.038404
   134  H    0.019748
   135  H    0.020190
   136  H    0.008805
   137  H    0.025806
   138  H    0.041464
   139  H    0.037891
   140  H    0.036371
   141  H    0.035566
   142  H    0.014372
   143  H    0.012180
   144  H    0.024907
   145  H    0.011470
   146  H    0.005526
   147  H    0.005434
   148  H    0.004512
   149  H    0.009908
   150  H    0.020493
   151  H    0.030475
   152  H    0.042685
   153  H    0.010773
   154  H    0.046228
   155  H    0.034611
   156  H    0.042451
   157  H    0.050462
   158  H    0.050895
 Sum of Mulliken charges =  -0.00000

 Dipole moment (field-independent basis, Debye):
    X=              1.4213    Y=              3.2018    Z=             -2.0099  Tot=              4.0388
 Quadrupole moment (field-independent basis, Debye-Ang):
   XX=           -474.2079   YY=           -462.8125   ZZ=           -541.0820
   XY=             13.6805   XZ=             18.6200   YZ=            -11.1087

 Normal termination of Gaussian 16 at Thu Sep  9 18:52:25 2021.
