 Gaussian 16, Revision A.03,
 Gaussian 16:  ES64L-G16RevA.03 25-Dec-2016

 -----------------------------------
 #p cam-b3lyp/Def2SVP td=(nstates=5)
 -----------------------------------

 --------------------------------
 TDDFT excited states in gaussian
 --------------------------------
 Symbolic Z-matrix:
 Charge =  0 Multiplicity = 1

                         Standard orientation:
 ---------------------------------------------------------------------
 Center     Atomic      Atomic             Coordinates (Angstroms)
 Number     Number       Type             X           Y           Z
 ---------------------------------------------------------------------
      1         12           0       -4.360978   -0.873642    0.105569
      2          6           0       -4.677151    1.883729    2.365912
      3          6           0       -5.382191    1.235176   -2.374970
      4          6           0       -4.527300   -3.390413   -1.816624
      5          6           0       -4.474144   -2.973752    2.884488
      6          7           0       -4.926824    1.266522    0.118241
      7          6           0       -4.948033    2.225133    1.038994
      8          6           0       -5.211444    3.642815    0.448938
      9          6           0       -5.961855    3.221419   -0.893189
     10          6           0       -5.362741    1.838998   -1.082665
     11          6           0       -7.472086    3.084005   -0.729414
     12          6           0       -3.884368    4.416144    0.144697
     13          6           0       -4.048311    5.915043   -0.123217
     14          1           0       -3.012477    6.826463    0.339071
     15          7           0       -4.402546   -0.978860   -1.866753
     16          6           0       -4.834487   -0.019349   -2.720013
     17          6           0       -4.664201   -0.576044   -4.079342
     18          6           0       -4.276362   -2.007183   -3.939644
     19          6           0       -4.413852   -2.192123   -2.517578
     20          6           0       -4.818697    0.238047   -5.327195
     21          6           0       -3.859675   -3.046466   -4.931811
     22          8           0       -3.791081   -4.286787   -4.629369
     23          6           0       -3.616120   -2.579911   -6.308782
     24          7           0       -4.703658   -2.903724    0.450495
     25          6           0       -4.665612   -3.789820   -0.550689
     26          6           0       -4.656327   -5.197831   -0.033623
     27          6           0       -4.450005   -5.087347    1.545927
     28          6           0       -4.458995   -3.544358    1.677738
     29          6           0       -5.914276   -6.026912   -0.327222
     30          6           0       -3.262388   -5.872870    2.156613
     31          6           0       -1.955431   -5.275286    1.685597
     32          7           0       -4.364421   -0.620551    2.261254
     33          6           0       -4.438842   -1.632858    3.228916
     34          6           0       -4.519814   -0.969152    4.543072
     35          6           0       -4.503472    0.392126    4.245581
     36          6           0       -4.444200    0.567665    2.833503
     37          6           0       -4.653824   -1.622586    5.799853
     38          6           0       -4.547145    1.739208    4.790851
     39          8           0       -4.507113    2.217143    5.925517
     40          6           0       -4.784251    2.758249    3.590367
     41          6           0       -3.792327    3.879017    3.742928
     42          8           0       -2.569306    3.674447    3.602444
     43          8           0       -4.447643    5.048877    3.793229
     44          6           0       -3.519722    6.204891    3.914674
     45          1           0       -5.915180    1.737792   -3.184440
     46          1           0       -4.476727   -4.287666   -2.436960
     47          1           0       -4.426807   -3.564502    3.801127
     48          1           0       -5.860542    4.274292    1.055842
     49          1           0       -5.694823    3.867934   -1.728913
     50          1           0       -7.769221    3.172735    0.315458
     51          1           0       -7.717391    2.093125   -1.112134
     52          1           0       -7.997309    3.791656   -1.371402
     53          1           0       -3.495555    4.096318   -0.822049
     54          1           0       -3.160290    4.270400    0.947066
     55          1           0       -5.033106    6.269251    0.182765
     56          1           0       -4.026326    6.073686   -1.201433
     57          1           0       -5.268082    1.208297   -5.119320
     58          1           0       -5.551490   -0.272498   -5.951749
     59          1           0       -3.879008    0.338666   -5.870510
     60          1           0       -4.523432   -2.117303   -6.697791
     61          1           0       -3.241054   -3.443445   -6.856947
     62          1           0       -2.857689   -1.796796   -6.287292
     63          1           0       -3.832304   -5.766520   -0.462580
     64          1           0       -5.318642   -5.446980    2.098021
     65          1           0       -5.712780   -6.951560   -0.868637
     66          1           0       -6.612841   -5.396388   -0.876527
     67          1           0       -6.503778   -6.289627    0.550779
     68          1           0       -3.280632   -6.909204    1.821016
     69          1           0       -3.264307   -5.877175    3.246672
     70          1           0       -1.806973   -5.748476    0.715605
     71          1           0       -1.149429   -5.533349    2.373329
     72          1           0       -2.047029   -4.202564    1.514240
     73          1           0       -3.971516   -1.115191    6.481744
     74          1           0       -4.418980   -2.683857    5.721398
     75          1           0       -5.708082   -1.442605    6.009622
     76          1           0       -5.812842    3.107646    3.674304
     77          1           0       -3.817369    6.763551    4.802108
     78          1           0       -3.545727    6.725056    2.956990
     79          1           0       -2.483596    5.967752    4.158697
     80         12           0        4.616352   -0.395781   -0.012517
     81          6           0        3.653443    1.952458   -2.549760
     82          6           0        6.236790    2.173181    1.539639
     83          6           0        5.854364   -2.519888    1.993208
     84          6           0        3.921084   -2.935809   -2.295186
     85          7           0        4.843001    1.741492   -0.534946
     86          6           0        4.381404    2.533802   -1.490725
     87          6           0        4.650306    4.044978   -1.259214
     88          6           0        5.924850    3.916813   -0.290721
     89          6           0        5.640187    2.540476    0.307059
     90          6           0        7.245351    3.848418   -1.039675
     91          6           0        3.453315    4.762004   -0.541504
     92          6           0        3.514805    6.290926   -0.560478
     93          1           0        2.264116    7.036485   -0.671731
     94          7           0        5.439120   -0.145709    1.776079
     95          6           0        6.032415    0.969914    2.250066
     96          6           0        6.493275    0.635236    3.606443
     97          6           0        6.269843   -0.818634    3.832379
     98          6           0        5.855932   -1.230939    2.506192
     99          6           0        7.005236    1.666641    4.569518
    100          6           0        6.418075   -1.695458    5.038784
    101          8           0        6.398561   -2.973849    4.948544
    102          6           0        6.680100   -1.015128    6.315496
    103          7           0        5.057080   -2.419170   -0.196888
    104          6           0        5.540281   -3.119147    0.844493
    105          6           0        5.519698   -4.602331    0.561399
    106          6           0        4.693989   -4.768827   -0.798028
    107          6           0        4.445632   -3.280417   -1.127165
    108          6           0        6.886501   -5.269968    0.411374
    109          6           0        3.476105   -5.732443   -0.768202
    110          6           0        2.391030   -5.165513    0.118689
    111          7           0        3.742878   -0.518259   -1.984850
    112          6           0        3.569703   -1.678817   -2.770469
    113          6           0        3.040330   -1.243633   -4.079214
    114          6           0        2.963325    0.153132   -3.971420
    115          6           0        3.431978    0.561401   -2.693468
    116          6           0        2.748031   -2.093882   -5.182737
    117          6           0        2.602149    1.375868   -4.651980
    118          8           0        2.065532    1.646593   -5.725521
    119          6           0        3.151668    2.605372   -3.807752
    120          6           0        2.042711    3.613488   -3.679589
    121          8           0        1.012310    3.341563   -3.038545
    122          8           0        2.470321    4.800693   -4.146574
    123          6           0        1.408988    5.836036   -4.030477
    124          1           0        6.963619    2.851872    1.986847
    125          1           0        6.168591   -3.303615    2.686393
    126          1           0        3.586300   -3.675342   -3.025720
    127          1           0        4.915047    4.601031   -2.150547
    128          1           0        5.910671    4.679242    0.483779
    129          1           0        7.099785    3.778126   -2.107389
    130          1           0        7.749211    2.965950   -0.667617
    131          1           0        7.879306    4.696095   -0.764198
    132          1           0        3.525597    4.584458    0.539233
    133          1           0        2.515214    4.433057   -0.944476
    134          1           0        4.250704    6.664930   -1.282650
    135          1           0        3.889397    6.635179    0.406568
    136          1           0        7.209141    2.620180    4.066931
    137          1           0        7.987862    1.324532    4.911964
    138          1           0        6.353385    1.793720    5.436478
    139          1           0        7.592518   -0.429477    6.232014
    140          1           0        6.666019   -1.800673    7.073502
    141          1           0        5.867266   -0.305778    6.507198
    142          1           0        5.008808   -5.139675    1.350935
    143          1           0        5.320176   -5.169674   -1.608613
    144          1           0        7.041613   -6.109757    1.114777
    145          1           0        7.651058   -4.516162    0.544642
    146          1           0        7.107967   -5.650121   -0.584429
    147          1           0        3.763330   -6.692413   -0.332189
    148          1           0        3.062021   -5.935725   -1.750139
    149          1           0        2.705456   -5.472942    1.120544
    150          1           0        1.423654   -5.591621   -0.139505
    151          1           0        2.394933   -4.069606    0.093772
    152          1           0        1.800381   -1.764156   -5.587364
    153          1           0        2.710417   -3.138471   -4.880760
    154          1           0        3.607555   -1.882838   -5.824578
    155          1           0        4.013041    3.009836   -4.340699
    156          1           0        1.260625    6.255024   -5.030535
    157          1           0        1.752982    6.529141   -3.239889
    158          1           0        0.406537    5.501446   -3.790492
 ---------------------------------------------------------------------

 SCF Done:  E(RCAM-B3LYP) =  -4069.81257543     A.U. after   19 cycles

 Excitation energies and oscillator strengths:

 Excited State   1:      Singlet-A      1.6482 eV  752.26 nm  f=0.0432  <S**2>=0.000
     309 -> 315        0.12440
     310 -> 316        0.11074
     311 -> 313        0.51303
     312 -> 314        0.45802
 This state for optimization and/or second-order correction.
 Total Energy, E(TD-HF/TD-DFT) =  -4069.75200689
 Copying the excited state density for this state as the 1-particle RhoCI density.

 Excited State   2:      Singlet-A      1.7037 eV  727.73 nm  f=0.6692  <S**2>=0.000
     309 -> 315       -0.12045
     310 -> 316        0.13511
     311 -> 313       -0.45566
     312 -> 314        0.51044

 Excited State   3:      Singlet-A      2.1815 eV  568.34 nm  f=0.0153  <S**2>=0.000
     309 -> 313        0.56179
     310 -> 314       -0.31701
     311 -> 315       -0.23406
     312 -> 316        0.13073

 Excited State   4:      Singlet-A      2.1962 eV  564.53 nm  f=0.1593  <S**2>=0.000
     309 -> 313        0.31308
     310 -> 314        0.55713
     311 -> 315       -0.13820
     312 -> 316       -0.24450

 Excited State   5:      Singlet-A      2.3925 eV  518.21 nm  f=0.0000  <S**2>=0.000
     312 -> 313        0.70692

 The electronic state is 1-A.
 Alpha  occ. eigenvalues --  -46.87532 -46.87388 -19.26437 -19.26056 -19.19225
 Alpha  occ. eigenvalues --  -19.18760 -19.18577 -19.18432 -19.18052 -19.17844
 Alpha  occ. eigenvalues --  -14.42371 -14.42044 -14.41243 -14.41072 -14.39222
 Alpha  occ. eigenvalues --  -14.38985 -14.38490 -14.38199 -10.39142 -10.38815
 Alpha  occ. eigenvalues --  -10.35251 -10.35059 -10.34228 -10.34067 -10.31910
 Alpha  occ. eigenvalues --  -10.31516 -10.31209 -10.31020 -10.30901 -10.30492
 Alpha  occ. eigenvalues --  -10.30289 -10.30259 -10.30178 -10.30137 -10.30004
 Alpha  occ. eigenvalues --  -10.29823 -10.29795 -10.29588 -10.29305 -10.29293
 Alpha  occ. eigenvalues --  -10.29249 -10.28841 -10.28611 -10.28569 -10.28351
 Alpha  occ. eigenvalues --  -10.28299 -10.28217 -10.28036 -10.27962 -10.27903
 Alpha  occ. eigenvalues --  -10.27731 -10.27547 -10.27401 -10.27396 -10.27380
 Alpha  occ. eigenvalues --  -10.27348 -10.27320 -10.27302 -10.27270 -10.27218
 Alpha  occ. eigenvalues --  -10.27185 -10.27177 -10.27037 -10.27023 -10.26936
 Alpha  occ. eigenvalues --  -10.26842 -10.26544 -10.26237 -10.26231 -10.25998
 Alpha  occ. eigenvalues --  -10.25956 -10.25946 -10.25946 -10.25905 -10.25810
 Alpha  occ. eigenvalues --  -10.25799 -10.25646 -10.25542 -10.25309 -10.25199
 Alpha  occ. eigenvalues --  -10.24786 -10.24581 -10.24579 -10.24482 -10.24455
 Alpha  occ. eigenvalues --  -10.24424  -3.16281  -3.16129  -1.91162  -1.91010
 Alpha  occ. eigenvalues --   -1.90752  -1.90597  -1.90589  -1.90439  -1.16725
 Alpha  occ. eigenvalues --   -1.16397  -1.08674  -1.08314  -1.07010  -1.06838
 Alpha  occ. eigenvalues --   -1.06828  -1.06384  -1.04376  -1.04179  -1.03544
 Alpha  occ. eigenvalues --   -1.03379  -1.02924  -1.02842  -1.02026  -1.02000
 Alpha  occ. eigenvalues --   -0.91909  -0.91607  -0.89381  -0.89199  -0.89042
 Alpha  occ. eigenvalues --   -0.88798  -0.88107  -0.87975  -0.87710  -0.87566
 Alpha  occ. eigenvalues --   -0.87511  -0.87277  -0.86981  -0.86833  -0.84892
 Alpha  occ. eigenvalues --   -0.84601  -0.83774  -0.83655  -0.82796  -0.82573
 Alpha  occ. eigenvalues --   -0.82550  -0.82276  -0.81577  -0.81282  -0.80372
 Alpha  occ. eigenvalues --   -0.80241  -0.78517  -0.78382  -0.77037  -0.76868
 Alpha  occ. eigenvalues --   -0.76832  -0.76607  -0.75775  -0.75585  -0.74714
 Alpha  occ. eigenvalues --   -0.74593  -0.72596  -0.72407  -0.71490  -0.71324
 Alpha  occ. eigenvalues --   -0.69650  -0.69612  -0.68726  -0.68501  -0.67508
 Alpha  occ. eigenvalues --   -0.67274  -0.67076  -0.66817  -0.65181  -0.64912
 Alpha  occ. eigenvalues --   -0.64692  -0.64574  -0.64510  -0.64285  -0.64098
 Alpha  occ. eigenvalues --   -0.63939  -0.62269  -0.62011  -0.60214  -0.60044
 Alpha  occ. eigenvalues --   -0.59689  -0.59415  -0.58900  -0.58632  -0.58347
 Alpha  occ. eigenvalues --   -0.58151  -0.57542  -0.57270  -0.57139  -0.56971
 Alpha  occ. eigenvalues --   -0.56123  -0.55944  -0.55870  -0.55686  -0.55375
 Alpha  occ. eigenvalues --   -0.55180  -0.55141  -0.55053  -0.54439  -0.54247
 Alpha  occ. eigenvalues --   -0.53806  -0.53509  -0.53128  -0.53065  -0.52943
 Alpha  occ. eigenvalues --   -0.52836  -0.52828  -0.52582  -0.52530  -0.52332
 Alpha  occ. eigenvalues --   -0.52278  -0.52166  -0.51829  -0.51588  -0.51549
 Alpha  occ. eigenvalues --   -0.51217  -0.51137  -0.50864  -0.50321  -0.50114
 Alpha  occ. eigenvalues --   -0.49862  -0.49755  -0.49699  -0.49517  -0.49381
 Alpha  occ. eigenvalues --   -0.49141  -0.49123  -0.49038  -0.48851  -0.48747
 Alpha  occ. eigenvalues --   -0.48508  -0.48313  -0.48274  -0.48219  -0.48159
 Alpha  occ. eigenvalues --   -0.48060  -0.47501  -0.47333  -0.47015  -0.46924
 Alpha  occ. eigenvalues --   -0.46610  -0.46457  -0.46445  -0.46188  -0.46177
 Alpha  occ. eigenvalues --   -0.46011  -0.45993  -0.45842  -0.45786  -0.45519
 Alpha  occ. eigenvalues --   -0.45112  -0.44894  -0.44463  -0.44370  -0.44260
 Alpha  occ. eigenvalues --   -0.44131  -0.44066  -0.43978  -0.43833  -0.43804
 Alpha  occ. eigenvalues --   -0.43751  -0.43643  -0.43546  -0.43295  -0.43193
 Alpha  occ. eigenvalues --   -0.43024  -0.42943  -0.42829  -0.42686  -0.42435
 Alpha  occ. eigenvalues --   -0.42431  -0.42369  -0.41856  -0.41696  -0.41603
 Alpha  occ. eigenvalues --   -0.41359  -0.41352  -0.41173  -0.40897  -0.40792
 Alpha  occ. eigenvalues --   -0.40605  -0.40567  -0.40525  -0.40423  -0.40386
 Alpha  occ. eigenvalues --   -0.40260  -0.40094  -0.39808  -0.39325  -0.39140
 Alpha  occ. eigenvalues --   -0.38237  -0.38156  -0.37551  -0.37376  -0.37158
 Alpha  occ. eigenvalues --   -0.37093  -0.36982  -0.36875  -0.36798  -0.36442
 Alpha  occ. eigenvalues --   -0.36136  -0.35878  -0.34153  -0.33907  -0.33892
 Alpha  occ. eigenvalues --   -0.33487  -0.33068  -0.32808  -0.31139  -0.30966
 Alpha  occ. eigenvalues --   -0.30866  -0.30661  -0.29962  -0.29710  -0.29214
 Alpha  occ. eigenvalues --   -0.29115  -0.29044  -0.28933  -0.23923  -0.23692
 Alpha  occ. eigenvalues --   -0.21001  -0.20737
 Alpha virt. eigenvalues --   -0.08682  -0.08377  -0.01561  -0.01364   0.00090
 Alpha virt. eigenvalues --    0.00347   0.02269   0.02544   0.03111   0.03990
 Alpha virt. eigenvalues --    0.04834   0.05089   0.05125   0.05375   0.06222

 Mulliken charges:
               1
     1  Mg   0.841894
     2  C   -0.002440
     3  C   -0.090499
     4  C   -0.046877
     5  C   -0.064577
     6  N   -0.256787
     7  C   -0.051820
     8  C   -0.014724
     9  C   -0.087782
    10  C    0.048237
    11  C    0.104984
    12  C    0.052472
    13  C   -0.070217
    14  H    0.032335
    15  N   -0.433274
    16  C    0.171296
    17  C   -0.173941
    18  C   -0.003273
    19  C    0.149404
    20  C    0.109855
    21  C    0.012176
    22  O   -0.251827
    23  C    0.061014
    24  N   -0.341172
    25  C    0.041667
    26  C   -0.028160
    27  C   -0.023629
    28  C    0.074280
    29  C    0.076535
    30  C    0.035885
    31  C   -0.007258
    32  N   -0.310064
    33  C    0.079689
    34  C   -0.170709
    35  C    0.007597
    36  C    0.082600
    37  C    0.127571
    38  C    0.045295
    39  O   -0.190562
    40  C   -0.005326
    41  C    0.212624
    42  O   -0.257111
    43  O   -0.304757
    44  C    0.158524
    45  H   -0.018004
    46  H   -0.018095
    47  H   -0.042680
    48  H   -0.000547
    49  H   -0.003397
    50  H    0.024807
    51  H    0.016170
    52  H    0.015882
    53  H    0.018638
    54  H    0.044340
    55  H    0.016413
    56  H    0.017604
    57  H    0.005767
    58  H    0.025085
    59  H    0.046233
    60  H    0.036976
    61  H    0.033883
    62  H    0.036862
    63  H    0.015183
    64  H    0.008820
    65  H    0.022183
    66  H    0.012653
    67  H    0.004259
    68  H    0.004815
    69  H    0.004486
    70  H    0.008557
    71  H    0.019165
    72  H    0.030495
    73  H    0.046371
    74  H    0.008527
    75  H    0.045087
    76  H    0.034386
    77  H    0.041774
    78  H    0.046334
    79  H    0.052300
    80  Mg   0.840016
    81  C   -0.016716
    82  C   -0.087014
    83  C   -0.045439
    84  C   -0.064596
    85  N   -0.254719
    86  C   -0.049270
    87  C   -0.015700
    88  C   -0.090807
    89  C    0.046752
    90  C    0.114435
    91  C    0.062309
    92  C   -0.077245
    93  H    0.033095
    94  N   -0.423560
    95  C    0.164385
    96  C   -0.173841
    97  C   -0.007095
    98  C    0.152732
    99  C    0.099367
   100  C    0.016295
   101  O   -0.253425
   102  C    0.060653
   103  N   -0.350074
   104  C    0.037770
   105  C   -0.019902
   106  C   -0.034484
   107  C    0.088480
   108  C    0.073791
   109  C    0.034398
   110  C   -0.009191
   111  N   -0.323858
   112  C    0.078084
   113  C   -0.163357
   114  C    0.000859
   115  C    0.096295
   116  C    0.132115
   117  C    0.041379
   118  O   -0.191473
   119  C    0.001214
   120  C    0.210309
   121  O   -0.251236
   122  O   -0.305255
   123  C    0.153149
   124  H   -0.019740
   125  H   -0.015667
   126  H   -0.040094
   127  H   -0.001656
   128  H   -0.003907
   129  H    0.022006
   130  H    0.014390
   131  H    0.016054
   132  H    0.016937
   133  H    0.038117
   134  H    0.019797
   135  H    0.020238
   136  H    0.008801
   137  H    0.025768
   138  H    0.041677
   139  H    0.037872
   140  H    0.036337
   141  H    0.035774
   142  H    0.014329
   143  H    0.012142
   144  H    0.024883
   145  H    0.011485
   146  H    0.005507
   147  H    0.005438
   148  H    0.004470
   149  H    0.009951
   150  H    0.020352
   151  H    0.030445
   152  H    0.042995
   153  H    0.010327
   154  H    0.046304
   155  H    0.034645
   156  H    0.042617
   157  H    0.050358
   158  H    0.050940
 Sum of Mulliken charges =  -0.00000

 Dipole moment (field-independent basis, Debye):
    X=              1.2871    Y=              3.2094    Z=             -1.6980  Tot=              3.8523
 Quadrupole moment (field-independent basis, Debye-Ang):
   XX=           -475.0486   YY=           -462.4319   ZZ=           -541.8310
   XY=             12.1236   XZ=             21.2386   YZ=             -8.7194

 Normal termination of Gaussian 16 at Thu Sep  9 18:45:41 2021.
