 Gaussian 16, Revision A.03,
 Gaussian 16:  ES64L-G16RevA.03 25-Dec-2016

 -----------------------------------
 #p cam-b3lyp/Def2SVP td=(nstates=5)
 -----------------------------------

 --------------------------------
 TDDFT excited states in gaussian
 --------------------------------
 Symbolic Z-matrix:
 Charge =  0 Multiplicity = 1

                         Standard orientation:
 ---------------------------------------------------------------------
 Center     Atomic      Atomic             Coordinates (Angstroms)
 Number     Number       Type             X           Y           Z
 ---------------------------------------------------------------------
      1         12           0      -15.787169    0.584135   -0.528655
      2          6           0      -16.031898   -2.483385    1.299634
      3          6           0      -16.753421    2.188259    2.323749
      4          6           0      -16.018551    3.247507   -2.234389
      5          6           0      -15.954696   -1.313455   -3.447002
      6          7           0      -16.297431   -0.162227    1.492044
      7          6           0      -16.293833   -1.354731    2.079489
      8          6           0      -16.520452   -1.285561    3.619370
      9          6           0      -17.281500    0.113162    3.699230
     10          6           0      -16.718367    0.767753    2.450104
     11          6           0      -18.794784   -0.007271    3.551008
     12          6           0      -15.173800   -1.251441    4.417552
     13          6           0      -15.298887   -1.511916    5.921500
     14          1           0      -14.239816   -2.248028    6.595189
     15          7           0      -15.831419    2.473768    0.045956
     16          6           0      -16.238367    2.945050    1.249107
     17          6           0      -16.082528    4.414173    1.185276
     18          6           0      -15.731864    4.774059   -0.216727
     19          6           0      -15.874115    3.499029   -0.872045
     20          6           0      -16.215883    5.308414    2.379554
     21          6           0      -15.342204    6.064679   -0.865261
     22          8           0      -15.305741    6.203720   -2.135659
     23          6           0      -15.086634    7.202264    0.036752
     24          7           0      -16.182286    0.948799   -2.545717
     25          6           0      -16.167173    2.192347   -3.038002
     26          6           0      -16.194343    2.186257   -4.537723
     27          6           0      -15.985253    0.665517   -4.977475
     28          6           0      -15.954303    0.015606   -3.572154
     29          6           0      -17.473326    2.733766   -5.186143
     30          6           0      -14.818375    0.369630   -5.952803
     31          6           0      -13.496382    0.620256   -5.262427
     32          7           0      -15.784090   -1.528673   -1.025723
     33          6           0      -15.884703   -2.093969   -2.305173
     34          6           0      -15.948487   -3.556313   -2.127548
     35          6           0      -15.896912   -3.740487   -0.747235
     36          6           0      -15.833096   -2.472332   -0.102252
     37          6           0      -16.099383   -4.516247   -3.166870
     38          6           0      -15.905710   -4.712613    0.333853
     39          8           0      -15.853337   -5.941838    0.395152
     40          6           0      -16.116344   -3.933487    1.706596
     41          6           0      -15.095744   -4.450174    2.683694
     42          8           0      -13.878426   -4.237604    2.509581
     43          8           0      -15.720561   -4.901975    3.781885
     44          6           0      -14.763031   -5.401986    4.804274
     45          1           0      -17.273210    2.773214    3.085055
     46          1           0      -15.991211    4.136942   -2.867317
     47          1           0      -15.922678   -1.973397   -4.315854
     48          1           0      -17.152996   -2.077053    4.021678
     49          1           0      -16.997812    0.680800    4.585249
     50          1           0      -19.089538   -1.022395    3.285367
     51          1           0      -19.065649    0.688090    2.756277
     52          1           0      -19.301506    0.350421    4.447706
     53          1           0      -14.793382   -0.230187    4.437148
     54          1           0      -14.453749   -1.949675    3.989391
     55          1           0      -16.274188   -1.928971    6.174012
     56          1           0      -15.272788   -0.552188    6.437678
     57          1           0      -16.640007    4.778331    3.231420
     58          1           0      -16.961636    6.063103    2.130543
     59          1           0      -15.273896    5.793158    2.636490
     60          1           0      -15.981663    7.402290    0.626211
     61          1           0      -14.734037    8.015217   -0.596993
     62          1           0      -14.308188    6.921824    0.746909
     63          1           0      -15.385310    2.790607   -4.945955
     64          1           0      -16.862916    0.261430   -5.482546
     65          1           0      -17.295823    3.559675   -5.875397
     66          1           0      -18.155330    3.029089   -4.389308
     67          1           0      -18.069443    1.992726   -5.718047
     68          1           0      -14.863432    1.038185   -6.811843
     69          1           0      -14.820420   -0.653661   -6.328466
     70          1           0      -13.360207    1.694716   -5.380000
     71          1           0      -12.697339    0.068795   -5.759050
     72          1           0      -13.560180    0.414907   -4.193667
     73          1           0      -15.404180   -5.324208   -2.939139
     74          1           0      -15.892087   -4.078696   -4.143179
     75          1           0      -17.148632   -4.784082   -3.043594
     76          1           0      -17.135547   -4.140548    2.031360
     77          1           0      -15.046130   -6.429283    5.033948
     78          1           0      -14.775549   -4.679212    5.620268
     79          1           0      -13.733394   -5.541430    4.473001
     80         12           0       15.956411    0.701550    0.414935
     81          6           0       15.826826   -2.115769   -1.804299
     82          6           0       15.013118   -1.415762    2.917297
     83          6           0       15.623586    3.233970    2.297361
     84          6           0       15.764274    2.749945   -2.398046
     85          7           0       15.508385   -1.464393    0.430281
     86          6           0       15.552446   -2.443869   -0.460236
     87          6           0       15.366691   -3.864694    0.136687
     88          6           0       14.565620   -3.462843    1.469231
     89          6           0       15.082735   -2.036470    1.644523
     90          6           0       13.060000   -3.404153    1.271673
     91          6           0       16.734835   -4.554465    0.474944
     92          6           0       16.643758   -6.053235    0.770140
     93          1           0       17.741876   -6.915072    0.341364
     94          7           0       15.881204    0.829681    2.393946
     95          6           0       15.496439   -0.133229    3.257684
     96          6           0       15.599172    0.464199    4.598093
     97          6           0       15.918024    1.909660    4.444208
     98          6           0       15.796805    2.054843    3.007435
     99          6           0       15.479211   -0.341079    5.859257
    100          6           0       16.261108    2.986369    5.428697
    101          8           0       16.266983    4.224565    5.097537
    102          6           0       16.498707    2.556238    6.814347
    103          7           0       15.514516    2.696255    0.029912
    104          6           0       15.481847    3.601379    1.023690
    105          6           0       15.418099    5.008129    0.478363
    106          6           0       15.659733    4.869797   -1.096457
    107          6           0       15.735907    3.331139   -1.206585
    108          6           0       14.110897    5.759889    0.728311
    109          6           0       16.812092    5.712583   -1.708367
    110          6           0       18.144739    5.208549   -1.203011
    111          7           0       16.005419    0.412769   -1.725691
    112          6           0       15.883350    1.404777   -2.723231
    113          6           0       15.860403    0.710591   -4.027071
    114          6           0       15.948249   -0.649448   -3.693772
    115          6           0       16.000470   -0.793898   -2.281011
    116          6           0       15.720399    1.333940   -5.299051
    117          6           0       15.997969   -1.996340   -4.215403
    118          8           0       16.075144   -2.490202   -5.339625
    119          6           0       15.794091   -3.012748   -3.010520
    120          6           0       16.848932   -4.079525   -3.119194
    121          8           0       18.051326   -3.796447   -2.975217
    122          8           0       16.253610   -5.285529   -3.157992
    123          6           0       17.259362   -6.376827   -3.254603
    124          1           0       14.502561   -1.942326    3.724103
    125          1           0       15.614289    4.147806    2.895934
    126          1           0       15.805083    3.323500   -3.326511
    127          1           0       14.769479   -4.536839   -0.467734
    128          1           0       14.863333   -4.082515    2.311095
    129          1           0       12.784609   -3.527473    0.234810
    130          1           0       12.753871   -2.430474    1.631224
    131          1           0       12.566044   -4.133734    1.919786
    132          1           0       17.087269   -4.192151    1.449254
    133          1           0       17.451210   -4.382612   -0.304736
    134          1           0       15.680101   -6.476336    0.461443
    135          1           0       16.664234   -6.195444    1.853369
    136          1           0       15.080740   -1.343554    5.660048
    137          1           0       14.710323    0.139674    6.473702
    138          1           0       16.412185   -0.378121    6.425703
    139          1           0       15.614252    2.048348    7.191508
    140          1           0       16.817358    3.453568    7.348312
    141          1           0       17.310022    1.819772    6.817811
    142          1           0       16.202936    5.622914    0.901649
    143          1           0       14.776972    5.182798   -1.673178
    144          1           0       14.253352    6.716331    1.265888
    145          1           0       13.443346    5.110180    1.278561
    146          1           0       13.529958    5.985486   -0.164341
    147          1           0       16.731845    6.753844   -1.386669
    148          1           0       16.819833    5.710381   -2.793234
    149          1           0       18.245653    5.706650   -0.234096
    150          1           0       18.945559    5.497511   -1.880674
    151          1           0       18.112172    4.128782   -1.016758
    152          1           0       16.433301    0.858015   -5.959167
    153          1           0       15.889817    2.406881   -5.236802
    154          1           0       14.676469    1.095320   -5.519345
    155          1           0       14.786950   -3.422800   -3.094695
    156          1           0       17.003928   -6.969396   -4.138514
    157          1           0       17.233988   -6.893902   -2.276983
    158          1           0       18.282698   -6.097136   -3.475978
 ---------------------------------------------------------------------

 SCF Done:  E(RCAM-B3LYP) =  -4069.81178525     A.U. after   19 cycles

 Excitation energies and oscillator strengths:

 Excited State   1:      Singlet-A      1.6755 eV  739.97 nm  f=0.3629  <S**2>=0.000
     310 -> 316        0.17281
     312 -> 313        0.68306
     310 <- 316        0.10416
 This state for optimization and/or second-order correction.
 Total Energy, E(TD-HF/TD-DFT) =  -4069.75021025
 Copying the excited state density for this state as the 1-particle RhoCI density.

 Excited State   2:      Singlet-A      1.6799 eV  738.05 nm  f=0.4135  <S**2>=0.000
     309 -> 315        0.17481
     311 -> 314        0.68271
     309 <- 315        0.10469

 Excited State   3:      Singlet-A      2.1861 eV  567.16 nm  f=0.1013  <S**2>=0.000
     310 -> 313        0.64242
     312 -> 316       -0.27304

 Excited State   4:      Singlet-A      2.1926 eV  565.47 nm  f=0.0996  <S**2>=0.000
     309 -> 314        0.64063
     311 -> 315       -0.27829

 Excited State   5:      Singlet-A      3.0660 eV  404.38 nm  f=0.0000  <S**2>=0.000
     311 -> 313        0.70711

 The electronic state is 1-A.
 Alpha  occ. eigenvalues --  -46.87797 -46.87660 -19.26344 -19.26290 -19.19157
 Alpha  occ. eigenvalues --  -19.19025 -19.18813 -19.18716 -19.18171 -19.18049
 Alpha  occ. eigenvalues --  -14.42496 -14.42450 -14.41449 -14.41359 -14.39403
 Alpha  occ. eigenvalues --  -14.39352 -14.38599 -14.38587 -10.39087 -10.39084
 Alpha  occ. eigenvalues --  -10.35447 -10.35393 -10.34391 -10.34226 -10.31750
 Alpha  occ. eigenvalues --  -10.31687 -10.31406 -10.31307 -10.31021 -10.30909
 Alpha  occ. eigenvalues --  -10.30570 -10.30507 -10.30398 -10.30360 -10.30206
 Alpha  occ. eigenvalues --  -10.30142 -10.29920 -10.29895 -10.29631 -10.29437
 Alpha  occ. eigenvalues --  -10.29401 -10.29254 -10.28751 -10.28714 -10.28647
 Alpha  occ. eigenvalues --  -10.28543 -10.28404 -10.28365 -10.28135 -10.28118
 Alpha  occ. eigenvalues --  -10.28000 -10.27793 -10.27727 -10.27668 -10.27584
 Alpha  occ. eigenvalues --  -10.27520 -10.27499 -10.27483 -10.27481 -10.27467
 Alpha  occ. eigenvalues --  -10.27464 -10.27447 -10.27404 -10.27378 -10.27160
 Alpha  occ. eigenvalues --  -10.27047 -10.26708 -10.26688 -10.26417 -10.26408
 Alpha  occ. eigenvalues --  -10.26236 -10.26180 -10.26141 -10.26019 -10.26017
 Alpha  occ. eigenvalues --  -10.25935 -10.25851 -10.25844 -10.25433 -10.25401
 Alpha  occ. eigenvalues --  -10.24872 -10.24833 -10.24787 -10.24735 -10.24690
 Alpha  occ. eigenvalues --  -10.24684  -3.16539  -3.16410  -1.91421  -1.91292
 Alpha  occ. eigenvalues --   -1.91008  -1.90881  -1.90850  -1.90718  -1.16639
 Alpha  occ. eigenvalues --   -1.16638  -1.08656  -1.08629  -1.07215  -1.06968
 Alpha  occ. eigenvalues --   -1.06941  -1.06647  -1.04581  -1.04494  -1.03760
 Alpha  occ. eigenvalues --   -1.03663  -1.03234  -1.03039  -1.02411  -1.02111
 Alpha  occ. eigenvalues --   -0.91986  -0.91973  -0.89518  -0.89495  -0.89189
 Alpha  occ. eigenvalues --   -0.89147  -0.88285  -0.88222  -0.87870  -0.87793
 Alpha  occ. eigenvalues --   -0.87683  -0.87673  -0.87273  -0.87120  -0.84997
 Alpha  occ. eigenvalues --   -0.84983  -0.83935  -0.83878  -0.82966  -0.82933
 Alpha  occ. eigenvalues --   -0.82651  -0.82650  -0.81594  -0.81588  -0.80597
 Alpha  occ. eigenvalues --   -0.80441  -0.78797  -0.78635  -0.77219  -0.77143
 Alpha  occ. eigenvalues --   -0.76936  -0.76896  -0.75925  -0.75836  -0.74897
 Alpha  occ. eigenvalues --   -0.74804  -0.72774  -0.72699  -0.71672  -0.71580
 Alpha  occ. eigenvalues --   -0.69905  -0.69760  -0.68874  -0.68825  -0.67641
 Alpha  occ. eigenvalues --   -0.67601  -0.67221  -0.67197  -0.65288  -0.65269
 Alpha  occ. eigenvalues --   -0.64854  -0.64769  -0.64652  -0.64622  -0.64269
 Alpha  occ. eigenvalues --   -0.64205  -0.62300  -0.62276  -0.60441  -0.60340
 Alpha  occ. eigenvalues --   -0.59805  -0.59793  -0.58992  -0.58988  -0.58504
 Alpha  occ. eigenvalues --   -0.58425  -0.57587  -0.57552  -0.57309  -0.57237
 Alpha  occ. eigenvalues --   -0.56310  -0.56203  -0.55982  -0.55883  -0.55520
 Alpha  occ. eigenvalues --   -0.55451  -0.55340  -0.55248  -0.54525  -0.54487
 Alpha  occ. eigenvalues --   -0.53909  -0.53897  -0.53299  -0.53227  -0.53223
 Alpha  occ. eigenvalues --   -0.53140  -0.52916  -0.52900  -0.52756  -0.52667
 Alpha  occ. eigenvalues --   -0.52436  -0.52403  -0.51915  -0.51885  -0.51656
 Alpha  occ. eigenvalues --   -0.51618  -0.51200  -0.51197  -0.50571  -0.50476
 Alpha  occ. eigenvalues --   -0.50030  -0.49978  -0.49918  -0.49869  -0.49515
 Alpha  occ. eigenvalues --   -0.49487  -0.49215  -0.49200  -0.49101  -0.49097
 Alpha  occ. eigenvalues --   -0.48594  -0.48556  -0.48460  -0.48446  -0.48377
 Alpha  occ. eigenvalues --   -0.48339  -0.47695  -0.47593  -0.47297  -0.47118
 Alpha  occ. eigenvalues --   -0.46797  -0.46708  -0.46557  -0.46551  -0.46359
 Alpha  occ. eigenvalues --   -0.46270  -0.46163  -0.46085  -0.45824  -0.45820
 Alpha  occ. eigenvalues --   -0.45210  -0.45200  -0.44579  -0.44512  -0.44507
 Alpha  occ. eigenvalues --   -0.44474  -0.44144  -0.44125  -0.44089  -0.44078
 Alpha  occ. eigenvalues --   -0.44020  -0.43938  -0.43551  -0.43497  -0.43386
 Alpha  occ. eigenvalues --   -0.43384  -0.43027  -0.42928  -0.42900  -0.42701
 Alpha  occ. eigenvalues --   -0.42655  -0.42555  -0.42009  -0.41964  -0.41705
 Alpha  occ. eigenvalues --   -0.41668  -0.41535  -0.41457  -0.41141  -0.40988
 Alpha  occ. eigenvalues --   -0.40870  -0.40822  -0.40721  -0.40697  -0.40570
 Alpha  occ. eigenvalues --   -0.40494  -0.40236  -0.40223  -0.39439  -0.39428
 Alpha  occ. eigenvalues --   -0.38468  -0.38351  -0.37750  -0.37650  -0.37319
 Alpha  occ. eigenvalues --   -0.37266  -0.37265  -0.37197  -0.36768  -0.36716
 Alpha  occ. eigenvalues --   -0.36216  -0.36194  -0.34286  -0.34253  -0.33859
 Alpha  occ. eigenvalues --   -0.33774  -0.33187  -0.33175  -0.31343  -0.31275
 Alpha  occ. eigenvalues --   -0.31036  -0.30972  -0.30031  -0.29954  -0.29449
 Alpha  occ. eigenvalues --   -0.29327  -0.29322  -0.29211  -0.24081  -0.24036
 Alpha  occ. eigenvalues --   -0.21127  -0.21117
 Alpha virt. eigenvalues --   -0.08792  -0.08774  -0.01749  -0.01684  -0.00058
 Alpha virt. eigenvalues --   -0.00028   0.02200   0.02208   0.03121   0.03226
 Alpha virt. eigenvalues --    0.04717   0.04732   0.05094   0.05169   0.06174

 Mulliken charges:
               1
     1  Mg   0.838711
     2  C   -0.002968
     3  C   -0.094131
     4  C   -0.045881
     5  C   -0.063934
     6  N   -0.256782
     7  C   -0.052484
     8  C   -0.014020
     9  C   -0.086980
    10  C    0.046319
    11  C    0.104807
    12  C    0.053466
    13  C   -0.071782
    14  H    0.036065
    15  N   -0.433147
    16  C    0.168425
    17  C   -0.177143
    18  C   -0.003990
    19  C    0.148730
    20  C    0.110174
    21  C    0.012295
    22  O   -0.249596
    23  C    0.062475
    24  N   -0.341119
    25  C    0.041254
    26  C   -0.028191
    27  C   -0.023945
    28  C    0.074807
    29  C    0.076163
    30  C    0.035115
    31  C   -0.004503
    32  N   -0.310452
    33  C    0.080402
    34  C   -0.169721
    35  C    0.008350
    36  C    0.082975
    37  C    0.127313
    38  C    0.046109
    39  O   -0.188481
    40  C   -0.005341
    41  C    0.212875
    42  O   -0.257125
    43  O   -0.304788
    44  C    0.157708
    45  H   -0.017600
    46  H   -0.016812
    47  H   -0.041480
    48  H    0.000925
    49  H   -0.004040
    50  H    0.025470
    51  H    0.016462
    52  H    0.016656
    53  H    0.011213
    54  H    0.044105
    55  H    0.017871
    56  H    0.017957
    57  H    0.005869
    58  H    0.026842
    59  H    0.039566
    60  H    0.037348
    61  H    0.035679
    62  H    0.031504
    63  H    0.016577
    64  H    0.009467
    65  H    0.023238
    66  H    0.012543
    67  H    0.004763
    68  H    0.006395
    69  H    0.004735
    70  H    0.008796
    71  H    0.018163
    72  H    0.028957
    73  H    0.047549
    74  H    0.009129
    75  H    0.046006
    76  H    0.035145
    77  H    0.042920
    78  H    0.046398
    79  H    0.053651
    80  Mg   0.837810
    81  C   -0.016827
    82  C   -0.087751
    83  C   -0.045506
    84  C   -0.064874
    85  N   -0.254559
    86  C   -0.049797
    87  C   -0.015120
    88  C   -0.090504
    89  C    0.045742
    90  C    0.114364
    91  C    0.062510
    92  C   -0.077919
    93  H    0.034913
    94  N   -0.423486
    95  C    0.162908
    96  C   -0.174613
    97  C   -0.007816
    98  C    0.152113
    99  C    0.099356
   100  C    0.015563
   101  O   -0.253206
   102  C    0.061203
   103  N   -0.350057
   104  C    0.037541
   105  C   -0.019853
   106  C   -0.034807
   107  C    0.088900
   108  C    0.073664
   109  C    0.034742
   110  C   -0.007671
   111  N   -0.324094
   112  C    0.078446
   113  C   -0.163138
   114  C    0.002267
   115  C    0.096193
   116  C    0.131493
   117  C    0.042384
   118  O   -0.187840
   119  C    0.000937
   120  C    0.211256
   121  O   -0.251036
   122  O   -0.305602
   123  C    0.152021
   124  H   -0.019613
   125  H   -0.015597
   126  H   -0.040464
   127  H   -0.000590
   128  H   -0.004297
   129  H    0.022506
   130  H    0.014425
   131  H    0.016367
   132  H    0.013905
   133  H    0.037666
   134  H    0.020846
   135  H    0.019608
   136  H    0.008805
   137  H    0.026151
   138  H    0.039794
   139  H    0.038261
   140  H    0.036370
   141  H    0.033907
   142  H    0.014382
   143  H    0.012427
   144  H    0.025108
   145  H    0.011655
   146  H    0.005680
   147  H    0.006240
   148  H    0.003650
   149  H    0.010920
   150  H    0.017923
   151  H    0.030118
   152  H    0.046005
   153  H    0.008493
   154  H    0.046978
   155  H    0.035089
   156  H    0.043947
   157  H    0.049518
   158  H    0.053565
 Sum of Mulliken charges =  -0.00000

 Dipole moment (field-independent basis, Debye):
    X=             -4.1950    Y=              2.0405    Z=              6.1981  Tot=              7.7575
 Quadrupole moment (field-independent basis, Debye-Ang):
   XX=           -516.8777   YY=           -518.1456   ZZ=           -480.8250
   XY=            -66.9601   XZ=             19.7737   YZ=            -17.6352

 Normal termination of Gaussian 16 at Sun Sep 12 21:37:24 2021.
