 Gaussian 16, Revision A.03,
 Gaussian 16:  ES64L-G16RevA.03 25-Dec-2016

 -----------------------------------
 #p cam-b3lyp/Def2SVP td=(nstates=5)
 -----------------------------------

 --------------------------------
 TDDFT excited states in gaussian
 --------------------------------
 Symbolic Z-matrix:
 Charge =  0 Multiplicity = 1

                         Standard orientation:
 ---------------------------------------------------------------------
 Center     Atomic      Atomic             Coordinates (Angstroms)
 Number     Number       Type             X           Y           Z
 ---------------------------------------------------------------------
      1         12           0       -4.092903    0.895086   -0.030137
      2          6           0       -4.602072   -2.187969    1.715638
      3          6           0       -4.803711    2.497870    2.897131
      4          6           0       -4.095530    3.621494   -1.649803
      5          6           0       -4.541683   -0.880475   -2.995207
      6          7           0       -4.619041    0.140817    1.983542
      7          6           0       -4.722408   -1.063945    2.535841
      8          6           0       -4.895725   -1.021249    4.083585
      9          6           0       -5.504523    0.445176    4.228355
     10          6           0       -4.912929    1.077996    2.981166
     11          6           0       -7.025793    0.486176    4.125595
     12          6           0       -3.530187   -1.151745    4.838575
     13          6           0       -3.637896   -1.446080    6.337614
     14          1           0       -2.641987   -2.308671    6.955232
     15          7           0       -3.923649    2.759794    0.599996
     16          6           0       -4.244210    3.231647    1.828768
     17          6           0       -3.938341    4.678171    1.802448
     18          6           0       -3.593071    5.044813    0.400857
     19          6           0       -3.886159    3.812930   -0.286124
     20          6           0       -3.943178    5.542596    3.025761
     21          6           0       -3.090317    6.308546   -0.222319
     22          8           0       -3.076552    6.483794   -1.488681
     23          6           0       -2.691694    7.384190    0.703495
     24          7           0       -4.506442    1.363087   -2.022020
     25          6           0       -4.376397    2.613612   -2.478376
     26          6           0       -4.447657    2.658497   -3.975990
     27          6           0       -4.410746    1.139207   -4.466042
     28          6           0       -4.406702    0.444797   -3.081828
     29          6           0       -5.681073    3.355441   -4.566723
     30          6           0       -3.309830    0.756088   -5.486641
     31          6           0       -1.949425    0.846834   -4.832302
     32          7           0       -4.324044   -1.189738   -0.587926
     33          6           0       -4.520071   -1.700292   -1.879274
     34          6           0       -4.730410   -3.153217   -1.742040
     35          6           0       -4.658149   -3.385937   -0.370010
     36          6           0       -4.444052   -2.152472    0.308975
     37          6           0       -5.010489   -4.058630   -2.803274
     38          6           0       -4.736563   -4.386176    0.682239
     39          8           0       -4.810560   -5.615583    0.706251
     40          6           0       -4.825008   -3.633956    2.083014
     41          6           0       -3.835701   -4.284177    3.011342
     42          8           0       -2.608457   -4.192728    2.804279
     43          8           0       -4.471916   -4.704189    4.115589
     44          6           0       -3.542257   -5.332786    5.091681
     45          1           0       -5.237480    3.108543    3.691400
     46          1           0       -3.994250    4.523228   -2.257302
     47          1           0       -4.603759   -1.511972   -3.883358
     48          1           0       -5.595190   -1.755835    4.483031
     49          1           0       -5.137689    0.951819    5.120806
     50          1           0       -7.432127   -0.484109    3.840359
     51          1           0       -7.245863    1.230900    3.360450
     52          1           0       -7.466270    0.865222    5.048135
     53          1           0       -3.045207   -0.176297    4.875411
     54          1           0       -2.899420   -1.906370    4.367406
     55          1           0       -4.643525   -1.768280    6.609285
     56          1           0       -3.497120   -0.511218    6.880215
     57          1           0       -4.395178    5.031982    3.875180
     58          1           0       -4.613318    6.377731    2.822855
     59          1           0       -2.948811    5.919172    3.266092
     60          1           0       -3.543541    7.656375    1.327050
     61          1           0       -2.275038    8.176393    0.082479
     62          1           0       -1.926315    7.002361    1.379773
     63          1           0       -3.592371    3.189032   -4.392456
     64          1           0       -5.339991    0.844152   -4.954017
     65          1           0       -5.438753    4.180353   -5.237175
     66          1           0       -6.305198    3.693754   -3.740102
     67          1           0       -6.366245    2.697245   -5.100328
     68          1           0       -3.310073    1.452953   -6.324092
     69          1           0       -3.429217   -0.248954   -5.891472
     70          1           0       -1.705715    1.904754   -4.923090
     71          1           0       -1.226854    0.232181   -5.370172
     72          1           0       -2.003126    0.614956   -3.768425
     73          1           0       -4.396762   -4.940832   -2.621539
     74          1           0       -4.787290   -3.613663   -3.772702
     75          1           0       -6.077872   -4.220712   -2.654019
     76          1           0       -5.850342   -3.745184    2.434357
     77          1           0       -3.923866   -6.332273    5.300568
     78          1           0       -3.455799   -4.639138    5.928211
     79          1           0       -2.542779   -5.566904    4.723481
     80         12           0        4.849309   -0.002366   -0.047824
     81          6           0        2.282842   -1.845480   -1.749364
     82          6           0        3.177059    2.840189   -0.918451
     83          6           0        7.316325    1.665620    1.047196
     84          6           0        6.861914   -2.835815   -0.306131
     85          7           0        2.981841    0.325679   -1.186772
     86          6           0        2.059273   -0.452947   -1.731700
     87          6           0        0.789985    0.296946   -2.217617
     88          6           0        1.435551    1.752557   -2.425738
     89          6           0        2.584916    1.655599   -1.424627
     90          6           0        2.025036    1.956939   -3.811407
     91          6           0       -0.342561    0.320769   -1.131897
     92          6           0       -1.715160    0.762885   -1.644003
     93          1           0       -2.905283    0.137415   -1.074020
     94          7           0        4.975498    1.905918    0.482338
     95          6           0        4.202152    2.923616    0.049306
     96          6           0        4.710865    4.129514    0.721014
     97          6           0        5.951593    3.767424    1.458726
     98          6           0        6.144952    2.407235    0.997650
     99          6           0        3.987212    5.444361    0.690670
    100          6           0        6.827186    4.524856    2.410472
    101          8           0        7.986578    4.094197    2.746904
    102          6           0        6.326661    5.830693    2.864086
    103          7           0        6.875188   -0.433908    0.130851
    104          6           0        7.723137    0.447498    0.689435
    105          6           0        9.066993   -0.185429    0.961181
    106          6           0        8.868253   -1.748917    0.689915
    107          6           0        7.403341   -1.736679    0.200755
    108          6           0       10.229942    0.333704    0.115928
    109          6           0        9.255156   -2.717648    1.840793
    110          6           0        8.307175   -2.540686    3.005002
    111          7           0        4.583796   -2.044435   -0.701682
    112          6           0        5.565002   -3.058777   -0.750749
    113          6           0        4.937194   -4.242048   -1.373776
    114          6           0        3.630674   -3.823248   -1.667247
    115          6           0        3.462635   -2.467873   -1.274547
    116          6           0        5.582756   -5.481989   -1.641902
    117          6           0        2.358683   -4.216259   -2.229640
    118          8           0        1.880985   -5.271632   -2.644041
    119          6           0        1.467841   -2.914230   -2.423273
    120          6           0        0.098073   -3.202523   -1.872680
    121          8           0       -0.063956   -3.408611   -0.657000
    122          8           0       -0.818923   -2.973583   -2.830329
    123          6           0       -2.194382   -3.235075   -2.328777
    124          1           0        2.856909    3.797420   -1.330897
    125          1           0        8.168193    2.160664    1.519146
    126          1           0        7.393426   -3.789467   -0.333004
    127          1           0        0.378766   -0.064557   -3.152495
    128          1           0        0.742041    2.537423   -2.135236
    129          1           0        2.017728    1.045665   -4.390769
    130          1           0        3.040322    2.295861   -3.652109
    131          1           0        1.510751    2.775648   -4.322843
    132          1           0       -0.138329    1.130090   -0.419139
    133          1           0       -0.427247   -0.633150   -0.648681
    134          1           0       -1.766856    0.760100   -2.739572
    135          1           0       -1.866493    1.810127   -1.371211
    136          1           0        3.192598    5.448815   -0.065622
    137          1           0        4.702553    6.194973    0.337489
    138          1           0        3.616752    5.744038    1.673326
    139          1           0        6.160635    6.472944    2.002460
    140          1           0        7.047750    6.178207    3.606473
    141          1           0        5.350838    5.684982    3.340684
    142          1           0        9.360044   -0.042429    1.994033
    143          1           0        9.479165   -2.096547   -0.156125
    144          1           0       11.068610    0.726106    0.721520
    145          1           0        9.852765    1.097327   -0.551258
    146          1           0       10.655572   -0.389425   -0.577703
    147          1           0       10.254138   -2.481044    2.215250
    148          1           0        9.261459   -3.760979    1.543422
    149          1           0        8.727433   -1.682020    3.537128
    150          1           0        8.301099   -3.429577    3.632609
    151          1           0        7.306886   -2.256283    2.658317
    152          1           0        4.892204   -6.262039   -1.350079
    153          1           0        6.525702   -5.563511   -1.105271
    154          1           0        5.731092   -5.395187   -2.721594
    155          1           0        1.441425   -2.691112   -3.490562
    156          1           0       -2.649196   -3.962676   -3.008058
    157          1           0       -2.679013   -2.243393   -2.254971
    158          1           0       -2.292491   -3.744109   -1.377094
 ---------------------------------------------------------------------

 SCF Done:  E(RCAM-B3LYP) =  -4069.73256743     A.U. after   19 cycles

 Excitation energies and oscillator strengths:

 Excited State   1:      Singlet-A      1.6044 eV  772.78 nm  f=0.0618  <S**2>=0.000
     309 -> 315        0.14487
     311 -> 313        0.60793
     312 -> 314       -0.32284
 This state for optimization and/or second-order correction.
 Total Energy, E(TD-HF/TD-DFT) =  -4069.67360691
 Copying the excited state density for this state as the 1-particle RhoCI density.

 Excited State   2:      Singlet-A      1.6929 eV  732.37 nm  f=0.6187  <S**2>=0.000
     310 -> 316        0.15646
     311 -> 313        0.31882
     312 -> 314        0.60529

 Excited State   3:      Singlet-A      2.1181 eV  585.36 nm  f=0.0797  <S**2>=0.000
     309 -> 313        0.64123
     311 -> 315       -0.25732

 Excited State   4:      Singlet-A      2.1800 eV  568.73 nm  f=0.1088  <S**2>=0.000
     310 -> 314        0.63084
     312 -> 313        0.12742
     312 -> 316       -0.26579

 Excited State   5:      Singlet-A      2.2126 eV  560.37 nm  f=0.0072  <S**2>=0.000
     310 -> 314       -0.11137
     312 -> 313        0.68917

 The electronic state is 1-A.
 Alpha  occ. eigenvalues --  -46.87624 -46.87344 -19.26095 -19.24990 -19.19270
 Alpha  occ. eigenvalues --  -19.18767 -19.18580 -19.18482 -19.18056 -19.17578
 Alpha  occ. eigenvalues --  -14.42714 -14.42197 -14.41377 -14.41043 -14.39540
 Alpha  occ. eigenvalues --  -14.39432 -14.39042 -14.38262 -10.38878 -10.38005
 Alpha  occ. eigenvalues --  -10.35903 -10.35169 -10.34748 -10.33731 -10.31708
 Alpha  occ. eigenvalues --  -10.31455 -10.31118 -10.30962 -10.30945 -10.30926
 Alpha  occ. eigenvalues --  -10.30715 -10.30615 -10.30299 -10.30106 -10.30078
 Alpha  occ. eigenvalues --  -10.30013 -10.29875 -10.29817 -10.29581 -10.29568
 Alpha  occ. eigenvalues --  -10.29150 -10.29085 -10.28863 -10.28848 -10.28492
 Alpha  occ. eigenvalues --  -10.28473 -10.28287 -10.28241 -10.28050 -10.28018
 Alpha  occ. eigenvalues --  -10.27999 -10.27986 -10.27955 -10.27891 -10.27851
 Alpha  occ. eigenvalues --  -10.27830 -10.27702 -10.27666 -10.27356 -10.27324
 Alpha  occ. eigenvalues --  -10.27283 -10.27248 -10.27161 -10.27135 -10.27120
 Alpha  occ. eigenvalues --  -10.26864 -10.26709 -10.26686 -10.26470 -10.26438
 Alpha  occ. eigenvalues --  -10.26425 -10.26419 -10.26404 -10.26269 -10.25929
 Alpha  occ. eigenvalues --  -10.25801 -10.25740 -10.25632 -10.25536 -10.25502
 Alpha  occ. eigenvalues --  -10.25188 -10.25122 -10.25005 -10.24525 -10.24517
 Alpha  occ. eigenvalues --  -10.24375  -3.16579  -3.16094  -1.91453  -1.91039
 Alpha  occ. eigenvalues --   -1.90976  -1.90923  -1.90565  -1.90401  -1.16443
 Alpha  occ. eigenvalues --   -1.15392  -1.08969  -1.08135  -1.07679  -1.06741
 Alpha  occ. eigenvalues --   -1.06410  -1.05827  -1.04951  -1.04178  -1.04075
 Alpha  occ. eigenvalues --   -1.03833  -1.03352  -1.02901  -1.02725  -1.01788
 Alpha  occ. eigenvalues --   -0.92430  -0.91570  -0.90050  -0.89424  -0.89196
 Alpha  occ. eigenvalues --   -0.88974  -0.88822  -0.88714  -0.88033  -0.87948
 Alpha  occ. eigenvalues --   -0.87681  -0.87494  -0.87412  -0.86861  -0.85248
 Alpha  occ. eigenvalues --   -0.84965  -0.84458  -0.83580  -0.83425  -0.82920
 Alpha  occ. eigenvalues --   -0.82702  -0.82384  -0.81867  -0.81041  -0.80822
 Alpha  occ. eigenvalues --   -0.79920  -0.79264  -0.78344  -0.77870  -0.77349
 Alpha  occ. eigenvalues --   -0.76983  -0.76574  -0.76163  -0.75594  -0.75192
 Alpha  occ. eigenvalues --   -0.74472  -0.73326  -0.72413  -0.72052  -0.71315
 Alpha  occ. eigenvalues --   -0.71089  -0.69511  -0.69237  -0.68843  -0.68104
 Alpha  occ. eigenvalues --   -0.67504  -0.67458  -0.67204  -0.65769  -0.65315
 Alpha  occ. eigenvalues --   -0.65174  -0.64851  -0.64608  -0.64445  -0.64252
 Alpha  occ. eigenvalues --   -0.63895  -0.62421  -0.61661  -0.60852  -0.60143
 Alpha  occ. eigenvalues --   -0.60064  -0.59551  -0.59381  -0.58901  -0.58658
 Alpha  occ. eigenvalues --   -0.58052  -0.57919  -0.57537  -0.57047  -0.56901
 Alpha  occ. eigenvalues --   -0.56821  -0.56253  -0.56076  -0.55885  -0.55820
 Alpha  occ. eigenvalues --   -0.55408  -0.55260  -0.54992  -0.54858  -0.54378
 Alpha  occ. eigenvalues --   -0.54152  -0.54079  -0.53692  -0.53554  -0.53503
 Alpha  occ. eigenvalues --   -0.53345  -0.53149  -0.52994  -0.52908  -0.52626
 Alpha  occ. eigenvalues --   -0.52557  -0.52220  -0.51962  -0.51788  -0.51576
 Alpha  occ. eigenvalues --   -0.51516  -0.51297  -0.51019  -0.50937  -0.50856
 Alpha  occ. eigenvalues --   -0.50337  -0.50266  -0.50009  -0.49802  -0.49641
 Alpha  occ. eigenvalues --   -0.49577  -0.49534  -0.49260  -0.49069  -0.49044
 Alpha  occ. eigenvalues --   -0.48904  -0.48766  -0.48747  -0.48365  -0.48176
 Alpha  occ. eigenvalues --   -0.48078  -0.47991  -0.47759  -0.47642  -0.47415
 Alpha  occ. eigenvalues --   -0.47018  -0.46908  -0.46706  -0.46587  -0.46437
 Alpha  occ. eigenvalues --   -0.46342  -0.46090  -0.45957  -0.45635  -0.45547
 Alpha  occ. eigenvalues --   -0.45346  -0.45060  -0.44944  -0.44849  -0.44719
 Alpha  occ. eigenvalues --   -0.44449  -0.44295  -0.43984  -0.43976  -0.43880
 Alpha  occ. eigenvalues --   -0.43789  -0.43771  -0.43646  -0.43366  -0.43319
 Alpha  occ. eigenvalues --   -0.43226  -0.43000  -0.42894  -0.42636  -0.42592
 Alpha  occ. eigenvalues --   -0.42461  -0.42331  -0.42195  -0.41954  -0.41765
 Alpha  occ. eigenvalues --   -0.41650  -0.41552  -0.41452  -0.41265  -0.41159
 Alpha  occ. eigenvalues --   -0.41130  -0.40971  -0.40655  -0.40388  -0.40316
 Alpha  occ. eigenvalues --   -0.40288  -0.40009  -0.39829  -0.39217  -0.38928
 Alpha  occ. eigenvalues --   -0.38622  -0.37976  -0.37917  -0.37677  -0.37200
 Alpha  occ. eigenvalues --   -0.36999  -0.36977  -0.36611  -0.36391  -0.36191
 Alpha  occ. eigenvalues --   -0.36041  -0.35299  -0.34180  -0.33890  -0.33567
 Alpha  occ. eigenvalues --   -0.33204  -0.33041  -0.32660  -0.31775  -0.31173
 Alpha  occ. eigenvalues --   -0.31038  -0.30620  -0.30328  -0.29791  -0.29716
 Alpha  occ. eigenvalues --   -0.29454  -0.29030  -0.28854  -0.24274  -0.23695
 Alpha  occ. eigenvalues --   -0.21401  -0.20807
 Alpha virt. eigenvalues --   -0.09198  -0.08469  -0.02288  -0.01381  -0.00498
 Alpha virt. eigenvalues --    0.00264   0.01406   0.02592   0.03511   0.04360
 Alpha virt. eigenvalues --    0.04813   0.05112   0.05325   0.05949   0.06352

 Mulliken charges:
               1
     1  Mg   0.574952
     2  C    0.006538
     3  C   -0.093989
     4  C   -0.050936
     5  C   -0.035450
     6  N   -0.244399
     7  C   -0.055733
     8  C   -0.014813
     9  C   -0.086815
    10  C    0.046804
    11  C    0.104986
    12  C    0.053156
    13  C   -0.072325
    14  H    0.038567
    15  N   -0.418926
    16  C    0.171729
    17  C   -0.176965
    18  C   -0.007448
    19  C    0.151282
    20  C    0.109994
    21  C    0.010003
    22  O   -0.250449
    23  C    0.062938
    24  N   -0.299645
    25  C    0.041778
    26  C   -0.025527
    27  C   -0.018477
    28  C    0.045564
    29  C    0.077122
    30  C    0.051663
    31  C   -0.038358
    32  N   -0.299737
    33  C    0.042250
    34  C   -0.272277
    35  C    0.027099
    36  C    0.093863
    37  C    0.145954
    38  C    0.044613
    39  O   -0.178761
    40  C   -0.011843
    41  C    0.210857
    42  O   -0.244932
    43  O   -0.306616
    44  C    0.156967
    45  H   -0.017477
    46  H   -0.018744
    47  H   -0.045314
    48  H    0.001514
    49  H   -0.003551
    50  H    0.026058
    51  H    0.016093
    52  H    0.017264
    53  H    0.011133
    54  H    0.048636
    55  H    0.017421
    56  H    0.017357
    57  H    0.007451
    58  H    0.027784
    59  H    0.039744
    60  H    0.038802
    61  H    0.035283
    62  H    0.030274
    63  H    0.012715
    64  H    0.009677
    65  H    0.023183
    66  H    0.014022
    67  H    0.005748
    68  H    0.005803
    69  H    0.006018
    70  H    0.006253
    71  H    0.023700
    72  H    0.130635
    73  H    0.051620
    74  H    0.014249
    75  H    0.047389
    76  H    0.035909
    77  H    0.042768
    78  H    0.045479
    79  H    0.057358
    80  Mg   0.837733
    81  C   -0.014042
    82  C   -0.088378
    83  C   -0.046295
    84  C   -0.065889
    85  N   -0.254493
    86  C   -0.045121
    87  C   -0.017661
    88  C   -0.094618
    89  C    0.046098
    90  C    0.114806
    91  C    0.098860
    92  C   -0.001314
    93  H    0.169409
    94  N   -0.423250
    95  C    0.161914
    96  C   -0.175259
    97  C   -0.008859
    98  C    0.151916
    99  C    0.099194
   100  C    0.014827
   101  O   -0.254099
   102  C    0.061687
   103  N   -0.350292
   104  C    0.037256
   105  C   -0.019551
   106  C   -0.034816
   107  C    0.089422
   108  C    0.073974
   109  C    0.034909
   110  C   -0.007578
   111  N   -0.324414
   112  C    0.079268
   113  C   -0.163089
   114  C    0.003076
   115  C    0.096375
   116  C    0.131227
   117  C    0.043803
   118  O   -0.185839
   119  C    0.006324
   120  C    0.212965
   121  O   -0.242596
   122  O   -0.311863
   123  C    0.196150
   124  H   -0.018732
   125  H   -0.016615
   126  H   -0.041002
   127  H   -0.005979
   128  H    0.000945
   129  H    0.021004
   130  H    0.013739
   131  H    0.017438
   132  H    0.012596
   133  H    0.048555
   134  H   -0.155068
   135  H    0.064112
   136  H    0.009729
   137  H    0.025576
   138  H    0.036743
   139  H    0.038038
   140  H    0.035321
   141  H    0.032462
   142  H    0.013711
   143  H    0.011955
   144  H    0.024355
   145  H    0.011493
   146  H    0.005111
   147  H    0.005535
   148  H    0.003527
   149  H    0.010335
   150  H    0.017503
   151  H    0.030869
   152  H    0.047188
   153  H    0.007795
   154  H    0.046214
   155  H    0.031102
   156  H    0.017665
   157  H    0.066862
   158  H    0.051529
 Sum of Mulliken charges =  -0.00000

 Dipole moment (field-independent basis, Debye):
    X=             -2.8802    Y=              6.9213    Z=              1.8109  Tot=              7.7123
 Quadrupole moment (field-independent basis, Debye-Ang):
   XX=           -491.1854   YY=           -540.4458   ZZ=           -472.3237
   XY=            -29.7203   XZ=            -18.2887   YZ=              1.8826

 Normal termination of Gaussian 16 at Thu Sep  9 21:49:14 2021.
