 Gaussian 16, Revision A.03,
 Gaussian 16:  ES64L-G16RevA.03 25-Dec-2016

 -----------------------------------
 #p cam-b3lyp/Def2SVP td=(nstates=5)
 -----------------------------------

 --------------------------------
 TDDFT excited states in gaussian
 --------------------------------
 Symbolic Z-matrix:
 Charge =  0 Multiplicity = 1

                         Standard orientation:
 ---------------------------------------------------------------------
 Center     Atomic      Atomic             Coordinates (Angstroms)
 Number     Number       Type             X           Y           Z
 ---------------------------------------------------------------------
      1         12           0       -4.655188   -0.087682    0.264775
      2          6           0       -4.279218    3.239479    1.530026
      3          6           0       -5.585099    1.307129   -2.707233
      4          6           0       -5.429517   -2.996308   -0.733687
      5          6           0       -4.804755   -1.170957    3.573824
      6          7           0       -4.865114    2.018585   -0.383465
      7          6           0       -4.632857    3.200258    0.179454
      8          6           0       -4.726973    4.390562   -0.821392
      9          6           0       -5.675294    3.724400   -1.916340
     10          6           0       -5.329992    2.264517   -1.680899
     11          6           0       -7.161488    3.928291   -1.640372
     12          6           0       -3.333409    4.770937   -1.425564
     13          6           0       -3.282234    6.117587   -2.153073
     14          1           0       -2.069778    6.916988   -2.062209
     15          7           0       -4.925024   -0.784973   -1.563837
     16          6           0       -5.286419   -0.071703   -2.657421
     17          6           0       -5.355008   -1.041134   -3.771952
     18          6           0       -5.189415   -2.405778   -3.198872
     19          6           0       -5.201066   -2.115121   -1.787929
     20          6           0       -5.510003   -0.636711   -5.205886
     21          6           0       -5.054302   -3.758462   -3.823469
     22          8           0       -5.153764   -4.835444   -3.141712
     23          6           0       -4.888488   -3.792277   -5.287847
     24          7           0       -5.280491   -1.811738    1.261902
     25          6           0       -5.493229   -2.953641    0.598742
     26          6           0       -5.654740   -4.109978    1.540409
     27          6           0       -5.264659   -3.559359    2.987617
     28          6           0       -5.011376   -2.077483    2.615916
     29          6           0       -7.053744   -4.739219    1.593822
     30          6           0       -4.159984   -4.325893    3.757381
     31          6           0       -2.832337   -4.157055    3.053149
     32          7           0       -4.386030    0.812396    2.221420
     33          6           0       -4.517619    0.179519    3.465939
     34          6           0       -4.349066    1.218235    4.498764
     35          6           0       -4.146304    2.393751    3.778420
     36          6           0       -4.211830    2.111986    2.383929
     37          6           0       -4.450358    1.020270    5.904105
     38          6           0       -3.914055    3.826531    3.862437
     39          8           0       -3.675937    4.614120    4.779223
     40          6           0       -4.112075    4.452162    2.411506
     41          6           0       -2.942377    5.359779    2.144395
     42          8           0       -1.790417    4.897551    2.015172
     43          8           0       -3.391944    6.588999    1.848676
     44          6           0       -2.282725    7.531864    1.544058
     45          1           0       -6.114338    1.626430   -3.607174
     46          1           0       -5.590793   -4.033773   -1.033846
     47          1           0       -4.754637   -1.448923    4.628184
     48          1           0       -5.197077    5.287564   -0.417889
     49          1           0       -5.399313    4.020654   -2.928166
     50          1           0       -7.326370    4.388006   -0.666002
     51          1           0       -7.602542    2.931775   -1.670683
     52          1           0       -7.632148    4.488979   -2.448385
     53          1           0       -3.107308    4.102543   -2.256340
     54          1           0       -2.560109    4.746777   -0.656961
     55          1           0       -4.158619    6.725916   -1.927697
     56          1           0       -3.351149    5.929741   -3.224597
     57          1           0       -5.772650    0.416341   -5.298858
     58          1           0       -6.378179   -1.168543   -5.594648
     59          1           0       -4.630320   -0.885290   -5.799770
     60          1           0       -5.746188   -3.311106   -5.758350
     61          1           0       -4.718212   -4.836602   -5.547154
     62          1           0       -4.016228   -3.196473   -5.558274
     63          1           0       -4.983783   -4.926273    1.276013
     64          1           0       -6.115305   -3.562998    3.669572
     65          1           0       -7.062858   -5.806112    1.369409
     66          1           0       -7.696899   -4.189639    0.907087
     67          1           0       -7.579894   -4.604219    2.538469
     68          1           0       -4.380498   -5.392673    3.774693
     69          1           0       -4.045310   -3.994145    4.789391
     70          1           0       -2.867045   -4.924705    2.280918
     71          1           0       -2.009037   -4.336567    3.745366
     72          1           0       -2.768274   -3.191822    2.550448
     73          1           0       -3.626054    1.576223    6.350655
     74          1           0       -4.398909   -0.037865    6.159656
     75          1           0       -5.433239    1.449396    6.098152
     76          1           0       -5.056086    4.995850    2.430743
     77          1           0       -2.389536    8.381687    2.218319
     78          1           0       -2.327670    7.727365    0.472534
     79          1           0       -1.278008    7.192422    1.798345
     80         12           0        4.221811   -1.359083   -0.471338
     81          6           0        6.468788    1.408248   -0.056553
     82          6           0        2.036499    0.824929   -1.916700
     83          6           0        2.048331   -3.670509   -0.444342
     84          6           0        6.052672   -3.033109    1.976374
     85          7           0        4.350501    0.811173   -0.878386
     86          6           0        5.277734    1.745681   -0.732560
     87          6           0        4.941208    3.097928   -1.416478
     88          6           0        3.341430    2.961052   -1.445689
     89          6           0        3.226449    1.438083   -1.449622
     90          6           0        2.669310    3.487535   -0.188546
     91          6           0        5.535580    3.199346   -2.865074
     92          6           0        5.511542    4.603389   -3.473212
     93          1           0        6.616437    5.005885   -4.339061
     94          7           0        2.538897   -1.551595   -1.505406
     95          6           0        1.793623   -0.560888   -2.038637
     96          6           0        0.646745   -1.221337   -2.680996
     97          6           0        0.689229   -2.669757   -2.341911
     98          6           0        1.772424   -2.683462   -1.379309
     99          6           0       -0.306969   -0.497212   -3.586265
    100          6           0       -0.120534   -3.845649   -2.797708
    101          8           0       -0.067198   -4.974781   -2.193511
    102          6           0       -1.047460   -3.610100   -3.914318
    103          7           0        3.939478   -3.014766    0.753961
    104          6           0        2.947248   -3.890246    0.515340
    105          6           0        3.107654   -5.137638    1.351212
    106          6           0        4.552742   -5.019697    2.026053
    107          6           0        4.958855   -3.621164    1.511717
    108          6           0        2.054365   -5.349919    2.438370
    109          6           0        5.533146   -6.203322    1.801296
    110          6           0        5.938300   -6.268743    0.346314
    111          7           0        6.051258   -0.999833    0.620513
    112          6           0        6.623666   -1.818457    1.618650
    113          6           0        7.801525   -1.100726    2.147752
    114          6           0        7.819410    0.105355    1.431147
    115          6           0        6.718001    0.145789    0.534059
    116          6           0        8.654371   -1.557699    3.191758
    117          6           0        8.513500    1.358077    1.237144
    118          8           0        9.563433    1.843457    1.656390
    119          6           0        7.597593    2.311992    0.355354
    120          6           0        8.453491    2.903644   -0.730877
    121          8           0        8.942695    2.179038   -1.615312
    122          8           0        8.374755    4.245558   -0.672178
    123          6           0        9.198325    4.877834   -1.736955
    124          1           0        1.191201    1.463087   -2.175779
    125          1           0        1.390628   -4.542395   -0.471098
    126          1           0        6.732256   -3.530380    2.671763
    127          1           0        5.228958    3.976604   -0.851761
    128          1           0        2.926030    3.377165   -2.359830
    129          1           0        3.388930    3.759589    0.569272
    130          1           0        2.034169    2.685213    0.163486
    131          1           0        1.999113    4.315210   -0.437807
    132          1           0        4.866644    2.680520   -3.563710
    133          1           0        6.534474    2.809553   -2.895200
    134          1           0        5.312605    5.375462   -2.720029
    135          1           0        4.661962    4.670856   -4.157075
    136          1           0       -0.183132    0.590361   -3.513798
    137          1           0       -1.315772   -0.681949   -3.201485
    138          1           0       -0.253607   -0.845851   -4.619839
    139          1           0       -1.749049   -2.825260   -3.641820
    140          1           0       -1.470040   -4.587650   -4.154512
    141          1           0       -0.475358   -3.237200   -4.771204
    142          1           0        3.080915   -6.025005    0.730764
    143          1           0        4.486029   -4.944546    3.121377
    144          1           0        1.521948   -6.315510    2.347654
    145          1           0        1.355065   -4.525193    2.401790
    146          1           0        2.426722   -5.291965    3.459742
    147          1           0        5.040425   -7.151715    2.029208
    148          1           0        6.425251   -6.147970    2.416174
    149          1           0        5.112030   -6.817455   -0.115497
    150          1           0        6.879024   -6.804024    0.234322
    151          1           0        5.960664   -5.268368   -0.101346
    152          1           0        9.669062   -1.353827    2.876591
    153          1           0        8.504767   -2.616501    3.392599
    154          1           0        8.306312   -0.930246    4.016642
    155          1           0        7.188858    3.076848    1.016802
    156          1           0        9.887414    5.567978   -1.240409
    157          1           0        8.476898    5.314521   -2.452912
    158          1           0        9.889117    4.243147   -2.279576
 ---------------------------------------------------------------------

 SCF Done:  E(RCAM-B3LYP) =  -4069.81247480     A.U. after   19 cycles

 Excitation energies and oscillator strengths:

 Excited State   1:      Singlet-A      1.6390 eV  756.46 nm  f=0.1723  <S**2>=0.000
     309 -> 315       -0.11598
     310 -> 316       -0.11715
     311 -> 313       -0.48236
     312 -> 314        0.48918
 This state for optimization and/or second-order correction.
 Total Energy, E(TD-HF/TD-DFT) =  -4069.75224278
 Copying the excited state density for this state as the 1-particle RhoCI density.

 Excited State   2:      Singlet-A      1.7015 eV  728.66 nm  f=0.5714  <S**2>=0.000
     309 -> 315        0.13042
     310 -> 316       -0.12581
     311 -> 313        0.48706
     312 -> 314        0.48021

 Excited State   3:      Singlet-A      2.1787 eV  569.07 nm  f=0.0053  <S**2>=0.000
     309 -> 313        0.37775
     310 -> 314        0.52320
     311 -> 315       -0.15601
     312 -> 316        0.21612

 Excited State   4:      Singlet-A      2.1951 eV  564.81 nm  f=0.1673  <S**2>=0.000
     309 -> 313        0.51792
     310 -> 314       -0.37304
     311 -> 315       -0.22886
     312 -> 316       -0.16325

 Excited State   5:      Singlet-A      2.2510 eV  550.79 nm  f=0.0001  <S**2>=0.000
     312 -> 313        0.70543

 The electronic state is 1-A.
 Alpha  occ. eigenvalues --  -46.88096 -46.87428 -19.26659 -19.26173 -19.19414
 Alpha  occ. eigenvalues --  -19.19042 -19.18980 -19.18472 -19.18458 -19.17838
 Alpha  occ. eigenvalues --  -14.42766 -14.42242 -14.41713 -14.41139 -14.39737
 Alpha  occ. eigenvalues --  -14.39123 -14.38880 -14.38371 -10.39461 -10.38904
 Alpha  occ. eigenvalues --  -10.35673 -10.35154 -10.34694 -10.34014 -10.32058
 Alpha  occ. eigenvalues --  -10.31717 -10.31609 -10.31259 -10.31040 -10.30886
 Alpha  occ. eigenvalues --  -10.30788 -10.30774 -10.30467 -10.30179 -10.30136
 Alpha  occ. eigenvalues --  -10.30133 -10.29937 -10.29929 -10.29687 -10.29563
 Alpha  occ. eigenvalues --  -10.29210 -10.29191 -10.29147 -10.29043 -10.28688
 Alpha  occ. eigenvalues --  -10.28504 -10.28471 -10.28428 -10.28172 -10.28104
 Alpha  occ. eigenvalues --  -10.28038 -10.27921 -10.27829 -10.27778 -10.27763
 Alpha  occ. eigenvalues --  -10.27714 -10.27627 -10.27539 -10.27484 -10.27407
 Alpha  occ. eigenvalues --  -10.27354 -10.27303 -10.27261 -10.27248 -10.27231
 Alpha  occ. eigenvalues --  -10.27220 -10.26826 -10.26667 -10.26534 -10.26488
 Alpha  occ. eigenvalues --  -10.26284 -10.26224 -10.26203 -10.26081 -10.25999
 Alpha  occ. eigenvalues --  -10.25721 -10.25655 -10.25522 -10.25375 -10.25283
 Alpha  occ. eigenvalues --  -10.25139 -10.25028 -10.24649 -10.24623 -10.24595
 Alpha  occ. eigenvalues --  -10.24472  -3.16839  -3.16177  -1.91720  -1.91307
 Alpha  occ. eigenvalues --   -1.91149  -1.91059  -1.90648  -1.90485  -1.17010
 Alpha  occ. eigenvalues --   -1.16466  -1.08931  -1.08448  -1.07424  -1.07028
 Alpha  occ. eigenvalues --   -1.06764  -1.06700  -1.04904  -1.04242  -1.04041
 Alpha  occ. eigenvalues --   -1.03530  -1.03431  -1.02819  -1.02697  -1.01885
 Alpha  occ. eigenvalues --   -0.92282  -0.91755  -0.89721  -0.89554  -0.89300
 Alpha  occ. eigenvalues --   -0.88831  -0.88458  -0.88155  -0.88039  -0.87986
 Alpha  occ. eigenvalues --   -0.87589  -0.87578  -0.87449  -0.86914  -0.85336
 Alpha  occ. eigenvalues --   -0.84729  -0.84091  -0.83708  -0.83208  -0.82960
 Alpha  occ. eigenvalues --   -0.82729  -0.82394  -0.81907  -0.81393  -0.80904
 Alpha  occ. eigenvalues --   -0.80228  -0.79100  -0.78424  -0.77513  -0.77227
 Alpha  occ. eigenvalues --   -0.76916  -0.76665  -0.76241  -0.75553  -0.75088
 Alpha  occ. eigenvalues --   -0.74616  -0.73051  -0.72473  -0.71944  -0.71329
 Alpha  occ. eigenvalues --   -0.70013  -0.69586  -0.69206  -0.68568  -0.67935
 Alpha  occ. eigenvalues --   -0.67600  -0.67390  -0.66986  -0.65639  -0.65148
 Alpha  occ. eigenvalues --   -0.65021  -0.64911  -0.64549  -0.64456  -0.64425
 Alpha  occ. eigenvalues --   -0.64010  -0.62610  -0.62085  -0.60709  -0.60150
 Alpha  occ. eigenvalues --   -0.60145  -0.59514  -0.59263  -0.58783  -0.58773
 Alpha  occ. eigenvalues --   -0.58210  -0.57909  -0.57545  -0.57344  -0.57042
 Alpha  occ. eigenvalues --   -0.56604  -0.56327  -0.55985  -0.55807  -0.55690
 Alpha  occ. eigenvalues --   -0.55557  -0.55238  -0.55064  -0.54757  -0.54309
 Alpha  occ. eigenvalues --   -0.54268  -0.53634  -0.53569  -0.53552  -0.53232
 Alpha  occ. eigenvalues --   -0.53119  -0.53009  -0.52910  -0.52668  -0.52529
 Alpha  occ. eigenvalues --   -0.52388  -0.52233  -0.52176  -0.51979  -0.51678
 Alpha  occ. eigenvalues --   -0.51469  -0.51413  -0.50988  -0.50883  -0.50293
 Alpha  occ. eigenvalues --   -0.50280  -0.50148  -0.49839  -0.49757  -0.49628
 Alpha  occ. eigenvalues --   -0.49509  -0.49410  -0.49207  -0.48957  -0.48904
 Alpha  occ. eigenvalues --   -0.48790  -0.48711  -0.48651  -0.48306  -0.48199
 Alpha  occ. eigenvalues --   -0.48100  -0.47979  -0.47567  -0.47360  -0.47065
 Alpha  occ. eigenvalues --   -0.46906  -0.46903  -0.46630  -0.46489  -0.46410
 Alpha  occ. eigenvalues --   -0.46278  -0.46122  -0.46058  -0.45891  -0.45606
 Alpha  occ. eigenvalues --   -0.45383  -0.45025  -0.44875  -0.44786  -0.44423
 Alpha  occ. eigenvalues --   -0.44362  -0.44307  -0.44296  -0.44203  -0.43892
 Alpha  occ. eigenvalues --   -0.43833  -0.43798  -0.43705  -0.43673  -0.43353
 Alpha  occ. eigenvalues --   -0.43300  -0.43142  -0.43034  -0.42807  -0.42738
 Alpha  occ. eigenvalues --   -0.42680  -0.42364  -0.42226  -0.41990  -0.41845
 Alpha  occ. eigenvalues --   -0.41767  -0.41439  -0.41421  -0.41223  -0.41182
 Alpha  occ. eigenvalues --   -0.41105  -0.40736  -0.40715  -0.40651  -0.40482
 Alpha  occ. eigenvalues --   -0.40445  -0.40273  -0.39994  -0.39525  -0.39260
 Alpha  occ. eigenvalues --   -0.38671  -0.38159  -0.38150  -0.37622  -0.37533
 Alpha  occ. eigenvalues --   -0.37436  -0.37059  -0.37039  -0.36949  -0.36592
 Alpha  occ. eigenvalues --   -0.36462  -0.36012  -0.34577  -0.34146  -0.34023
 Alpha  occ. eigenvalues --   -0.33672  -0.33482  -0.32948  -0.31559  -0.31316
 Alpha  occ. eigenvalues --   -0.31012  -0.30733  -0.30330  -0.29776  -0.29743
 Alpha  occ. eigenvalues --   -0.29622  -0.29109  -0.28989  -0.24371  -0.23803
 Alpha  occ. eigenvalues --   -0.21427  -0.20887
 Alpha virt. eigenvalues --   -0.09081  -0.08566  -0.02041  -0.01458  -0.00375
 Alpha virt. eigenvalues --    0.00217   0.01916   0.02397   0.02511   0.03459
 Alpha virt. eigenvalues --    0.04373   0.04710   0.04979   0.05356   0.05736

 Mulliken charges:
               1
     1  Mg   0.837089
     2  C   -0.004111
     3  C   -0.096560
     4  C   -0.043276
     5  C   -0.063052
     6  N   -0.256942
     7  C   -0.053104
     8  C   -0.013569
     9  C   -0.086482
    10  C    0.044913
    11  C    0.104661
    12  C    0.053636
    13  C   -0.071502
    14  H    0.034152
    15  N   -0.434212
    16  C    0.166928
    17  C   -0.182498
    18  C   -0.006449
    19  C    0.148411
    20  C    0.110914
    21  C    0.011905
    22  O   -0.244873
    23  C    0.064554
    24  N   -0.340982
    25  C    0.040447
    26  C   -0.028946
    27  C   -0.024393
    28  C    0.076216
    29  C    0.075783
    30  C    0.034799
    31  C   -0.006717
    32  N   -0.310956
    33  C    0.081280
    34  C   -0.168836
    35  C    0.008581
    36  C    0.083561
    37  C    0.127169
    38  C    0.046400
    39  O   -0.187520
    40  C   -0.005448
    41  C    0.213320
    42  O   -0.258831
    43  O   -0.304231
    44  C    0.157462
    45  H   -0.017379
    46  H   -0.014570
    47  H   -0.040372
    48  H    0.001763
    49  H   -0.004715
    50  H    0.025882
    51  H    0.017196
    52  H    0.017132
    53  H    0.007896
    54  H    0.042049
    55  H    0.019860
    56  H    0.018037
    57  H    0.005767
    58  H    0.028197
    59  H    0.036831
    60  H    0.037495
    61  H    0.038361
    62  H    0.026182
    63  H    0.020595
    64  H    0.009640
    65  H    0.024563
    66  H    0.012066
    67  H    0.004789
    68  H    0.007091
    69  H    0.003794
    70  H    0.014625
    71  H    0.018019
    72  H    0.029438
    73  H    0.048164
    74  H    0.009962
    75  H    0.046632
    76  H    0.035774
    77  H    0.044328
    78  H    0.045894
    79  H    0.052852
    80  Mg   0.838440
    81  C   -0.016872
    82  C   -0.087619
    83  C   -0.045827
    84  C   -0.064938
    85  N   -0.254816
    86  C   -0.048699
    87  C   -0.015197
    88  C   -0.090871
    89  C    0.046285
    90  C    0.114532
    91  C    0.062759
    92  C   -0.077042
    93  H    0.033447
    94  N   -0.423494
    95  C    0.163305
    96  C   -0.176267
    97  C   -0.009078
    98  C    0.151531
    99  C    0.096105
   100  C    0.018799
   101  O   -0.250877
   102  C    0.050058
   103  N   -0.349845
   104  C    0.037535
   105  C   -0.019934
   106  C   -0.034780
   107  C    0.088851
   108  C    0.073119
   109  C    0.034899
   110  C   -0.007587
   111  N   -0.324072
   112  C    0.078518
   113  C   -0.163324
   114  C    0.002340
   115  C    0.096255
   116  C    0.131451
   117  C    0.042280
   118  O   -0.188428
   119  C    0.000954
   120  C    0.211091
   121  O   -0.251497
   122  O   -0.305324
   123  C    0.152289
   124  H   -0.018096
   125  H   -0.015615
   126  H   -0.041035
   127  H   -0.000492
   128  H   -0.006648
   129  H    0.022305
   130  H    0.020664
   131  H    0.019510
   132  H    0.013043
   133  H    0.037099
   134  H    0.020946
   135  H    0.018511
   136  H    0.007633
   137  H    0.033302
   138  H    0.035400
   139  H    0.042248
   140  H    0.041686
   141  H    0.030109
   142  H    0.014195
   143  H    0.012074
   144  H    0.024148
   145  H    0.012889
   146  H    0.004747
   147  H    0.005617
   148  H    0.003417
   149  H    0.010802
   150  H    0.017482
   151  H    0.030395
   152  H    0.045488
   153  H    0.008002
   154  H    0.047227
   155  H    0.036004
   156  H    0.043585
   157  H    0.049224
   158  H    0.053144
 Sum of Mulliken charges =  -0.00000

 Dipole moment (field-independent basis, Debye):
    X=             -6.6828    Y=              1.8000    Z=             -4.3768  Tot=              8.1888
 Quadrupole moment (field-independent basis, Debye-Ang):
   XX=           -548.8447   YY=           -497.1077   ZZ=           -490.2834
   XY=            -18.0723   XZ=             12.5265   YZ=            -57.9822

 Normal termination of Gaussian 16 at Fri Sep 10 05:46:16 2021.
