 Gaussian 16, Revision A.03,
 Gaussian 16:  ES64L-G16RevA.03 25-Dec-2016

 -----------------------------------
 #p cam-b3lyp/Def2SVP td=(nstates=5)
 -----------------------------------

 --------------------------------
 TDDFT excited states in gaussian
 --------------------------------
 Symbolic Z-matrix:
 Charge =  0 Multiplicity = 1

                         Standard orientation:
 ---------------------------------------------------------------------
 Center     Atomic      Atomic             Coordinates (Angstroms)
 Number     Number       Type             X           Y           Z
 ---------------------------------------------------------------------
      1         12           0       -3.869927   -0.853413   -0.194000
      2          6           0       -4.339620    1.754889    2.211902
      3          6           0       -4.741575    1.408364   -2.595594
      4          6           0       -3.904101   -3.243159   -2.278363
      5          6           0       -4.149242   -3.125668    2.433642
      6          7           0       -4.444463    1.281516   -0.081618
      7          6           0       -4.527729    2.179758    0.894805
      8          6           0       -4.759382    3.631974    0.380238
      9          6           0       -5.421888    3.296447   -1.030614
     10          6           0       -4.806197    1.928961   -1.269007
     11          6           0       -6.938848    3.148607   -0.971639
     12          6           0       -3.419035    4.423325    0.210052
     13          6           0       -3.572075    5.936171    0.027766
     14          1           0       -2.571304    6.816629    0.611375
     15          7           0       -3.786601   -0.833260   -2.167702
     16          6           0       -4.167920    0.178377   -2.984080
     17          6           0       -3.909914   -0.290894   -4.362448
     18          6           0       -3.525627   -1.727934   -4.289423
     19          6           0       -3.751732   -2.002777   -2.893458
     20          6           0       -3.988849    0.600715   -5.563511
     21          6           0       -3.042830   -2.702072   -5.317088
     22          8           0       -2.988215   -3.959072   -5.090063
     23          6           0       -2.714902   -2.149022   -6.643603
     24          7           0       -4.225115   -2.901363   -0.000662
     25          6           0       -4.120278   -3.722128   -1.051537
     26          6           0       -4.137681   -5.160113   -0.625115
     27          6           0       -4.031838   -5.150050    0.968136
     28          6           0       -4.055625   -3.618538    1.196555
     29          6           0       -5.371107   -5.969149   -1.049534
     30          6           0       -2.881790   -5.972501    1.601686
     31          6           0       -1.550265   -5.345962    1.252994
     32          7           0       -4.010359   -0.737637    1.968850
     33          6           0       -4.141381   -1.809328    2.863828
     34          6           0       -4.307854   -1.230376    4.209625
     35          6           0       -4.278525    0.147040    4.000558
     36          6           0       -4.131071    0.411852    2.609003
     37          6           0       -4.518090   -1.962279    5.411521
     38          6           0       -4.362171    1.456794    4.626182
     39          8           0       -4.395781    1.861767    5.789092
     40          6           0       -4.527402    2.549918    3.480055
     41          6           0       -3.551805    3.658948    3.765660
     42          8           0       -2.321507    3.463958    3.690077
     43          8           0       -4.213913    4.823124    3.848424
     44          6           0       -3.300378    5.969291    4.101224
     45          1           0       -5.224575    1.961228   -3.403675
     46          1           0       -3.810732   -4.099225   -2.949832
     47          1           0       -4.157309   -3.773389    3.312189
     48          1           0       -5.448114    4.223530    0.983674
     49          1           0       -5.105418    3.994751   -1.805173
     50          1           0       -7.301649    3.170787    0.055885
     51          1           0       -7.155353    2.183961   -1.431071
     52          1           0       -7.425523    3.895465   -1.599434
     53          1           0       -2.968692    4.165575   -0.748497
     54          1           0       -2.746385    4.227104    1.045735
     55          1           0       -4.575688    6.270044    0.292714
     56          1           0       -3.482815    6.162925   -1.034691
     57          1           0       -4.454533    1.555725   -5.323431
     58          1           0       -4.678642    0.130684   -6.264200
     59          1           0       -3.017202    0.735804   -6.038891
     60          1           0       -3.597821   -1.662846   -7.059097
     61          1           0       -2.302380   -2.975951   -7.220547
     62          1           0       -1.962643   -1.368694   -6.524680
     63          1           0       -3.285860   -5.700264   -1.036288
     64          1           0       -4.932035   -5.544174    1.440348
     65          1           0       -5.131977   -6.857532   -1.634596
     66          1           0       -6.036297   -5.305179   -1.600857
     67          1           0       -6.013687   -6.287175   -0.228944
     68          1           0       -2.874468   -6.985452    1.200658
     69          1           0       -2.952422   -6.045975    2.686980
     70          1           0       -1.338945   -5.756609    0.266310
     71          1           0       -0.788152   -5.646984    1.972563
     72          1           0       -1.635396   -4.264546    1.144462
     73          1           0       -3.882282   -1.499039    6.165926
     74          1           0       -4.274295   -3.016383    5.281019
     75          1           0       -5.584226   -1.796189    5.565219
     76          1           0       -5.560701    2.893072    3.520777
     77          1           0       -3.655743    6.470445    5.001665
     78          1           0       -3.268136    6.549178    3.178675
     79          1           0       -2.280711    5.717357    4.394733
     80         12           0        4.038495   -0.423675    0.229051
     81          6           0        3.691547    2.103337   -2.295411
     82          6           0        5.166286    2.027318    2.315987
     83          6           0        4.779884   -2.687288    2.325195
     84          6           0        3.988218   -2.789767   -2.329227
     85          7           0        4.344179    1.746855   -0.066947
     86          6           0        4.119681    2.606534   -1.049245
     87          6           0        4.290890    4.097086   -0.651139
     88          6           0        5.285459    3.900637    0.594290
     89          6           0        4.889036    2.483272    1.002459
     90          6           0        6.752317    3.890731    0.197330
     91          6           0        2.937987    4.756443   -0.207393
     92          6           0        2.970608    6.282728   -0.101861
     93          1           0        1.772207    7.031642   -0.469879
     94          7           0        4.383019   -0.304503    2.179865
     95          6           0        4.815872    0.774416    2.865320
     96          6           0        4.930111    0.341530    4.266649
     97          6           0        4.687456   -1.125556    4.325668
     98          6           0        4.626579   -1.439738    2.912272
     99          6           0        5.163798    1.300156    5.397951
    100          6           0        4.547732   -2.088735    5.465385
    101          8           0        4.577837   -3.357020    5.282703
    102          6           0        4.468387   -1.503945    6.811949
    103          7           0        4.553085   -2.426924    0.018007
    104          6           0        4.775195   -3.200793    1.094903
    105          6           0        4.856691   -4.659064    0.711246
    106          6           0        4.400380   -4.726593   -0.820029
    107          6           0        4.211369   -3.218502   -1.094494
    108          6           0        6.231147   -5.310706    0.861644
    109          6           0        3.233878   -5.692530   -1.164843
    110          6           0        1.950151   -5.195100   -0.540335
    111          7           0        3.688144   -0.402147   -1.902810
    112          6           0        3.740770   -1.501915   -2.787027
    113          6           0        3.546225   -0.972473   -4.152415
    114          6           0        3.415850    0.412341   -3.968587
    115          6           0        3.541844    0.726189   -2.588323
    116          6           0        3.556531   -1.739569   -5.351404
    117          6           0        3.210901    1.681178   -4.629452
    118          8           0        2.953988    2.029224   -5.781237
    119          6           0        3.506541    2.846225   -3.589439
    120          6           0        2.380107    3.839610   -3.672168
    121          8           0        1.228090    3.518760   -3.330808
    122          8           0        2.886147    5.059025   -3.931643
    123          6           0        1.808274    6.080556   -4.012151
    124          1           0        5.744145    2.672779    2.978068
    125          1           0        4.927147   -3.519355    3.017630
    126          1           0        3.861926   -3.474092   -3.170911
    127          1           0        4.758339    4.718047   -1.405909
    128          1           0        5.062484    4.603767    1.392574
    129          1           0        6.879573    3.899146   -0.874989
    130          1           0        7.165399    2.984342    0.620248
    131          1           0        7.279678    4.717181    0.682315
    132          1           0        2.741656    4.499738    0.841561
    133          1           0        2.137306    4.456030   -0.854916
    134          1           0        3.855671    6.710702   -0.588118
    135          1           0        3.084549    6.555482    0.950109
    136          1           0        5.467004    2.288664    5.031451
    137          1           0        6.036589    0.935921    5.950607
    138          1           0        4.313551    1.361387    6.080599
    139          1           0        5.360411   -0.911675    7.001593
    140          1           0        4.281649   -2.343366    7.484544
    141          1           0        3.618932   -0.812534    6.843606
    142          1           0        4.175996   -5.254401    1.307349
    143          1           0        5.217367   -5.065053   -1.474106
    144          1           0        6.222974   -6.199793    1.520074
    145          1           0        6.922407   -4.567061    1.235413
    146          1           0        6.702167   -5.615781   -0.071239
    147          1           0        3.422876   -6.681424   -0.739973
    148          1           0        3.082508   -5.823684   -2.231087
    149          1           0        2.010635   -5.574962    0.483937
    150          1           0        1.086984   -5.603166   -1.062319
    151          1           0        1.937464   -4.100336   -0.485692
    152          1           0        2.733385   -1.383010   -5.956217
    153          1           0        3.466289   -2.803690   -5.143373
    154          1           0        4.544571   -1.479760   -5.740673
    155          1           0        4.465175    3.290890   -3.859400
    156          1           0        1.905798    6.571914   -4.985155
    157          1           0        1.929448    6.714167   -3.113478
    158          1           0        0.784795    5.726895   -4.055450
 ---------------------------------------------------------------------

 SCF Done:  E(RCAM-B3LYP) =  -4069.81292723     A.U. after   18 cycles

 Excitation energies and oscillator strengths:

 Excited State   1:      Singlet-A      1.6398 eV  756.10 nm  f=0.0156  <S**2>=0.000
     309 -> 315        0.12129
     310 -> 316        0.11097
     311 -> 313        0.50740
     312 -> 314        0.46501
 This state for optimization and/or second-order correction.
 Total Energy, E(TD-HF/TD-DFT) =  -4069.75266610
 Copying the excited state density for this state as the 1-particle RhoCI density.

 Excited State   2:      Singlet-A      1.7102 eV  724.95 nm  f=0.6698  <S**2>=0.000
     309 -> 315       -0.12338
     310 -> 316        0.13478
     311 -> 313       -0.46200
     312 -> 314        0.50416

 Excited State   3:      Singlet-A      2.1811 eV  568.46 nm  f=0.0118  <S**2>=0.000
     309 -> 313        0.54928
     310 -> 314       -0.33930
     311 -> 315       -0.22771
     312 -> 316        0.13928

 Excited State   4:      Singlet-A      2.1983 eV  564.00 nm  f=0.1580  <S**2>=0.000
     309 -> 313        0.33443
     310 -> 314        0.54373
     311 -> 315       -0.14868
     312 -> 316       -0.24008

 Excited State   5:      Singlet-A      2.3372 eV  530.49 nm  f=0.0000  <S**2>=0.000
     312 -> 313        0.70704

 The electronic state is 1-A.
 Alpha  occ. eigenvalues --  -46.87496 -46.87431 -19.26459 -19.26160 -19.19257
 Alpha  occ. eigenvalues --  -19.18873 -19.18524 -19.18450 -19.18023 -19.17898
 Alpha  occ. eigenvalues --  -14.42331 -14.42083 -14.41206 -14.41102 -14.39177
 Alpha  occ. eigenvalues --  -14.39019 -14.38458 -14.38242 -10.39169 -10.38920
 Alpha  occ. eigenvalues --  -10.35195 -10.35075 -10.34203 -10.34124 -10.31938
 Alpha  occ. eigenvalues --  -10.31628 -10.31173 -10.31061 -10.30857 -10.30530
 Alpha  occ. eigenvalues --  -10.30254 -10.30220 -10.30214 -10.30174 -10.29955
 Alpha  occ. eigenvalues --  -10.29839 -10.29768 -10.29623 -10.29280 -10.29254
 Alpha  occ. eigenvalues --  -10.29251 -10.28865 -10.28581 -10.28571 -10.28407
 Alpha  occ. eigenvalues --  -10.28295 -10.28259 -10.28000 -10.27998 -10.27859
 Alpha  occ. eigenvalues --  -10.27772 -10.27499 -10.27431 -10.27361 -10.27348
 Alpha  occ. eigenvalues --  -10.27345 -10.27299 -10.27246 -10.27222 -10.27203
 Alpha  occ. eigenvalues --  -10.27201 -10.27201 -10.27066 -10.27022 -10.26921
 Alpha  occ. eigenvalues --  -10.26907 -10.26518 -10.26312 -10.26148 -10.25955
 Alpha  occ. eigenvalues --  -10.25944 -10.25942 -10.25926 -10.25914 -10.25778
 Alpha  occ. eigenvalues --  -10.25765 -10.25668 -10.25571 -10.25289 -10.25216
 Alpha  occ. eigenvalues --  -10.24748 -10.24547 -10.24534 -10.24491 -10.24456
 Alpha  occ. eigenvalues --  -10.24427  -3.16245  -3.16173  -1.91127  -1.91054
 Alpha  occ. eigenvalues --   -1.90716  -1.90641  -1.90553  -1.90483  -1.16748
 Alpha  occ. eigenvalues --   -1.16502  -1.08652  -1.08374  -1.07037  -1.06855
 Alpha  occ. eigenvalues --   -1.06775  -1.06494  -1.04336  -1.04218  -1.03504
 Alpha  occ. eigenvalues --   -1.03412  -1.02885  -1.02876  -1.02060  -1.01962
 Alpha  occ. eigenvalues --   -0.91878  -0.91653  -0.89345  -0.89212  -0.89009
 Alpha  occ. eigenvalues --   -0.88846  -0.88074  -0.87992  -0.87676  -0.87544
 Alpha  occ. eigenvalues --   -0.87527  -0.87312  -0.86916  -0.86847  -0.84860
 Alpha  occ. eigenvalues --   -0.84647  -0.83746  -0.83664  -0.82742  -0.82586
 Alpha  occ. eigenvalues --   -0.82506  -0.82312  -0.81563  -0.81343  -0.80342
 Alpha  occ. eigenvalues --   -0.80284  -0.78464  -0.78403  -0.77000  -0.76892
 Alpha  occ. eigenvalues --   -0.76809  -0.76655  -0.75746  -0.75631  -0.74687
 Alpha  occ. eigenvalues --   -0.74613  -0.72558  -0.72436  -0.71458  -0.71360
 Alpha  occ. eigenvalues --   -0.69686  -0.69539  -0.68693  -0.68541  -0.67473
 Alpha  occ. eigenvalues --   -0.67311  -0.67039  -0.66864  -0.65153  -0.64960
 Alpha  occ. eigenvalues --   -0.64667  -0.64558  -0.64539  -0.64322  -0.64067
 Alpha  occ. eigenvalues --   -0.63956  -0.62259  -0.62076  -0.60162  -0.60063
 Alpha  occ. eigenvalues --   -0.59654  -0.59459  -0.58867  -0.58668  -0.58318
 Alpha  occ. eigenvalues --   -0.58189  -0.57532  -0.57337  -0.57101  -0.56999
 Alpha  occ. eigenvalues --   -0.56094  -0.55986  -0.55854  -0.55753  -0.55341
 Alpha  occ. eigenvalues --   -0.55168  -0.55159  -0.55084  -0.54428  -0.54289
 Alpha  occ. eigenvalues --   -0.53775  -0.53559  -0.53096  -0.53034  -0.52974
 Alpha  occ. eigenvalues --   -0.52874  -0.52800  -0.52630  -0.52464  -0.52346
 Alpha  occ. eigenvalues --   -0.52247  -0.52157  -0.51805  -0.51624  -0.51509
 Alpha  occ. eigenvalues --   -0.51260  -0.51108  -0.50903  -0.50247  -0.50114
 Alpha  occ. eigenvalues --   -0.49817  -0.49720  -0.49698  -0.49546  -0.49341
 Alpha  occ. eigenvalues --   -0.49179  -0.49084  -0.49009  -0.48888  -0.48792
 Alpha  occ. eigenvalues --   -0.48484  -0.48321  -0.48288  -0.48196  -0.48165
 Alpha  occ. eigenvalues --   -0.48082  -0.47464  -0.47363  -0.46969  -0.46949
 Alpha  occ. eigenvalues --   -0.46583  -0.46480  -0.46416  -0.46240  -0.46144
 Alpha  occ. eigenvalues --   -0.46025  -0.45981  -0.45876  -0.45770  -0.45571
 Alpha  occ. eigenvalues --   -0.45090  -0.44905  -0.44440  -0.44335  -0.44307
 Alpha  occ. eigenvalues --   -0.44156  -0.44041  -0.43948  -0.43834  -0.43791
 Alpha  occ. eigenvalues --   -0.43778  -0.43672  -0.43539  -0.43267  -0.43249
 Alpha  occ. eigenvalues --   -0.43061  -0.42940  -0.42799  -0.42720  -0.42518
 Alpha  occ. eigenvalues --   -0.42431  -0.42334  -0.41830  -0.41710  -0.41570
 Alpha  occ. eigenvalues --   -0.41398  -0.41322  -0.41218  -0.40865  -0.40827
 Alpha  occ. eigenvalues --   -0.40581  -0.40549  -0.40517  -0.40446  -0.40353
 Alpha  occ. eigenvalues --   -0.40283  -0.40057  -0.39868  -0.39445  -0.38958
 Alpha  occ. eigenvalues --   -0.38209  -0.38172  -0.37533  -0.37434  -0.37129
 Alpha  occ. eigenvalues --   -0.37061  -0.36996  -0.36924  -0.36809  -0.36524
 Alpha  occ. eigenvalues --   -0.36107  -0.35921  -0.34126  -0.33947  -0.33909
 Alpha  occ. eigenvalues --   -0.33588  -0.33029  -0.32842  -0.31088  -0.30986
 Alpha  occ. eigenvalues --   -0.30829  -0.30697  -0.29936  -0.29767  -0.29171
 Alpha  occ. eigenvalues --   -0.29078  -0.29070  -0.28964  -0.23886  -0.23729
 Alpha  occ. eigenvalues --   -0.20958  -0.20767
 Alpha virt. eigenvalues --   -0.08637  -0.08406  -0.01521  -0.01395   0.00140
 Alpha virt. eigenvalues --    0.00319   0.02291   0.02466   0.02563   0.04547
 Alpha virt. eigenvalues --    0.04810   0.05050   0.05105   0.05276   0.05992

 Mulliken charges:
               1
     1  Mg   0.840383
     2  C   -0.002990
     3  C   -0.089281
     4  C   -0.046959
     5  C   -0.064204
     6  N   -0.256882
     7  C   -0.052377
     8  C   -0.014481
     9  C   -0.087904
    10  C    0.048071
    11  C    0.104937
    12  C    0.051720
    13  C   -0.070247
    14  H    0.031594
    15  N   -0.433599
    16  C    0.171603
    17  C   -0.173237
    18  C   -0.003085
    19  C    0.149503
    20  C    0.109998
    21  C    0.012490
    22  O   -0.251994
    23  C    0.060800
    24  N   -0.341223
    25  C    0.041945
    26  C   -0.028351
    27  C   -0.023546
    28  C    0.074022
    29  C    0.076628
    30  C    0.037051
    31  C   -0.009145
    32  N   -0.310090
    33  C    0.079433
    34  C   -0.170750
    35  C    0.007394
    36  C    0.082159
    37  C    0.127682
    38  C    0.044882
    39  O   -0.191032
    40  C   -0.005163
    41  C    0.212760
    42  O   -0.258314
    43  O   -0.304423
    44  C    0.158668
    45  H   -0.017869
    46  H   -0.018087
    47  H   -0.042429
    48  H   -0.000556
    49  H   -0.002970
    50  H    0.024784
    51  H    0.016302
    52  H    0.016004
    53  H    0.019540
    54  H    0.042922
    55  H    0.016683
    56  H    0.018277
    57  H    0.005940
    58  H    0.024923
    59  H    0.047422
    60  H    0.037035
    61  H    0.033780
    62  H    0.037535
    63  H    0.015110
    64  H    0.008830
    65  H    0.022116
    66  H    0.012618
    67  H    0.004369
    68  H    0.004299
    69  H    0.004254
    70  H    0.009710
    71  H    0.020957
    72  H    0.029359
    73  H    0.045902
    74  H    0.008924
    75  H    0.045073
    76  H    0.034536
    77  H    0.041994
    78  H    0.046521
    79  H    0.051421
    80  Mg   0.839348
    81  C   -0.017113
    82  C   -0.085842
    83  C   -0.045609
    84  C   -0.064271
    85  N   -0.254754
    86  C   -0.049537
    87  C   -0.015625
    88  C   -0.091069
    89  C    0.047103
    90  C    0.114432
    91  C    0.061793
    92  C   -0.076910
    93  H    0.031644
    94  N   -0.423779
    95  C    0.165320
    96  C   -0.172893
    97  C   -0.006673
    98  C    0.152844
    99  C    0.099348
   100  C    0.016505
   101  O   -0.253977
   102  C    0.060197
   103  N   -0.350026
   104  C    0.037920
   105  C   -0.020043
   106  C   -0.034735
   107  C    0.088052
   108  C    0.073881
   109  C    0.037012
   110  C   -0.014012
   111  N   -0.323835
   112  C    0.077907
   113  C   -0.163932
   114  C    0.000687
   115  C    0.095873
   116  C    0.132207
   117  C    0.040620
   118  O   -0.191477
   119  C    0.001407
   120  C    0.210648
   121  O   -0.252603
   122  O   -0.304943
   123  C    0.153206
   124  H   -0.019671
   125  H   -0.015883
   126  H   -0.040226
   127  H   -0.001844
   128  H   -0.003550
   129  H    0.021932
   130  H    0.014416
   131  H    0.016027
   132  H    0.019101
   133  H    0.036829
   134  H    0.019832
   135  H    0.020592
   136  H    0.008861
   137  H    0.025400
   138  H    0.043650
   139  H    0.037760
   140  H    0.036004
   141  H    0.037474
   142  H    0.014051
   143  H    0.012014
   144  H    0.024655
   145  H    0.011532
   146  H    0.005503
   147  H    0.004734
   148  H    0.004100
   149  H    0.011207
   150  H    0.024244
   151  H    0.029921
   152  H    0.042587
   153  H    0.010130
   154  H    0.046331
   155  H    0.034741
   156  H    0.043054
   157  H    0.050326
   158  H    0.050195
 Sum of Mulliken charges =  -0.00000

 Dipole moment (field-independent basis, Debye):
    X=              0.7540    Y=              3.2547    Z=             -0.8185  Tot=              3.4397
 Quadrupole moment (field-independent basis, Debye-Ang):
   XX=           -485.3901   YY=           -462.3792   ZZ=           -541.7227
   XY=              5.4305   XZ=             26.9340   YZ=             -1.0178

 Normal termination of Gaussian 16 at Wed Sep  8 19:13:18 2021.
