 Gaussian 16, Revision A.03,
 Gaussian 16:  ES64L-G16RevA.03 25-Dec-2016

 -----------------------------------
 #p cam-b3lyp/Def2SVP td=(nstates=5)
 -----------------------------------

 --------------------------------
 TDDFT excited states in gaussian
 --------------------------------
 Symbolic Z-matrix:
 Charge =  0 Multiplicity = 1

                         Standard orientation:
 ---------------------------------------------------------------------
 Center     Atomic      Atomic             Coordinates (Angstroms)
 Number     Number       Type             X           Y           Z
 ---------------------------------------------------------------------
      1         12           0       15.996494    0.582964    0.669246
      2          6           0       16.310795   -2.438145   -1.224515
      3          6           0       16.985692    2.264863   -2.129998
      4          6           0       16.165526    3.209088    2.438856
      5          6           0       16.143728   -1.379064    3.545777
      6          7           0       16.548232   -0.109908   -1.359586
      7          6           0       16.569773   -1.288497   -1.974106
      8          6           0       16.819501   -1.180901   -3.508196
      9          6           0       17.562928    0.229078   -3.543936
     10          6           0       16.971623    0.847312   -2.289317
     11          6           0       19.075184    0.124963   -3.374399
     12          6           0       15.485160   -1.145915   -4.326757
     13          6           0       15.637225   -1.369998   -5.834078
     14          1           0       14.598761   -2.104102   -6.541206
     15          7           0       16.024444    2.485759    0.138735
     16          6           0       16.443818    2.989910   -1.046694
     17          6           0       16.267362    4.455018   -0.951807
     18          6           0       15.890034    4.777891    0.452283
     19          6           0       16.039061    3.490051    1.080485
     20          6           0       16.407405    5.378215   -2.123065
     21          6           0       15.473049    6.048036    1.123840
     22          8           0       15.414867    6.157265    2.396341
     23          6           0       15.216424    7.202692    0.244094
     24          7           0       16.355105    0.906139    2.700155
     25          6           0       16.315663    2.137704    3.220419
     26          6           0       16.319455    2.097394    4.719852
     27          6           0       16.123874    0.564327    5.121357
     28          6           0       16.123601   -0.053358    3.701239
     29          6           0       17.580703    2.646406    5.400918
     30          6           0       14.945947    0.230872    6.070944
     31          6           0       13.631678    0.480123    5.365487
     32          7           0       16.013904   -1.540604    1.117801
     33          6           0       16.102048   -2.133890    2.385443
     34          6           0       16.188157   -3.590796    2.175494
     35          6           0       16.160643   -3.743753    0.790687
     36          6           0       16.089963   -2.462003    0.173910
     37          6           0       16.335608   -4.572392    3.194887
     38          6           0       16.199349   -4.690500   -0.312051
     39          8           0       16.164388   -5.918561   -0.402244
     40          6           0       16.420984   -3.877257   -1.663102
     41          6           0       15.422793   -4.384517   -2.667896
     42          8           0       14.200166   -4.191878   -2.508400
     43          8           0       16.070695   -4.802710   -3.766022
     44          6           0       15.136045   -5.291435   -4.814703
     45          1           0       17.509453    2.873930   -2.869359
     46          1           0       16.116396    4.083263    3.091423
     47          1           0       16.106957   -2.059222    4.398704
     48          1           0       17.468790   -1.954608   -3.918347
     49          1           0       17.285563    0.813252   -4.421165
     50          1           0       19.379300   -0.892093   -3.127355
     51          1           0       19.324261    0.805283   -2.559771
     52          1           0       19.591037    0.509798   -4.254499
     53          1           0       15.091469   -0.129518   -4.329077
     54          1           0       14.767906   -1.863146   -3.926193
     55          1           0       16.621847   -1.768392   -6.080472
     56          1           0       15.606367   -0.399045   -6.328545
     57          1           0       16.851851    4.873478   -2.979951
     58          1           0       17.139011    6.136604   -1.845021
     59          1           0       15.463152    5.856454   -2.383844
     60          1           0       16.117806    7.427886   -0.326299
     61          1           0       14.843116    7.996161    0.890545
     62          1           0       14.452999    6.928593   -0.484605
     63          1           0       15.496125    2.681591    5.128835
     64          1           0       16.998857    0.160159    5.630991
     65          1           0       17.381411    3.453825    6.105944
     66          1           0       18.271073    2.968873    4.622012
     67          1           0       18.178287    1.901121    5.925189
     68          1           0       14.968618    0.879974    6.945643
     69          1           0       14.955805   -0.800695    6.423115
     70          1           0       13.479322    1.549724    5.505391
     71          1           0       12.832415   -0.092993    5.836580
     72          1           0       13.714924    0.300317    4.293468
     73          1           0       15.654921   -5.383866    2.937703
     74          1           0       16.107234   -4.160200    4.177509
     75          1           0       17.390145   -4.823635    3.082267
     76          1           0       17.447820   -4.063494   -1.976224
     77          1           0       15.436417   -6.309392   -5.063245
     78          1           0       15.151654   -4.549939   -5.613668
     79          1           0       14.103310   -5.451867   -4.503158
     80         12           0      -15.717313    0.321122   -0.764160
     81          6           0      -17.185895   -1.594423    1.891585
     82          6           0      -17.650184    2.939597    0.256740
     83          6           0      -14.783666    1.892604   -3.357650
     84          6           0      -14.794810   -2.696482   -2.243598
     85          7           0      -17.187959    0.523729    0.875476
     86          6           0      -17.618620   -0.252372    1.858609
     87          6           0      -18.503316    0.471335    2.908905
     88          6           0      -19.027054    1.679970    1.990327
     89          6           0      -17.870575    1.749517    0.995141
     90          6           0      -20.296815    1.347370    1.224551
     91          6           0      -17.671203    0.997341    4.130764
     92          6           0      -18.505878    1.438484    5.335118
     93          1           0      -17.975775    1.199080    6.674574
     94          7           0      -15.764314    2.261872   -1.176307
     95          6           0      -16.598685    3.184794   -0.653512
     96          6           0      -16.242280    4.459275   -1.296041
     97          6           0      -15.240295    4.183480   -2.361264
     98          6           0      -15.239382    2.734336   -2.353479
     99          6           0      -16.777819    5.782472   -0.831532
    100          6           0      -14.428018    5.076136   -3.249845
    101          8           0      -13.796499    4.619181   -4.267293
    102          6           0      -14.469376    6.514510   -2.948421
    103          7           0      -15.094219   -0.307115   -2.645491
    104          6           0      -14.693243    0.580040   -3.572914
    105          6           0      -14.032817   -0.112742   -4.740930
    106          6           0      -13.856198   -1.637523   -4.292122
    107          6           0      -14.556578   -1.579253   -2.916817
    108          6           0      -14.794833   -0.057180   -6.064803
    109          6           0      -12.423042   -2.231746   -4.367180
    110          6           0      -11.532735   -1.562693   -3.344877
    111          7           0      -15.769528   -1.765223   -0.205149
    112          6           0      -15.356369   -2.867768   -0.984747
    113          6           0      -15.692890   -4.088980   -0.224606
    114          6           0      -16.304192   -3.609040    0.943503
    115          6           0      -16.363931   -2.189751    0.904319
    116          6           0      -15.473110   -5.426452   -0.659316
    117          6           0      -16.922101   -3.980799    2.195970
    118          8           0      -17.075992   -5.036294    2.809134
    119          6           0      -17.634498   -2.698594    2.808201
    120          6           0      -17.251712   -2.603193    4.259710
    121          8           0      -16.072461   -2.385712    4.589400
    122          8           0      -18.368949   -2.567325    5.008614
    123          6           0      -18.041193   -2.461680    6.455419
    124          1           0      -18.374129    3.749601    0.349978
    125          1           0      -14.348947    2.389340   -4.228139
    126          1           0      -14.451328   -3.672714   -2.592384
    127          1           0      -19.342289   -0.109114    3.273544
    128          1           0      -19.098446    2.604623    2.557146
    129          1           0      -20.572846    0.309085    1.333710
    130          1           0      -20.083662    1.575261    0.188368
    131          1           0      -21.104140    2.022810    1.521781
    132          1           0      -17.207596    1.955359    3.862422
    133          1           0      -16.946950    0.269138    4.440289
    134          1           0      -19.544559    1.093160    5.265498
    135          1           0      -18.584340    2.528300    5.322473
    136          1           0      -17.619173    5.655246   -0.139196
    137          1           0      -17.217599    6.274209   -1.705975
    138          1           0      -16.001627    6.428556   -0.415873
    139          1           0      -15.497752    6.864432   -2.997936
    140          1           0      -13.757423    6.977444   -3.634494
    141          1           0      -14.134983    6.665350   -1.915928
    142          1           0      -13.055844    0.310531   -4.939564
    143          1           0      -14.450768   -2.318253   -4.918968
    144          1           0      -14.205997    0.387854   -6.888992
    145          1           0      -15.710283    0.497889   -5.908678
    146          1           0      -15.164408   -1.015570   -6.425505
    147          1           0      -11.979654   -2.028791   -5.345116
    148          1           0      -12.392274   -3.305651   -4.216246
    149          1           0      -11.218916   -0.646033   -3.853165
    150          1           0      -10.679197   -2.194714   -3.108100
    151          1           0      -12.104828   -1.268178   -2.457405
    152          1           0      -15.078339   -5.968812    0.189515
    153          1           0      -14.791684   -5.462171   -1.506761
    154          1           0      -16.491165   -5.710426   -0.938941
    155          1           0      -18.709524   -2.826600    2.675888
    156          1           0      -18.537976   -3.297666    6.957424
    157          1           0      -18.344234   -1.441297    6.756653
    158          1           0      -17.010205   -2.621363    6.748715
 ---------------------------------------------------------------------

 SCF Done:  E(RCAM-B3LYP) =  -4069.81176206     A.U. after   19 cycles

 Excitation energies and oscillator strengths:

 Excited State   1:      Singlet-A      1.6753 eV  740.06 nm  f=0.2141  <S**2>=0.000
     310 -> 316        0.16865
     311 -> 313        0.66676
     312 -> 314       -0.16155
     310 <- 316        0.10168
 This state for optimization and/or second-order correction.
 Total Energy, E(TD-HF/TD-DFT) =  -4069.75019537
 Copying the excited state density for this state as the 1-particle RhoCI density.

 Excited State   2:      Singlet-A      1.6801 eV  737.95 nm  f=0.5634  <S**2>=0.000
     309 -> 315        0.17067
     311 -> 313        0.16151
     312 -> 314        0.66639
     309 <- 315        0.10218

 Excited State   3:      Singlet-A      2.1861 eV  567.15 nm  f=0.0975  <S**2>=0.000
     310 -> 313        0.64224
     311 -> 316       -0.27301

 Excited State   4:      Singlet-A      2.1925 eV  565.49 nm  f=0.1030  <S**2>=0.000
     309 -> 314        0.64047
     312 -> 315       -0.27820

 Excited State   5:      Singlet-A      3.0593 eV  405.27 nm  f=0.0000  <S**2>=0.000
     312 -> 313        0.70711

 The electronic state is 1-A.
 Alpha  occ. eigenvalues --  -46.87755 -46.87661 -19.26347 -19.26241 -19.19158
 Alpha  occ. eigenvalues --  -19.18976 -19.18774 -19.18716 -19.18128 -19.18051
 Alpha  occ. eigenvalues --  -14.42498 -14.42408 -14.41408 -14.41359 -14.39361
 Alpha  occ. eigenvalues --  -14.39352 -14.38600 -14.38545 -10.39088 -10.39036
 Alpha  occ. eigenvalues --  -10.35408 -10.35393 -10.34348 -10.34228 -10.31753
 Alpha  occ. eigenvalues --  -10.31636 -10.31363 -10.31309 -10.31024 -10.30867
 Alpha  occ. eigenvalues --  -10.30528 -10.30466 -10.30398 -10.30361 -10.30165
 Alpha  occ. eigenvalues --  -10.30141 -10.29895 -10.29879 -10.29589 -10.29437
 Alpha  occ. eigenvalues --  -10.29401 -10.29213 -10.28720 -10.28708 -10.28653
 Alpha  occ. eigenvalues --  -10.28496 -10.28405 -10.28323 -10.28142 -10.28076
 Alpha  occ. eigenvalues --  -10.28001 -10.27751 -10.27686 -10.27670 -10.27543
 Alpha  occ. eigenvalues --  -10.27517 -10.27484 -10.27469 -10.27466 -10.27459
 Alpha  occ. eigenvalues --  -10.27441 -10.27408 -10.27376 -10.27362 -10.27116
 Alpha  occ. eigenvalues --  -10.27050 -10.26692 -10.26662 -10.26417 -10.26370
 Alpha  occ. eigenvalues --  -10.26196 -10.26140 -10.26134 -10.26028 -10.25977
 Alpha  occ. eigenvalues --  -10.25934 -10.25850 -10.25801 -10.25400 -10.25397
 Alpha  occ. eigenvalues --  -10.24873 -10.24791 -10.24746 -10.24724 -10.24690
 Alpha  occ. eigenvalues --  -10.24641  -3.16497  -3.16411  -1.91379  -1.91293
 Alpha  occ. eigenvalues --   -1.90966  -1.90882  -1.90808  -1.90718  -1.16641
 Alpha  occ. eigenvalues --   -1.16590  -1.08658  -1.08585  -1.07175  -1.06968
 Alpha  occ. eigenvalues --   -1.06943  -1.06599  -1.04539  -1.04496  -1.03719
 Alpha  occ. eigenvalues --   -1.03664  -1.03192  -1.03039  -1.02369  -1.02112
 Alpha  occ. eigenvalues --   -0.91987  -0.91930  -0.89494  -0.89477  -0.89152
 Alpha  occ. eigenvalues --   -0.89147  -0.88245  -0.88220  -0.87828  -0.87794
 Alpha  occ. eigenvalues --   -0.87684  -0.87631  -0.87233  -0.87121  -0.85000
 Alpha  occ. eigenvalues --   -0.84941  -0.83894  -0.83875  -0.82932  -0.82926
 Alpha  occ. eigenvalues --   -0.82653  -0.82607  -0.81595  -0.81544  -0.80555
 Alpha  occ. eigenvalues --   -0.80442  -0.78756  -0.78636  -0.77177  -0.77145
 Alpha  occ. eigenvalues --   -0.76898  -0.76893  -0.75882  -0.75839  -0.74857
 Alpha  occ. eigenvalues --   -0.74803  -0.72733  -0.72699  -0.71631  -0.71582
 Alpha  occ. eigenvalues --   -0.69864  -0.69756  -0.68832  -0.68828  -0.67602
 Alpha  occ. eigenvalues --   -0.67600  -0.67200  -0.67178  -0.65272  -0.65245
 Alpha  occ. eigenvalues --   -0.64812  -0.64770  -0.64654  -0.64579  -0.64227
 Alpha  occ. eigenvalues --   -0.64203  -0.62277  -0.62255  -0.60401  -0.60340
 Alpha  occ. eigenvalues --   -0.59797  -0.59763  -0.58993  -0.58946  -0.58462
 Alpha  occ. eigenvalues --   -0.58426  -0.57554  -0.57542  -0.57267  -0.57237
 Alpha  occ. eigenvalues --   -0.56268  -0.56204  -0.55936  -0.55885  -0.55479
 Alpha  occ. eigenvalues --   -0.55452  -0.55297  -0.55247  -0.54487  -0.54481
 Alpha  occ. eigenvalues --   -0.53913  -0.53854  -0.53257  -0.53228  -0.53180
 Alpha  occ. eigenvalues --   -0.53142  -0.52902  -0.52872  -0.52715  -0.52669
 Alpha  occ. eigenvalues --   -0.52398  -0.52395  -0.51884  -0.51873  -0.51659
 Alpha  occ. eigenvalues --   -0.51575  -0.51201  -0.51154  -0.50531  -0.50476
 Alpha  occ. eigenvalues --   -0.49990  -0.49981  -0.49877  -0.49867  -0.49489
 Alpha  occ. eigenvalues --   -0.49473  -0.49203  -0.49173  -0.49105  -0.49055
 Alpha  occ. eigenvalues --   -0.48558  -0.48551  -0.48420  -0.48404  -0.48376
 Alpha  occ. eigenvalues --   -0.48340  -0.47653  -0.47595  -0.47256  -0.47119
 Alpha  occ. eigenvalues --   -0.46755  -0.46709  -0.46554  -0.46514  -0.46317
 Alpha  occ. eigenvalues --   -0.46270  -0.46121  -0.46086  -0.45822  -0.45780
 Alpha  occ. eigenvalues --   -0.45209  -0.45160  -0.44536  -0.44514  -0.44476
 Alpha  occ. eigenvalues --   -0.44465  -0.44128  -0.44103  -0.44077  -0.44047
 Alpha  occ. eigenvalues --   -0.43978  -0.43940  -0.43552  -0.43453  -0.43386
 Alpha  occ. eigenvalues --   -0.43344  -0.42985  -0.42929  -0.42901  -0.42657
 Alpha  occ. eigenvalues --   -0.42612  -0.42553  -0.41967  -0.41963  -0.41669
 Alpha  occ. eigenvalues --   -0.41662  -0.41492  -0.41459  -0.41100  -0.40990
 Alpha  occ. eigenvalues --   -0.40827  -0.40782  -0.40723  -0.40699  -0.40530
 Alpha  occ. eigenvalues --   -0.40493  -0.40227  -0.40192  -0.39423  -0.39398
 Alpha  occ. eigenvalues --   -0.38427  -0.38350  -0.37706  -0.37654  -0.37279
 Alpha  occ. eigenvalues --   -0.37266  -0.37222  -0.37200  -0.36769  -0.36670
 Alpha  occ. eigenvalues --   -0.36217  -0.36150  -0.34254  -0.34244  -0.33860
 Alpha  occ. eigenvalues --   -0.33727  -0.33176  -0.33144  -0.31304  -0.31275
 Alpha  occ. eigenvalues --   -0.30994  -0.30973  -0.29987  -0.29955  -0.29408
 Alpha  occ. eigenvalues --   -0.29328  -0.29280  -0.29212  -0.24039  -0.24037
 Alpha  occ. eigenvalues --   -0.21117  -0.21086
 Alpha virt. eigenvalues --   -0.08792  -0.08733  -0.01708  -0.01684  -0.00030
 Alpha virt. eigenvalues --   -0.00017   0.02207   0.02242   0.03166   0.03229
 Alpha virt. eigenvalues --    0.04729   0.04759   0.05141   0.05167   0.06183

 Mulliken charges:
               1
     1  Mg   0.838738
     2  C   -0.002949
     3  C   -0.094112
     4  C   -0.045883
     5  C   -0.063955
     6  N   -0.256775
     7  C   -0.052476
     8  C   -0.014016
     9  C   -0.086983
    10  C    0.046321
    11  C    0.104818
    12  C    0.053459
    13  C   -0.071808
    14  H    0.036172
    15  N   -0.433125
    16  C    0.168419
    17  C   -0.177155
    18  C   -0.004010
    19  C    0.148737
    20  C    0.110182
    21  C    0.012295
    22  O   -0.249640
    23  C    0.062474
    24  N   -0.341125
    25  C    0.041242
    26  C   -0.028178
    27  C   -0.023950
    28  C    0.074840
    29  C    0.076184
    30  C    0.035109
    31  C   -0.004499
    32  N   -0.310462
    33  C    0.080430
    34  C   -0.169698
    35  C    0.008356
    36  C    0.083005
    37  C    0.127304
    38  C    0.046134
    39  O   -0.188435
    40  C   -0.005339
    41  C    0.212874
    42  O   -0.257051
    43  O   -0.304821
    44  C    0.157683
    45  H   -0.017635
    46  H   -0.016856
    47  H   -0.041487
    48  H    0.000915
    49  H   -0.004033
    50  H    0.025456
    51  H    0.016427
    52  H    0.016624
    53  H    0.011235
    54  H    0.044160
    55  H    0.017830
    56  H    0.017947
    57  H    0.005861
    58  H    0.026781
    59  H    0.039578
    60  H    0.037309
    61  H    0.035634
    62  H    0.031545
    63  H    0.016570
    64  H    0.009427
    65  H    0.023189
    66  H    0.012517
    67  H    0.004723
    68  H    0.006347
    69  H    0.004740
    70  H    0.008781
    71  H    0.018212
    72  H    0.028999
    73  H    0.047607
    74  H    0.009126
    75  H    0.045970
    76  H    0.035115
    77  H    0.042924
    78  H    0.046394
    79  H    0.053734
    80  Mg   0.837877
    81  C   -0.016805
    82  C   -0.087800
    83  C   -0.045524
    84  C   -0.064865
    85  N   -0.254582
    86  C   -0.049829
    87  C   -0.015079
    88  C   -0.090511
    89  C    0.045766
    90  C    0.114380
    91  C    0.062517
    92  C   -0.077917
    93  H    0.034953
    94  N   -0.423485
    95  C    0.162923
    96  C   -0.174638
    97  C   -0.007817
    98  C    0.152123
    99  C    0.099375
   100  C    0.015583
   101  O   -0.253188
   102  C    0.061192
   103  N   -0.350070
   104  C    0.037539
   105  C   -0.019837
   106  C   -0.034832
   107  C    0.088927
   108  C    0.073665
   109  C    0.034739
   110  C   -0.007703
   111  N   -0.324106
   112  C    0.078455
   113  C   -0.163090
   114  C    0.002248
   115  C    0.096214
   116  C    0.131467
   117  C    0.042409
   118  O   -0.187826
   119  C    0.000885
   120  C    0.211278
   121  O   -0.250980
   122  O   -0.305653
   123  C    0.152018
   124  H   -0.019675
   125  H   -0.015577
   126  H   -0.040419
   127  H   -0.000659
   128  H   -0.004316
   129  H    0.022448
   130  H    0.014407
   131  H    0.016272
   132  H    0.013935
   133  H    0.037717
   134  H    0.020769
   135  H    0.019592
   136  H    0.008756
   137  H    0.026115
   138  H    0.039813
   139  H    0.038230
   140  H    0.036385
   141  H    0.033926
   142  H    0.014429
   143  H    0.012407
   144  H    0.025132
   145  H    0.011600
   146  H    0.005662
   147  H    0.006273
   148  H    0.003696
   149  H    0.010934
   150  H    0.018060
   151  H    0.030094
   152  H    0.046079
   153  H    0.008566
   154  H    0.046916
   155  H    0.035001
   156  H    0.043918
   157  H    0.049485
   158  H    0.053628
 Sum of Mulliken charges =  -0.00000

 Dipole moment (field-independent basis, Debye):
    X=             -0.3955    Y=              7.0255    Z=             -2.7935  Tot=              7.5708
 Quadrupole moment (field-independent basis, Debye-Ang):
   XX=           -360.5575   YY=           -536.8699   ZZ=           -471.9384
   XY=            -22.2290   XZ=            -43.4008   YZ=             13.7969

 Normal termination of Gaussian 16 at Sun Sep 12 11:39:56 2021.
