 Gaussian 16, Revision A.03,
 Gaussian 16:  ES64L-G16RevA.03 25-Dec-2016

 -----------------------------------
 #p cam-b3lyp/Def2SVP td=(nstates=5)
 -----------------------------------

 --------------------------------
 TDDFT excited states in gaussian
 --------------------------------
 Symbolic Z-matrix:
 Charge =  0 Multiplicity = 1

                         Standard orientation:
 ---------------------------------------------------------------------
 Center     Atomic      Atomic             Coordinates (Angstroms)
 Number     Number       Type             X           Y           Z
 ---------------------------------------------------------------------
      1         12           0        8.015618   -0.615196    0.671098
      2          6           0        8.391578    2.225611   -1.473822
      3          6           0        8.660127    1.467970    3.295616
      4          6           0        8.138308   -3.178227    2.534548
      5          6           0        8.526994   -2.616797   -2.135635
      6          7           0        8.453087    1.552594    0.770854
      7          6           0        8.509047    2.539516   -0.117979
      8          6           0        8.628840    3.950350    0.532076
      9          6           0        9.265997    3.529368    1.931649
     10          6           0        8.733394    2.110307    2.023976
     11          6           0       10.790478    3.481879    1.917408
     12          6           0        7.234972    4.638244    0.720922
     13          6           0        7.283115    6.134747    1.042658
     14          1           0        6.246408    7.000966    0.502055
     15          7           0        7.867594   -0.780217    2.634184
     16          6           0        8.155649    0.174497    3.551153
     17          6           0        7.884496   -0.433539    4.871550
     18          6           0        7.597254   -1.878997    4.656522
     19          6           0        7.885664   -2.010914    3.251247
     20          6           0        7.866394    0.348066    6.149249
     21          6           0        7.146117   -2.970800    5.574440
     22          8           0        7.180902   -4.202835    5.234657
     23          6           0        6.740256   -2.562357    6.931456
     24          7           0        8.509594   -2.611016    0.310090
     25          6           0        8.424672   -3.529057    1.279096
     26          6           0        8.549507   -4.918334    0.727495
     27          6           0        8.494633   -4.769688   -0.861419
     28          6           0        8.425886   -3.225217   -0.951713
     29          6           0        9.818728   -5.684629    1.124837
     30          6           0        7.421660   -5.600705   -1.608787
     31          6           0        6.041581   -5.092340   -1.256588
     32          7           0        8.217833   -0.294294   -1.465997
     33          6           0        8.447210   -1.269759   -2.447081
     34          6           0        8.618874   -0.561356   -3.728785
     35          6           0        8.493097    0.786792   -3.399358
     36          6           0        8.283925    0.914018   -1.996378
     37          6           0        8.914996   -1.166219   -4.982135
     38          6           0        8.511306    2.150770   -3.902438
     39          8           0        8.555905    2.661347   -5.022624
     40          6           0        8.567906    3.143020   -2.658226
     41          6           0        7.531803    4.210819   -2.880946
     42          8           0        6.315037    3.933831   -2.869767
     43          8           0        8.118938    5.416503   -2.834685
     44          6           0        7.141254    6.522071   -3.019094
     45          1           0        9.079768    1.973769    4.167401
     46          1           0        8.079350   -4.096063    3.123222
     47          1           0        8.605575   -3.179999   -3.067344
     48          1           0        9.296634    4.636010    0.010208
     49          1           0        8.879883    4.133196    2.752642
     50          1           0       11.183986    3.620073    0.910445
     51          1           0       11.054485    2.494667    2.297152
     52          1           0       11.206948    4.197150    2.627139
     53          1           0        6.771732    4.266774    1.634968
     54          1           0        6.603824    4.477668   -0.153833
     55          1           0        8.270846    6.552973    0.846740
     56          1           0        7.145071    6.257750    2.116908
     57          1           0        8.276329    1.348016    6.012877
     58          1           0        8.562420   -0.140183    6.831063
     59          1           0        6.873194    0.378748    6.597518
     60          1           0        7.575756   -2.062257    7.421752
     61          1           0        6.364138   -3.462411    7.416521
     62          1           0        5.942955   -1.822597    6.853898
     63          1           0        7.721900   -5.545494    1.056377
     64          1           0        9.433357   -5.062546   -1.332276
     65          1           0        9.619286   -6.635750    1.619101
     66          1           0       10.421108   -5.033701    1.757864
     67          1           0       10.506782   -5.886078    0.304217
     68          1           0        7.467464   -6.644486   -1.299967
     69          1           0        7.531870   -5.570437   -2.692848
     70          1           0        5.825791   -5.603516   -0.319056
     71          1           0        5.324298   -5.373209   -2.028487
     72          1           0        6.052496   -4.022127   -1.049194
     73          1           0        8.274987   -0.676476   -5.715967
     74          1           0        8.736354   -2.240912   -4.955212
     75          1           0        9.972437   -0.921016   -5.079866
     76          1           0        9.577414    3.551875   -2.629015
     77          1           0        7.492028    7.124276   -3.857272
     78          1           0        7.041566    7.012344   -2.050539
     79          1           0        6.150168    6.235188   -3.372344
     80         12           0       -7.793367   -0.672747   -0.685563
     81          6           0       -9.442247    1.671986    1.473709
     82          6           0       -7.184617    1.932065   -2.801920
     83          6           0       -6.735685   -2.776995   -2.811802
     84          6           0       -9.495833   -3.206574    0.995817
     85          7           0       -8.297544    1.477686   -0.568581
     86          6           0       -8.871960    2.265236    0.328171
     87          6           0       -8.762343    3.781920    0.016390
     88          6           0       -8.563766    3.686685   -1.574321
     89          6           0       -7.943521    2.293629   -1.660242
     90          6           0       -9.873632    3.674643   -2.344677
     91          6           0       -7.522588    4.446905    0.711229
     92          6           0       -7.525798    5.977172    0.704682
     93          1           0       -6.976241    6.679306    1.861158
     94          7           0       -6.648188   -0.416446   -2.286014
     95          6           0       -6.501940    0.713379   -3.009463
     96          6           0       -5.567114    0.378008   -4.094731
     97          6           0       -5.301663   -1.085622   -4.049640
     98          6           0       -6.255229   -1.495427   -3.038277
     99          6           0       -4.959141    1.414574   -4.994357
    100          6           0       -4.356172   -1.971905   -4.802463
    101          8           0       -4.461302   -3.248948   -4.771551
    102          6           0       -3.361914   -1.299010   -5.651077
    103          7           0       -8.231206   -2.676742   -1.024141
    104          6           0       -7.590806   -3.372353   -1.980144
    105          6           0       -7.868261   -4.851616   -1.856879
    106          6           0       -8.637944   -5.029950   -0.466425
    107          6           0       -8.756208   -3.547213   -0.050645
    108          6           0       -8.699812   -5.468443   -2.981344
    109          6           0       -8.031690   -6.036412    0.549535
    110          6           0       -6.705612   -5.519606    1.059247
    111          7           0       -9.068680   -0.801004    1.053740
    112          6           0       -9.695849   -1.956878    1.568212
    113          6           0      -10.552323   -1.524117    2.691420
    114          6           0      -10.380424   -0.132437    2.738168
    115          6           0       -9.496059    0.275890    1.703435
    116          6           0      -11.386392   -2.370078    3.475511
    117          6           0      -10.754287    1.085295    3.420851
    118          8           0      -11.408194    1.350467    4.428736
    119          6           0      -10.262305    2.322664    2.552941
    120          6           0       -9.568646    3.289143    3.473412
    121          8           0       -8.506850    2.972752    4.038310
    122          8           0      -10.152439    4.496593    3.365598
    123          6           0       -9.492231    5.492127    4.251523
    124          1           0       -7.140776    2.630341   -3.638212
    125          1           0       -6.314841   -3.557860   -3.449469
    126          1           0       -9.982513   -3.948158    1.632901
    127          1           0       -9.650414    4.358298    0.246386
    128          1           0       -7.864115    4.438230   -1.930727
    129          1           0      -10.727542    3.612823   -1.686536
    130          1           0       -9.828384    2.805917   -2.988345
    131          1           0       -9.927288    4.540675   -3.010597
    132          1           0       -6.627920    4.258301    0.103984
    133          1           0       -7.412575    4.090087    1.716809
    134          1           0       -8.507860    6.386158    0.437782
    135          1           0       -6.865548    6.322149   -0.094736
    136          1           0       -5.468789    2.381051   -4.896395
    137          1           0       -5.163077    1.103164   -6.024556
    138          1           0       -3.879279    1.507440   -4.860430
    139          1           0       -3.872969   -0.680395   -6.384977
    140          1           0       -2.721039   -2.094148   -6.036988
    141          1           0       -2.769675   -0.621403   -5.026009
    142          1           0       -6.944910   -5.416714   -1.822422
    143          1           0       -9.664052   -5.398019   -0.612994
    144          1           0       -8.192283   -6.311092   -3.487737
    145          1           0       -8.944515   -4.689781   -3.691505
    146          1           0       -9.683630   -5.827823   -2.684428
    147          1           0       -7.825114   -6.991071    0.059540
    148          1           0       -8.681071   -6.241732    1.394007
    149          1           0       -6.003886   -5.828420    0.278672
    150          1           0       -6.458409   -5.976387    2.015425
    151          1           0       -6.697663   -4.424010    1.094993
    152          1           0      -11.254123   -2.069020    4.506231
    153          1           0      -11.136113   -3.419101    3.331685
    154          1           0      -12.365297   -2.120576    3.057474
    155          1           0      -11.142282    2.764131    2.083566
    156          1           0      -10.272113    5.918278    4.890170
    157          1           0       -8.959481    6.186873    3.575325
    158          1           0       -8.793491    5.119212    4.991220
 ---------------------------------------------------------------------

 SCF Done:  E(RCAM-B3LYP) =  -4069.81195241     A.U. after   19 cycles

 Excitation energies and oscillator strengths:

 Excited State   1:      Singlet-A      1.6702 eV  742.34 nm  f=0.0730  <S**2>=0.000
     309 -> 315        0.10535
     310 -> 316       -0.13696
     311 -> 313        0.41722
     312 -> 314        0.54497
 This state for optimization and/or second-order correction.
 Total Energy, E(TD-HF/TD-DFT) =  -4069.75057428
 Copying the excited state density for this state as the 1-particle RhoCI density.

 Excited State   2:      Singlet-A      1.6854 eV  735.64 nm  f=0.6896  <S**2>=0.000
     309 -> 315        0.14059
     310 -> 316        0.10712
     311 -> 313        0.54418
     312 -> 314       -0.41674

 Excited State   3:      Singlet-A      2.1868 eV  566.98 nm  f=0.0571  <S**2>=0.000
     309 -> 313        0.14356
     310 -> 314        0.62629
     312 -> 316        0.26655

 Excited State   4:      Singlet-A      2.1933 eV  565.29 nm  f=0.1363  <S**2>=0.000
     309 -> 313        0.62453
     310 -> 314       -0.14265
     311 -> 315       -0.27164

 Excited State   5:      Singlet-A      2.7935 eV  443.82 nm  f=0.0000  <S**2>=0.000
     312 -> 313        0.70708

 The electronic state is 1-A.
 Alpha  occ. eigenvalues --  -46.87778 -46.87583 -19.26327 -19.26314 -19.19120
 Alpha  occ. eigenvalues --  -19.19060 -19.18776 -19.18599 -19.18174 -19.17988
 Alpha  occ. eigenvalues --  -14.42434 -14.42421 -14.41429 -14.41284 -14.39382
 Alpha  occ. eigenvalues --  -14.39270 -14.38572 -14.38525 -10.39116 -10.39048
 Alpha  occ. eigenvalues --  -10.35407 -10.35272 -10.34396 -10.34167 -10.31737
 Alpha  occ. eigenvalues --  -10.31733 -10.31395 -10.31239 -10.30942 -10.30894
 Alpha  occ. eigenvalues --  -10.30556 -10.30489 -10.30321 -10.30287 -10.30178
 Alpha  occ. eigenvalues --  -10.30058 -10.29901 -10.29826 -10.29612 -10.29350
 Alpha  occ. eigenvalues --  -10.29317 -10.29231 -10.28748 -10.28653 -10.28604
 Alpha  occ. eigenvalues --  -10.28556 -10.28350 -10.28325 -10.28110 -10.28072
 Alpha  occ. eigenvalues --  -10.27921 -10.27778 -10.27710 -10.27590 -10.27562
 Alpha  occ. eigenvalues --  -10.27465 -10.27450 -10.27445 -10.27416 -10.27409
 Alpha  occ. eigenvalues --  -10.27391 -10.27376 -10.27330 -10.27310 -10.27168
 Alpha  occ. eigenvalues --  -10.26992 -10.26713 -10.26631 -10.26352 -10.26247
 Alpha  occ. eigenvalues --  -10.26227 -10.26136 -10.26075 -10.25997 -10.25962
 Alpha  occ. eigenvalues --  -10.25859 -10.25839 -10.25794 -10.25403 -10.25337
 Alpha  occ. eigenvalues --  -10.24821 -10.24796 -10.24767 -10.24665 -10.24627
 Alpha  occ. eigenvalues --  -10.24614  -3.16521  -3.16333  -1.91402  -1.91215
 Alpha  occ. eigenvalues --   -1.90989  -1.90831  -1.90804  -1.90641  -1.16674
 Alpha  occ. eigenvalues --   -1.16606  -1.08636  -1.08599  -1.07175  -1.06904
 Alpha  occ. eigenvalues --   -1.06850  -1.06682  -1.04566  -1.04419  -1.03741
 Alpha  occ. eigenvalues --   -1.03586  -1.03215  -1.02962  -1.02393  -1.02035
 Alpha  occ. eigenvalues --   -0.91965  -0.91916  -0.89492  -0.89423  -0.89183
 Alpha  occ. eigenvalues --   -0.89084  -0.88258  -0.88151  -0.87859  -0.87723
 Alpha  occ. eigenvalues --   -0.87658  -0.87609  -0.87244  -0.87010  -0.84974
 Alpha  occ. eigenvalues --   -0.84929  -0.83908  -0.83809  -0.82928  -0.82820
 Alpha  occ. eigenvalues --   -0.82637  -0.82568  -0.81595  -0.81539  -0.80589
 Alpha  occ. eigenvalues --   -0.80371  -0.78774  -0.78542  -0.77201  -0.77069
 Alpha  occ. eigenvalues --   -0.76931  -0.76837  -0.75922  -0.75772  -0.74876
 Alpha  occ. eigenvalues --   -0.74736  -0.72757  -0.72624  -0.71658  -0.71511
 Alpha  occ. eigenvalues --   -0.69870  -0.69690  -0.68862  -0.68753  -0.67626
 Alpha  occ. eigenvalues --   -0.67525  -0.67209  -0.67117  -0.65281  -0.65204
 Alpha  occ. eigenvalues --   -0.64846  -0.64700  -0.64611  -0.64587  -0.64244
 Alpha  occ. eigenvalues --   -0.64134  -0.62311  -0.62224  -0.60413  -0.60243
 Alpha  occ. eigenvalues --   -0.59795  -0.59725  -0.58973  -0.58921  -0.58491
 Alpha  occ. eigenvalues --   -0.58354  -0.57593  -0.57496  -0.57291  -0.57158
 Alpha  occ. eigenvalues --   -0.56297  -0.56126  -0.55997  -0.55829  -0.55500
 Alpha  occ. eigenvalues --   -0.55365  -0.55327  -0.55185  -0.54520  -0.54429
 Alpha  occ. eigenvalues --   -0.53890  -0.53844  -0.53279  -0.53209  -0.53148
 Alpha  occ. eigenvalues --   -0.53061  -0.52913  -0.52834  -0.52730  -0.52554
 Alpha  occ. eigenvalues --   -0.52401  -0.52334  -0.51908  -0.51822  -0.51608
 Alpha  occ. eigenvalues --   -0.51577  -0.51187  -0.51135  -0.50531  -0.50351
 Alpha  occ. eigenvalues --   -0.49999  -0.49893  -0.49892  -0.49788  -0.49500
 Alpha  occ. eigenvalues --   -0.49395  -0.49205  -0.49122  -0.49091  -0.49038
 Alpha  occ. eigenvalues --   -0.48593  -0.48493  -0.48442  -0.48422  -0.48311
 Alpha  occ. eigenvalues --   -0.48235  -0.47678  -0.47514  -0.47278  -0.47032
 Alpha  occ. eigenvalues --   -0.46779  -0.46639  -0.46550  -0.46481  -0.46343
 Alpha  occ. eigenvalues --   -0.46193  -0.46152  -0.46020  -0.45827  -0.45765
 Alpha  occ. eigenvalues --   -0.45175  -0.45139  -0.44576  -0.44482  -0.44448
 Alpha  occ. eigenvalues --   -0.44401  -0.44124  -0.44077  -0.44055  -0.44007
 Alpha  occ. eigenvalues --   -0.44001  -0.43842  -0.43501  -0.43499  -0.43370
 Alpha  occ. eigenvalues --   -0.43317  -0.43015  -0.42876  -0.42836  -0.42720
 Alpha  occ. eigenvalues --   -0.42630  -0.42477  -0.41990  -0.41897  -0.41693
 Alpha  occ. eigenvalues --   -0.41600  -0.41525  -0.41389  -0.41127  -0.40919
 Alpha  occ. eigenvalues --   -0.40854  -0.40791  -0.40644  -0.40603  -0.40546
 Alpha  occ. eigenvalues --   -0.40426  -0.40232  -0.40150  -0.39400  -0.39357
 Alpha  occ. eigenvalues --   -0.38443  -0.38283  -0.37747  -0.37590  -0.37296
 Alpha  occ. eigenvalues --   -0.37257  -0.37196  -0.37127  -0.36731  -0.36725
 Alpha  occ. eigenvalues --   -0.36189  -0.36154  -0.34270  -0.34180  -0.33814
 Alpha  occ. eigenvalues --   -0.33800  -0.33172  -0.33100  -0.31306  -0.31161
 Alpha  occ. eigenvalues --   -0.31019  -0.30896  -0.30035  -0.29895  -0.29428
 Alpha  occ. eigenvalues --   -0.29308  -0.29238  -0.29134  -0.24064  -0.23961
 Alpha  occ. eigenvalues --   -0.21109  -0.21039
 Alpha virt. eigenvalues --   -0.08756  -0.08711  -0.01728  -0.01604  -0.00034
 Alpha virt. eigenvalues --    0.00066   0.02209   0.02279   0.03144   0.03308
 Alpha virt. eigenvalues --    0.04728   0.04799   0.05067   0.05211   0.06170

 Mulliken charges:
               1
     1  Mg   0.838758
     2  C   -0.003132
     3  C   -0.094112
     4  C   -0.045720
     5  C   -0.063842
     6  N   -0.256804
     7  C   -0.052573
     8  C   -0.014021
     9  C   -0.087032
    10  C    0.046374
    11  C    0.104801
    12  C    0.053461
    13  C   -0.071674
    14  H    0.035555
    15  N   -0.433180
    16  C    0.168562
    17  C   -0.177007
    18  C   -0.003793
    19  C    0.148782
    20  C    0.110143
    21  C    0.012505
    22  O   -0.249426
    23  C    0.062357
    24  N   -0.341135
    25  C    0.041313
    26  C   -0.028220
    27  C   -0.023965
    28  C    0.074816
    29  C    0.076165
    30  C    0.035091
    31  C   -0.004571
    32  N   -0.310366
    33  C    0.080253
    34  C   -0.169872
    35  C    0.008146
    36  C    0.082868
    37  C    0.127373
    38  C    0.045829
    39  O   -0.188988
    40  C   -0.005247
    41  C    0.212827
    42  O   -0.257578
    43  O   -0.304638
    44  C    0.157916
    45  H   -0.017538
    46  H   -0.016641
    47  H   -0.041480
    48  H    0.000790
    49  H   -0.003975
    50  H    0.025406
    51  H    0.016537
    52  H    0.016680
    53  H    0.011426
    54  H    0.043784
    55  H    0.017874
    56  H    0.018176
    57  H    0.005859
    58  H    0.026918
    59  H    0.039999
    60  H    0.037287
    61  H    0.035947
    62  H    0.031879
    63  H    0.016805
    64  H    0.009389
    65  H    0.023337
    66  H    0.012481
    67  H    0.004730
    68  H    0.006485
    69  H    0.004674
    70  H    0.009006
    71  H    0.018595
    72  H    0.028778
    73  H    0.047168
    74  H    0.009225
    75  H    0.045940
    76  H    0.035120
    77  H    0.042776
    78  H    0.046506
    79  H    0.053056
    80  Mg   0.837867
    81  C   -0.016888
    82  C   -0.087566
    83  C   -0.045481
    84  C   -0.064921
    85  N   -0.254576
    86  C   -0.050006
    87  C   -0.015108
    88  C   -0.090531
    89  C    0.045784
    90  C    0.114376
    91  C    0.062457
    92  C   -0.077761
    93  H    0.034387
    94  N   -0.423586
    95  C    0.163094
    96  C   -0.174285
    97  C   -0.007502
    98  C    0.152191
    99  C    0.099211
   100  C    0.015780
   101  O   -0.253362
   102  C    0.061015
   103  N   -0.350051
   104  C    0.037578
   105  C   -0.019837
   106  C   -0.034715
   107  C    0.088769
   108  C    0.073702
   109  C    0.034769
   110  C   -0.007654
   111  N   -0.324000
   112  C    0.078218
   113  C   -0.163366
   114  C    0.002070
   115  C    0.096069
   116  C    0.131541
   117  C    0.042175
   118  O   -0.188373
   119  C    0.000986
   120  C    0.211196
   121  O   -0.251151
   122  O   -0.305605
   123  C    0.152151
   124  H   -0.019478
   125  H   -0.015530
   126  H   -0.040694
   127  H   -0.000860
   128  H   -0.004150
   129  H    0.022316
   130  H    0.014463
   131  H    0.016273
   132  H    0.014267
   133  H    0.037501
   134  H    0.020660
   135  H    0.019815
   136  H    0.008755
   137  H    0.026276
   138  H    0.041327
   139  H    0.038282
   140  H    0.036718
   141  H    0.035223
   142  H    0.014450
   143  H    0.012225
   144  H    0.025094
   145  H    0.011653
   146  H    0.005524
   147  H    0.006126
   148  H    0.003469
   149  H    0.011029
   150  H    0.017812
   151  H    0.030200
   152  H    0.045723
   153  H    0.008372
   154  H    0.046721
   155  H    0.034862
   156  H    0.043691
   157  H    0.049486
   158  H    0.053337
 Sum of Mulliken charges =  -0.00000

 Dipole moment (field-independent basis, Debye):
    X=              2.3201    Y=              3.1042    Z=              0.1978  Tot=              3.8805
 Quadrupole moment (field-independent basis, Debye-Ang):
   XX=           -503.1000   YY=           -461.9458   ZZ=           -530.3230
   XY=              6.2321   XZ=             72.3803   YZ=             12.9997

 Normal termination of Gaussian 16 at Sat Sep 11 20:55:22 2021.
