 Gaussian 16, Revision A.03,
 Gaussian 16:  ES64L-G16RevA.03 25-Dec-2016

 -----------------------------------
 #p cam-b3lyp/Def2SVP td=(nstates=5)
 -----------------------------------

 --------------------------------
 TDDFT excited states in gaussian
 --------------------------------
 Symbolic Z-matrix:
 Charge =  0 Multiplicity = 1

                         Standard orientation:
 ---------------------------------------------------------------------
 Center     Atomic      Atomic             Coordinates (Angstroms)
 Number     Number       Type             X           Y           Z
 ---------------------------------------------------------------------
      1         12           0       -5.168863   -0.863478    0.052893
      2          6           0       -5.432798    2.699228    0.275778
      3          6           0       -6.031084   -0.572626   -3.235731
      4          6           0       -5.386241   -4.025313   -0.057399
      5          6           0       -5.447589   -0.953654    3.525621
      6          7           0       -5.644909    0.894616   -1.205333
      7          6           0       -5.651854    2.210100   -1.013956
      8          6           0       -5.839136    3.024719   -2.328754
      9          6           0       -6.568566    1.914810   -3.210817
     10          6           0       -6.022669    0.669628   -2.534471
     11          6           0       -8.087218    1.925017   -3.069072
     12          6           0       -4.472892    3.453296   -2.962338
     13          6           0       -4.566473    4.519539   -4.057656
     14          1           0       -3.506829    5.511327   -4.161856
     15          7           0       -5.159460   -2.095230   -1.491629
     16          6           0       -5.526824   -1.803336   -2.762506
     17          6           0       -5.341894   -3.049592   -3.536668
     18          6           0       -5.018273   -4.139244   -2.574367
     19          6           0       -5.203201   -3.460297   -1.317303
     20          6           0       -5.427176   -3.110345   -5.030919
     21          6           0       -4.617720   -5.568871   -2.758365
     22          8           0       -4.609528   -6.403033   -1.789509
     23          6           0       -4.316357   -5.994422   -4.137179
     24          7           0       -5.605622   -2.308007    1.495187
     25          6           0       -5.576574   -3.611579    1.197130
     26          6           0       -5.640645   -4.456277    2.434999
     27          6           0       -5.474267   -3.451555    3.664880
     28          6           0       -5.422460   -2.119754    2.876278
     29          6           0       -6.923413   -5.279070    2.618110
     30          6           0       -4.338110   -3.756372    4.673171
     31          6           0       -2.994626   -3.567361    4.005021
     32          7           0       -5.222184    0.595972    1.658573
     33          6           0       -5.365955    0.336625    3.029246
     34          6           0       -5.455945    1.642070    3.708793
     35          6           0       -5.374392    2.575987    2.677777
     36          6           0       -5.268255    1.896586    1.430603
     37          6           0       -5.652340    1.843792    5.103487
     38          6           0       -5.377007    3.989488    2.337387
     39          8           0       -5.348875    5.037320    2.984495
     40          6           0       -5.537557    4.124440    0.758831
     41          6           0       -4.504332    5.107173    0.279259
     42          8           0       -3.287469    4.837442    0.341362
     43          8           0       -5.111338    6.099533   -0.389551
     44          6           0       -4.139689    7.093972   -0.917891
     45          1           0       -6.519690   -0.625095   -4.210642
     46          1           0       -5.355831   -5.116718   -0.038740
     47          1           0       -5.450708   -0.901952    4.615928
     48          1           0       -6.478043    3.902740   -2.232312
     49          1           0       -6.251415    1.949952   -4.252883
     50          1           0       -8.409574    2.610042   -2.285013
     51          1           0       -8.362888    0.900873   -2.816827
     52          1           0       -8.564197    2.136567   -4.026419
     53          1           0       -4.070824    2.624116   -3.544458
     54          1           0       -3.778326    3.788516   -2.191279
     55          1           0       -5.543799    5.002998   -4.060807
     56          1           0       -4.507647    4.021197   -5.025331
     57          1           0       -5.841274   -2.192354   -5.446082
     58          1           0       -6.162859   -3.875804   -5.276990
     59          1           0       -4.469234   -3.361081   -5.486782
     60          1           0       -5.192276   -5.828306   -4.764650
     61          1           0       -3.962480   -7.022179   -4.064119
     62          1           0       -3.526763   -5.358404   -4.538392
     63          1           0       -4.829401   -5.182850    2.455045
     64          1           0       -6.372317   -3.407642    4.281526
     65          1           0       -6.745629   -6.349535    2.723943
     66          1           0       -7.579337   -5.073286    1.772706
     67          1           0       -7.547771   -4.971753    3.456651
     68          1           0       -4.390228   -4.794103    5.000803
     69          1           0       -4.370778   -3.125967    5.561864
     70          1           0       -2.838926   -4.518911    3.497930
     71          1           0       -2.219718   -3.391609    4.751909
     72          1           0       -3.036472   -2.792883    3.238915
     73          1           0       -4.968817    2.640924    5.395624
     74          1           0       -5.459945    0.930825    5.666584
     75          1           0       -6.703624    2.130825    5.119935
     76          1           0       -6.552597    4.475643    0.575874
     77          1           0       -4.438501    8.069674   -0.534549
     78          1           0       -4.117064    6.960614   -1.999607
     79          1           0       -3.121631    7.024652   -0.533066
     80         12           0        5.420618   -0.681134    0.104495
     81          6           0        4.841911    2.855800    0.289477
     82          6           0        4.857805   -0.446712   -3.251527
     83          6           0        5.479132   -3.850825   -0.026181
     84          6           0        4.810390   -0.819899    3.532913
     85          7           0        4.923689    1.037622   -1.195972
     86          6           0        4.790155    2.344101   -1.023885
     87          6           0        4.670017    3.157326   -2.340623
     88          6           0        4.117000    1.989904   -3.294649
     89          6           0        4.694396    0.780926   -2.561389
     90          6           0        2.601791    1.873980   -3.287498
     91          6           0        6.056658    3.697306   -2.838286
     92          6           0        5.976651    4.753911   -3.942346
     93          1           0        6.962859    5.830859   -3.947872
     94          7           0        5.684765   -1.898124   -1.440735
     95          6           0        5.425986   -1.633442   -2.738519
     96          6           0        5.769991   -2.859282   -3.475505
     97          6           0        6.096888   -3.923930   -2.488390
     98          6           0        5.738284   -3.256927   -1.252829
     99          6           0        5.843563   -2.914355   -4.973831
    100          6           0        6.630343   -5.316971   -2.633504
    101          8           0        6.613336   -6.149423   -1.659049
    102          6           0        7.087309   -5.707535   -3.975194
    103          7           0        4.973648   -2.158226    1.497611
    104          6           0        5.133866   -3.459795    1.200687
    105          6           0        5.016553   -4.319669    2.436514
    106          6           0        4.984479   -3.299871    3.668000
    107          6           0        4.999611   -1.964874    2.891509
    108          6           0        3.791132   -5.231167    2.498846
    109          6           0        6.038892   -3.515522    4.787988
    110          6           0        7.423821   -3.225500    4.255751
    111          7           0        5.099005    0.754845    1.686439
    112          6           0        4.836594    0.480971    3.046662
    113          6           0        4.574783    1.775393    3.708761
    114          6           0        4.681219    2.717853    2.674876
    115          6           0        4.967796    2.055497    1.450688
    116          6           0        4.238377    1.955318    5.080103
    117          6           0        4.605812    4.121428    2.338739
    118          8           0        4.478398    5.162924    2.981225
    119          6           0        4.581518    4.261336    0.755632
    120          6           0        5.573754    5.323240    0.367890
    121          8           0        6.790323    5.152317    0.561128
    122          8           0        4.948295    6.265794   -0.360645
    123          6           0        5.893569    7.335335   -0.778236
    124          1           0        4.477151   -0.523790   -4.270383
    125          1           0        5.595756   -4.936564    0.006027
    126          1           0        4.708905   -0.769105    4.619092
    127          1           0        3.961336    3.976065   -2.305818
    128          1           0        4.536116    2.065247   -4.294657
    129          1           0        2.151739    2.520599   -2.548942
    130          1           0        2.387134    0.837201   -3.063767
    131          1           0        2.205207    2.054142   -4.290790
    132          1           0        6.578429    2.898197   -3.380441
    133          1           0        6.635139    4.075113   -2.017773
    134          1           0        4.963656    5.159901   -4.051711
    135          1           0        6.176265    4.269578   -4.901301
    136          1           0        5.390379   -2.026464   -5.431724
    137          1           0        5.202886   -3.742675   -5.295194
    138          1           0        6.857578   -3.089409   -5.339603
    139          1           0        6.266113   -5.604699   -4.680542
    140          1           0        7.515675   -6.704988   -3.859163
    141          1           0        7.867456   -5.008366   -4.296373
    142          1           0        5.877902   -4.968158    2.539611
    143          1           0        4.025592   -3.339992    4.205383
    144          1           0        4.048100   -6.300022    2.623706
    145          1           0        3.209097   -5.082612    1.599007
    146          1           0        3.073808   -4.987762    3.280764
    147          1           0        6.042202   -4.560083    5.108973
    148          1           0        5.862932   -2.908262    5.669608
    149          1           0        7.700521   -4.162908    3.764028
    150          1           0        8.105910   -2.990825    5.070445
    151          1           0        7.394263   -2.445666    3.485926
    152          1           0        4.816299    2.798520    5.434400
    153          1           0        4.444614    1.058776    5.661009
    154          1           0        3.166205    2.150949    4.993865
    155          1           0        3.564008    4.526351    0.465749
    156          1           0        5.476464    8.284760   -0.428529
    157          1           0        6.020080    7.212541   -1.870322
    158          1           0        6.871830    7.349644   -0.312135
 ---------------------------------------------------------------------

 SCF Done:  E(RCAM-B3LYP) =  -4069.81133089     A.U. after   19 cycles

 Excitation energies and oscillator strengths:

 Excited State   1:      Singlet-A      1.6567 eV  748.36 nm  f=0.0059  <S**2>=0.000
     309 -> 315       -0.11404
     310 -> 316        0.12494
     311 -> 313       -0.46140
     312 -> 314        0.50918
 This state for optimization and/or second-order correction.
 Total Energy, E(TD-HF/TD-DFT) =  -4069.75044673
 Copying the excited state density for this state as the 1-particle RhoCI density.

 Excited State   2:      Singlet-A      1.6972 eV  730.50 nm  f=0.7145  <S**2>=0.000
     309 -> 315        0.13348
     310 -> 316        0.12007
     311 -> 313        0.50727
     312 -> 314        0.45976

 Excited State   3:      Singlet-A      2.1828 eV  568.00 nm  f=0.0204  <S**2>=0.000
     309 -> 313       -0.28261
     310 -> 314        0.57860
     311 -> 315        0.11804
     312 -> 316       -0.24322

 Excited State   4:      Singlet-A      2.1947 eV  564.92 nm  f=0.1605  <S**2>=0.000
     309 -> 313        0.57499
     310 -> 314        0.27941
     311 -> 315       -0.25230
     312 -> 316       -0.12356

 Excited State   5:      Singlet-A      2.4869 eV  498.55 nm  f=0.0000  <S**2>=0.000
     312 -> 313        0.70709

 The electronic state is 1-A.
 Alpha  occ. eigenvalues --  -46.87856 -46.87478 -19.26301 -19.26142 -19.19036
 Alpha  occ. eigenvalues --  -19.18956 -19.18867 -19.18566 -19.18188 -19.17805
 Alpha  occ. eigenvalues --  -14.42514 -14.42318 -14.41508 -14.41179 -14.39462
 Alpha  occ. eigenvalues --  -14.39173 -14.38639 -14.38406 -10.39099 -10.38879
 Alpha  occ. eigenvalues --  -10.35502 -10.35247 -10.34410 -10.33979 -10.31688
 Alpha  occ. eigenvalues --  -10.31580 -10.31465 -10.31117 -10.30977 -10.30848
 Alpha  occ. eigenvalues --  -10.30624 -10.30558 -10.30270 -10.30207 -10.30166
 Alpha  occ. eigenvalues --  -10.29984 -10.29970 -10.29705 -10.29683 -10.29314
 Alpha  occ. eigenvalues --  -10.29268 -10.29215 -10.28837 -10.28679 -10.28544
 Alpha  occ. eigenvalues --  -10.28541 -10.28419 -10.28213 -10.28197 -10.27969
 Alpha  occ. eigenvalues --  -10.27841 -10.27807 -10.27791 -10.27640 -10.27568
 Alpha  occ. eigenvalues --  -10.27562 -10.27503 -10.27499 -10.27459 -10.27374
 Alpha  occ. eigenvalues --  -10.27356 -10.27292 -10.27289 -10.27220 -10.27190
 Alpha  occ. eigenvalues --  -10.26830 -10.26791 -10.26550 -10.26476 -10.26308
 Alpha  occ. eigenvalues --  -10.26303 -10.26257 -10.26078 -10.26015 -10.25862
 Alpha  occ. eigenvalues --  -10.25831 -10.25761 -10.25615 -10.25481 -10.25241
 Alpha  occ. eigenvalues --  -10.24877 -10.24842 -10.24778 -10.24668 -10.24611
 Alpha  occ. eigenvalues --  -10.24507  -3.16599  -3.16228  -1.91480  -1.91110
 Alpha  occ. eigenvalues --   -1.91067  -1.90909  -1.90699  -1.90536  -1.16649
 Alpha  occ. eigenvalues --   -1.16436  -1.08642  -1.08405  -1.07267  -1.06821
 Alpha  occ. eigenvalues --   -1.06738  -1.06658  -1.04644  -1.04312  -1.03819
 Alpha  occ. eigenvalues --   -1.03482  -1.03289  -1.02857  -1.02467  -1.01925
 Alpha  occ. eigenvalues --   -0.92021  -0.91781  -0.89579  -0.89327  -0.89271
 Alpha  occ. eigenvalues --   -0.88980  -0.88346  -0.88060  -0.87912  -0.87741
 Alpha  occ. eigenvalues --   -0.87588  -0.87510  -0.87337  -0.86968  -0.85061
 Alpha  occ. eigenvalues --   -0.84833  -0.83994  -0.83717  -0.83030  -0.82793
 Alpha  occ. eigenvalues --   -0.82716  -0.82488  -0.81627  -0.81405  -0.80649
 Alpha  occ. eigenvalues --   -0.80262  -0.78856  -0.78466  -0.77285  -0.77000
 Alpha  occ. eigenvalues --   -0.76979  -0.76727  -0.75979  -0.75655  -0.74952
 Alpha  occ. eigenvalues --   -0.74634  -0.72828  -0.72514  -0.71728  -0.71400
 Alpha  occ. eigenvalues --   -0.69974  -0.69612  -0.68945  -0.68660  -0.67695
 Alpha  occ. eigenvalues --   -0.67422  -0.67307  -0.67050  -0.65359  -0.65095
 Alpha  occ. eigenvalues --   -0.64906  -0.64679  -0.64591  -0.64476  -0.64328
 Alpha  occ. eigenvalues --   -0.64039  -0.62332  -0.62088  -0.60502  -0.60179
 Alpha  occ. eigenvalues --   -0.59876  -0.59618  -0.59042  -0.58810  -0.58555
 Alpha  occ. eigenvalues --   -0.58239  -0.57618  -0.57359  -0.57331  -0.57058
 Alpha  occ. eigenvalues --   -0.56362  -0.56024  -0.56019  -0.55704  -0.55576
 Alpha  occ. eigenvalues --   -0.55387  -0.55283  -0.55072  -0.54566  -0.54313
 Alpha  occ. eigenvalues --   -0.53976  -0.53745  -0.53355  -0.53288  -0.53058
 Alpha  occ. eigenvalues --   -0.52971  -0.52964  -0.52827  -0.52727  -0.52526
 Alpha  occ. eigenvalues --   -0.52504  -0.52257  -0.51946  -0.51692  -0.51662
 Alpha  occ. eigenvalues --   -0.51498  -0.51245  -0.51011  -0.50645  -0.50345
 Alpha  occ. eigenvalues --   -0.50098  -0.49983  -0.49821  -0.49711  -0.49580
 Alpha  occ. eigenvalues --   -0.49326  -0.49264  -0.49160  -0.49018  -0.48912
 Alpha  occ. eigenvalues --   -0.48639  -0.48515  -0.48489  -0.48372  -0.48210
 Alpha  occ. eigenvalues --   -0.48170  -0.47757  -0.47431  -0.47353  -0.46960
 Alpha  occ. eigenvalues --   -0.46859  -0.46634  -0.46540  -0.46413  -0.46393
 Alpha  occ. eigenvalues --   -0.46207  -0.46101  -0.45897  -0.45859  -0.45621
 Alpha  occ. eigenvalues --   -0.45257  -0.45040  -0.44619  -0.44579  -0.44334
 Alpha  occ. eigenvalues --   -0.44304  -0.44205  -0.44161  -0.44065  -0.43949
 Alpha  occ. eigenvalues --   -0.43918  -0.43761  -0.43534  -0.43454  -0.43371
 Alpha  occ. eigenvalues --   -0.43208  -0.43079  -0.42747  -0.42744  -0.42701
 Alpha  occ. eigenvalues --   -0.42695  -0.42399  -0.42075  -0.41805  -0.41754
 Alpha  occ. eigenvalues --   -0.41614  -0.41466  -0.41298  -0.41200  -0.40947
 Alpha  occ. eigenvalues --   -0.40891  -0.40811  -0.40633  -0.40576  -0.40545
 Alpha  occ. eigenvalues --   -0.40339  -0.40330  -0.40081  -0.39513  -0.39284
 Alpha  occ. eigenvalues --   -0.38536  -0.38193  -0.37843  -0.37502  -0.37382
 Alpha  occ. eigenvalues --   -0.37338  -0.37101  -0.37027  -0.36745  -0.36580
 Alpha  occ. eigenvalues --   -0.36240  -0.36043  -0.34342  -0.34068  -0.33794
 Alpha  occ. eigenvalues --   -0.33659  -0.33239  -0.32992  -0.31397  -0.31124
 Alpha  occ. eigenvalues --   -0.31091  -0.30789  -0.30047  -0.29706  -0.29503
 Alpha  occ. eigenvalues --   -0.29366  -0.29151  -0.29004  -0.24137  -0.23848
 Alpha  occ. eigenvalues --   -0.21185  -0.20935
 Alpha virt. eigenvalues --   -0.08829  -0.08606  -0.01808  -0.01507  -0.00114
 Alpha virt. eigenvalues --    0.00142   0.02163   0.02423   0.03044   0.03396
 Alpha virt. eigenvalues --    0.04642   0.04901   0.05076   0.05377   0.06075

 Mulliken charges:
               1
     1  Mg   0.838555
     2  C   -0.003053
     3  C   -0.094698
     4  C   -0.045722
     5  C   -0.063947
     6  N   -0.256685
     7  C   -0.052680
     8  C   -0.013862
     9  C   -0.086899
    10  C    0.046051
    11  C    0.104804
    12  C    0.053718
    13  C   -0.071410
    14  H    0.035173
    15  N   -0.433119
    16  C    0.168199
    17  C   -0.177555
    18  C   -0.004019
    19  C    0.148648
    20  C    0.110280
    21  C    0.012396
    22  O   -0.249306
    23  C    0.062562
    24  N   -0.341119
    25  C    0.041138
    26  C   -0.028236
    27  C   -0.023981
    28  C    0.074862
    29  C    0.076103
    30  C    0.035123
    31  C   -0.004468
    32  N   -0.310584
    33  C    0.080540
    34  C   -0.169375
    35  C    0.008767
    36  C    0.083081
    37  C    0.127156
    38  C    0.046655
    39  O   -0.187279
    40  C   -0.005550
    41  C    0.213226
    42  O   -0.256919
    43  O   -0.304917
    44  C    0.157290
    45  H   -0.017784
    46  H   -0.016702
    47  H   -0.041334
    48  H    0.001252
    49  H   -0.004582
    50  H    0.025689
    51  H    0.016604
    52  H    0.016582
    53  H    0.010158
    54  H    0.043945
    55  H    0.018500
    56  H    0.017315
    57  H    0.005542
    58  H    0.026967
    59  H    0.038632
    60  H    0.037254
    61  H    0.035993
    62  H    0.030845
    63  H    0.016586
    64  H    0.009661
    65  H    0.023337
    66  H    0.012617
    67  H    0.004844
    68  H    0.006414
    69  H    0.004804
    70  H    0.008856
    71  H    0.017118
    72  H    0.029337
    73  H    0.048434
    74  H    0.009020
    75  H    0.046184
    76  H    0.035234
    77  H    0.043579
    78  H    0.045586
    79  H    0.054569
    80  Mg   0.837874
    81  C   -0.016257
    82  C   -0.088040
    83  C   -0.045567
    84  C   -0.064926
    85  N   -0.254482
    86  C   -0.049061
    87  C   -0.015126
    88  C   -0.090739
    89  C    0.045868
    90  C    0.114017
    91  C    0.062623
    92  C   -0.077434
    93  H    0.034365
    94  N   -0.423369
    95  C    0.162696
    96  C   -0.175308
    97  C   -0.008127
    98  C    0.151859
    99  C    0.099714
   100  C    0.015270
   101  O   -0.253462
   102  C    0.061366
   103  N   -0.349965
   104  C    0.037352
   105  C   -0.019709
   106  C   -0.034765
   107  C    0.089209
   108  C    0.073747
   109  C    0.034790
   110  C   -0.007583
   111  N   -0.324451
   112  C    0.078991
   113  C   -0.162515
   114  C    0.003543
   115  C    0.096084
   116  C    0.131054
   117  C    0.044046
   118  O   -0.186483
   119  C    0.000130
   120  C    0.210939
   121  O   -0.251678
   122  O   -0.304997
   123  C    0.152259
   124  H   -0.020888
   125  H   -0.015881
   126  H   -0.040661
   127  H    0.000301
   128  H   -0.005392
   129  H    0.026074
   130  H    0.013949
   131  H    0.014121
   132  H    0.013560
   133  H    0.037711
   134  H    0.020595
   135  H    0.018928
   136  H    0.007974
   137  H    0.025073
   138  H    0.039237
   139  H    0.037722
   140  H    0.035982
   141  H    0.033637
   142  H    0.014018
   143  H    0.012079
   144  H    0.024788
   145  H    0.012341
   146  H    0.005185
   147  H    0.005846
   148  H    0.003449
   149  H    0.010786
   150  H    0.017635
   151  H    0.030317
   152  H    0.045880
   153  H    0.007638
   154  H    0.049468
   155  H    0.038862
   156  H    0.043923
   157  H    0.048788
   158  H    0.053204
 Sum of Mulliken charges =  -0.00000

 Dipole moment (field-independent basis, Debye):
    X=             -3.5952    Y=             -2.3040    Z=             -7.5931  Tot=              8.7114
 Quadrupole moment (field-independent basis, Debye-Ang):
   XX=           -513.0496   YY=           -551.6000   ZZ=           -448.4040
   XY=             -0.4389   XZ=             -1.2848   YZ=            -48.6677

 Normal termination of Gaussian 16 at Fri Sep 10 22:51:44 2021.
