 Gaussian 16, Revision A.03,
 Gaussian 16:  ES64L-G16RevA.03 25-Dec-2016

 -----------------------------------
 #p cam-b3lyp/Def2SVP td=(nstates=5)
 -----------------------------------

 --------------------------------
 TDDFT excited states in gaussian
 --------------------------------
 Symbolic Z-matrix:
 Charge =  0 Multiplicity = 1

                         Standard orientation:
 ---------------------------------------------------------------------
 Center     Atomic      Atomic             Coordinates (Angstroms)
 Number     Number       Type             X           Y           Z
 ---------------------------------------------------------------------
      1         12           0        5.209662   -0.680595    0.259299
      2          6           0        5.483180    2.559145   -1.237862
      3          6           0        5.881969    0.810394    3.253965
      4          6           0        5.422806   -3.577993    1.530627
      5          6           0        5.686817   -2.027379   -2.919405
      6          7           0        5.611539    1.425552    0.810015
      7          6           0        5.628415    2.579966    0.151065
      8          6           0        5.739489    3.822527    1.084381
      9          6           0        6.418078    3.127750    2.348818
     10          6           0        5.912758    1.710021    2.147278
     11          6           0        7.942347    3.118368    2.293871
     12          6           0        4.338883    4.423259    1.443760
     13          6           0        4.368781    5.817755    2.076090
     14          1           0        3.304146    6.755824    1.753717
     15          7           0        5.112799   -1.262714    2.144665
     16          6           0        5.406577   -0.518748    3.238052
     17          6           0        5.178589   -1.399651    4.403690
     18          6           0        4.911431   -2.772312    3.891323
     19          6           0        5.167500   -2.595796    2.484678
     20          6           0        5.178231   -0.908352    5.818743
     21          6           0        4.502103   -4.044175    4.564336
     22          8           0        4.550035   -5.174637    3.969077
     23          6           0        4.122624   -3.942917    5.985176
     24          7           0        5.729390   -2.542413   -0.528833
     25          6           0        5.684331   -3.647242    0.223701
     26          6           0        5.819815   -4.884237   -0.613810
     27          6           0        5.723348   -4.402235   -2.133061
     28          6           0        5.625452   -2.875833   -1.890606
     29          6           0        7.111596   -5.689037   -0.414786
     30          6           0        4.647015   -5.078941   -3.018495
     31          6           0        3.267337   -4.688027   -2.538106
     32          7           0        5.353697    0.092025   -1.763906
     33          6           0        5.575904   -0.647040   -2.934838
     34          6           0        5.703645    0.321458   -4.039266
     35          6           0        5.562480    1.565520   -3.427524
     36          6           0        5.385639    1.386675   -2.025727
     37          6           0        5.979410    0.003827   -5.398493
     38          6           0        5.544514    3.005358   -3.628520
     39          8           0        5.552668    3.743415   -4.614775
     40          6           0        5.614324    3.711216   -2.202786
     41          6           0        4.554580    4.778589   -2.171688
     42          8           0        3.343477    4.478514   -2.195146
     43          8           0        5.121537    5.959613   -1.881370
     44          6           0        4.120467    7.057033   -1.805985
     45          1           0        6.314000    1.128379    4.204846
     46          1           0        5.394355   -4.601133    1.911170
     47          1           0        5.752311   -2.377586   -3.951159
     48          1           0        6.382193    4.618221    0.707252
     49          1           0        6.041762    3.534342    3.287323
     50          1           0        8.308533    3.476351    1.331750
     51          1           0        8.232794    2.079103    2.448992
     52          1           0        8.363572    3.675381    3.131178
     53          1           0        3.904787    3.855612    2.266802
     54          1           0        3.689342    4.438424    0.567864
     55          1           0        5.343951    6.289994    1.953850
     56          1           0        4.255035    5.706302    3.154441
     57          1           0        5.567174    0.106603    5.890399
     58          1           0        5.899210   -1.514834    6.366538
     59          1           0        4.195956   -0.995879    6.283293
     60          1           0        4.961055   -3.540074    6.553770
     61          1           0        3.774302   -4.933714    6.274734
     62          1           0        3.310866   -3.221550    6.083290
     63          1           0        5.011610   -5.585292   -0.409478
     64          1           0        6.655194   -4.567224   -2.674462
     65          1           0        6.940988   -6.727737   -0.130711
     66          1           0        7.717886   -5.174416    0.330109
     67          1           0        7.782701   -5.695913   -1.273267
     68          1           0        4.718604   -6.163240   -2.940289
     69          1           0        4.730022   -4.816299   -4.073189
     70          1           0        3.083595   -5.391628   -1.726924
     71          1           0        2.536325   -4.814171   -3.337431
     72          1           0        3.264658   -3.686461   -2.107589
     73          1           0        5.313119    0.624082   -5.997916
     74          1           0        5.820271   -1.055702   -5.597682
     75          1           0        7.029689    0.287714   -5.463124
     76          1           0        6.616953    4.126894   -2.107560
     77          1           0        4.439984    7.831428   -2.503448
     78          1           0        4.036053    7.327690   -0.753357
     79          1           0        3.126164    6.829849   -2.192102
     80         12           0       -5.359380   -0.764904   -0.413561
     81          6           0       -5.254202    2.631556    0.740585
     82          6           0       -4.679148   -1.717428    2.790275
     83          6           0       -4.999521   -3.732366   -1.477549
     84          6           0       -4.893481    0.463734   -3.641428
     85          7           0       -5.031135    0.399377    1.438183
     86          6           0       -5.076487    1.681427    1.767774
     87          6           0       -5.003028    1.956218    3.293767
     88          6           0       -4.260023    0.606191    3.745708
     89          6           0       -4.708324   -0.311454    2.610088
     90          6           0       -2.744524    0.710843    3.705256
     91          6           0       -6.423890    2.076681    3.948486
     92          6           0       -6.431517    2.648380    5.367942
     93          1           0       -7.548020    3.499676    5.769440
     94          7           0       -5.392330   -2.492245    0.563057
     95          6           0       -5.111139   -2.695101    1.867303
     96          6           0       -5.258938   -4.141658    2.090466
     97          6           0       -5.489463   -4.798092    0.774919
     98          6           0       -5.277354   -3.677754   -0.119470
     99          6           0       -5.256236   -4.758314    3.459100
    100          6           0       -5.830203   -6.204653    0.385447
    101          8           0       -5.749683   -6.605237   -0.829413
    102          6           0       -6.170807   -7.124036    1.480987
    103          7           0       -4.788353   -1.542998   -2.254986
    104          6           0       -4.764380   -2.870531   -2.467132
    105          6           0       -4.592887   -3.185510   -3.934016
    106          6           0       -4.749854   -1.787608   -4.694818
    107          6           0       -4.902841   -0.851789   -3.475708
    108          6           0       -3.263551   -3.830885   -4.324853
    109          6           0       -5.817340   -1.715150   -5.820822
    110          6           0       -7.202450   -1.836831   -5.227467
    111          7           0       -5.299658    1.185089   -1.342021
    112          6           0       -5.066265    1.474387   -2.704341
    113          6           0       -5.005368    2.944821   -2.832940
    114          6           0       -5.186038    3.412079   -1.522399
    115          6           0       -5.327928    2.310131   -0.636360
    116          6           0       -4.758164    3.665181   -4.035476
    117          6           0       -5.278380    4.586726   -0.685503
    118          8           0       -5.316840    5.799120   -0.891309
    119          6           0       -5.200201    4.131135    0.835259
    120          6           0       -6.303257    4.825968    1.585588
    121          8           0       -7.494846    4.573319    1.334830
    122          8           0       -5.772970    5.507306    2.617547
    123          6           0       -6.829128    6.204540    3.398708
    124          1           0       -4.245583   -2.113893    3.708817
    125          1           0       -4.975435   -4.733569   -1.914001
    126          1           0       -4.849166    0.927370   -4.629223
    127          1           0       -4.409067    2.818533    3.571977
    128          1           0       -4.639281    0.246664    4.698738
    129          1           0       -2.416497    1.640639    3.264784
    130          1           0       -2.407420   -0.128749    3.111555
    131          1           0       -2.329321    0.558598    4.705640
    132          1           0       -6.812102    1.069860    4.149349
    133          1           0       -7.083417    2.648509    3.325061
    134          1           0       -5.475933    3.120007    5.627495
    135          1           0       -6.522509    1.820306    6.075071
    136          1           0       -4.901828   -4.050450    4.218529
    137          1           0       -4.499360   -5.550110    3.451568
    138          1           0       -6.221147   -5.194299    3.726551
    139          1           0       -5.338577   -7.178337    2.178790
    140          1           0       -6.470781   -8.055941    0.997835
    141          1           0       -7.019700   -6.708457    2.035330
    142          1           0       -5.366474   -3.861325   -4.277456
    143          1           0       -3.819430   -1.493142   -5.202212
    144          1           0       -3.384882   -4.801500   -4.841819
    145          1           0       -2.665277   -3.948259   -3.431082
    146          1           0       -2.620394   -3.218524   -4.954595
    147          1           0       -5.699546   -2.555798   -6.509002
    148          1           0       -5.762213   -0.806131   -6.410424
    149          1           0       -7.332266   -2.918235   -5.123532
    150          1           0       -7.945736   -1.412873   -5.899637
    151          1           0       -7.239356   -1.402234   -4.221773
    152          1           0       -5.456315    4.491495   -4.052522
    153          1           0       -4.872479    3.028997   -4.910670
    154          1           0       -3.717691    3.960351   -3.875635
    155          1           0       -4.213595    4.406953    1.209562
    156          1           0       -6.555330    7.263603    3.431873
    157          1           0       -6.888605    5.669143    4.364916
    158          1           0       -7.821206    6.256041    2.965617
 ---------------------------------------------------------------------

 SCF Done:  E(RCAM-B3LYP) =  -4069.81166537     A.U. after   19 cycles

 Excitation energies and oscillator strengths:

 Excited State   1:      Singlet-A      1.6613 eV  746.29 nm  f=0.1035  <S**2>=0.000
     309 -> 315       -0.11373
     310 -> 316        0.12670
     311 -> 313       -0.45745
     312 -> 314        0.51218
 This state for optimization and/or second-order correction.
 Total Energy, E(TD-HF/TD-DFT) =  -4069.75061208
 Copying the excited state density for this state as the 1-particle RhoCI density.

 Excited State   2:      Singlet-A      1.6909 eV  733.24 nm  f=0.6048  <S**2>=0.000
     309 -> 315        0.13280
     310 -> 316        0.11856
     311 -> 313        0.51078
     312 -> 314        0.45636

 Excited State   3:      Singlet-A      2.1846 eV  567.53 nm  f=0.0485  <S**2>=0.000
     309 -> 313       -0.26083
     310 -> 314        0.58786
     311 -> 315        0.10952
     312 -> 316       -0.24903

 Excited State   4:      Singlet-A      2.1922 eV  565.57 nm  f=0.1418  <S**2>=0.000
     309 -> 313        0.58551
     310 -> 314        0.25871
     311 -> 315       -0.25463
     312 -> 316       -0.11339

 Excited State   5:      Singlet-A      2.4855 eV  498.83 nm  f=0.0000  <S**2>=0.000
     312 -> 313        0.70709

 The electronic state is 1-A.
 Alpha  occ. eigenvalues --  -46.87873 -46.87499 -19.26272 -19.26261 -19.19065
 Alpha  occ. eigenvalues --  -19.19013 -19.18937 -19.18568 -19.18226 -19.17889
 Alpha  occ. eigenvalues --  -14.42523 -14.42346 -14.41522 -14.41196 -14.39486
 Alpha  occ. eigenvalues --  -14.39192 -14.38661 -14.38429 -10.39077 -10.38990
 Alpha  occ. eigenvalues --  -10.35575 -10.35247 -10.34443 -10.34068 -10.31709
 Alpha  occ. eigenvalues --  -10.31613 -10.31470 -10.31158 -10.30983 -10.30891
 Alpha  occ. eigenvalues --  -10.30644 -10.30585 -10.30289 -10.30225 -10.30190
 Alpha  occ. eigenvalues --  -10.29987 -10.29979 -10.29721 -10.29715 -10.29343
 Alpha  occ. eigenvalues --  -10.29272 -10.29229 -10.28797 -10.28631 -10.28626
 Alpha  occ. eigenvalues --  -10.28545 -10.28443 -10.28247 -10.28173 -10.28051
 Alpha  occ. eigenvalues --  -10.27875 -10.27829 -10.27804 -10.27677 -10.27611
 Alpha  occ. eigenvalues --  -10.27562 -10.27521 -10.27509 -10.27472 -10.27349
 Alpha  occ. eigenvalues --  -10.27330 -10.27330 -10.27301 -10.27220 -10.27196
 Alpha  occ. eigenvalues --  -10.26907 -10.26741 -10.26626 -10.26585 -10.26287
 Alpha  occ. eigenvalues --  -10.26285 -10.26233 -10.26095 -10.25983 -10.25961
 Alpha  occ. eigenvalues --  -10.25917 -10.25759 -10.25583 -10.25491 -10.25252
 Alpha  occ. eigenvalues --  -10.24910 -10.24862 -10.24729 -10.24695 -10.24591
 Alpha  occ. eigenvalues --  -10.24530  -3.16616  -3.16248  -1.91498  -1.91131
 Alpha  occ. eigenvalues --   -1.91084  -1.90927  -1.90720  -1.90556  -1.16614
 Alpha  occ. eigenvalues --   -1.16561  -1.08678  -1.08499  -1.07341  -1.06849
 Alpha  occ. eigenvalues --   -1.06822  -1.06636  -1.04653  -1.04346  -1.03835
 Alpha  occ. eigenvalues --   -1.03504  -1.03312  -1.02872  -1.02487  -1.01946
 Alpha  occ. eigenvalues --   -0.92035  -0.91832  -0.89585  -0.89334  -0.89241
 Alpha  occ. eigenvalues --   -0.89053  -0.88350  -0.88064  -0.87947  -0.87743
 Alpha  occ. eigenvalues --   -0.87600  -0.87533  -0.87384  -0.86967  -0.85041
 Alpha  occ. eigenvalues --   -0.84888  -0.83992  -0.83725  -0.83086  -0.82789
 Alpha  occ. eigenvalues --   -0.82709  -0.82536  -0.81614  -0.81471  -0.80654
 Alpha  occ. eigenvalues --   -0.80307  -0.78893  -0.78472  -0.77284  -0.77012
 Alpha  occ. eigenvalues --   -0.76973  -0.76780  -0.75968  -0.75719  -0.74954
 Alpha  occ. eigenvalues --   -0.74659  -0.72848  -0.72531  -0.71734  -0.71441
 Alpha  occ. eigenvalues --   -0.69964  -0.69607  -0.68937  -0.68709  -0.67715
 Alpha  occ. eigenvalues --   -0.67453  -0.67285  -0.67091  -0.65339  -0.65157
 Alpha  occ. eigenvalues --   -0.64909  -0.64671  -0.64623  -0.64527  -0.64332
 Alpha  occ. eigenvalues --   -0.64051  -0.62315  -0.62159  -0.60538  -0.60185
 Alpha  occ. eigenvalues --   -0.59867  -0.59674  -0.59052  -0.58840  -0.58568
 Alpha  occ. eigenvalues --   -0.58277  -0.57625  -0.57413  -0.57372  -0.57082
 Alpha  occ. eigenvalues --   -0.56388  -0.56047  -0.55991  -0.55781  -0.55605
 Alpha  occ. eigenvalues --   -0.55384  -0.55317  -0.55103  -0.54554  -0.54358
 Alpha  occ. eigenvalues --   -0.53948  -0.53814  -0.53385  -0.53292  -0.53075
 Alpha  occ. eigenvalues --   -0.53016  -0.52966  -0.52848  -0.52781  -0.52541
 Alpha  occ. eigenvalues --   -0.52492  -0.52252  -0.51986  -0.51683  -0.51658
 Alpha  occ. eigenvalues --   -0.51546  -0.51250  -0.51054  -0.50704  -0.50338
 Alpha  occ. eigenvalues --   -0.50099  -0.50016  -0.49857  -0.49718  -0.49589
 Alpha  occ. eigenvalues --   -0.49358  -0.49285  -0.49150  -0.49071  -0.48972
 Alpha  occ. eigenvalues --   -0.48639  -0.48557  -0.48504  -0.48428  -0.48225
 Alpha  occ. eigenvalues --   -0.48199  -0.47764  -0.47465  -0.47371  -0.46976
 Alpha  occ. eigenvalues --   -0.46861  -0.46610  -0.46567  -0.46445  -0.46428
 Alpha  occ. eigenvalues --   -0.46216  -0.46114  -0.45924  -0.45863  -0.45672
 Alpha  occ. eigenvalues --   -0.45264  -0.45062  -0.44637  -0.44588  -0.44396
 Alpha  occ. eigenvalues --   -0.44337  -0.44215  -0.44148  -0.44083  -0.43999
 Alpha  occ. eigenvalues --   -0.43934  -0.43801  -0.43529  -0.43448  -0.43435
 Alpha  occ. eigenvalues --   -0.43255  -0.43089  -0.42817  -0.42754  -0.42743
 Alpha  occ. eigenvalues --   -0.42663  -0.42403  -0.42062  -0.41832  -0.41767
 Alpha  occ. eigenvalues --   -0.41588  -0.41523  -0.41343  -0.41204  -0.40947
 Alpha  occ. eigenvalues --   -0.40910  -0.40859  -0.40629  -0.40604  -0.40582
 Alpha  occ. eigenvalues --   -0.40348  -0.40283  -0.40141  -0.39495  -0.39272
 Alpha  occ. eigenvalues --   -0.38527  -0.38208  -0.37793  -0.37562  -0.37385
 Alpha  occ. eigenvalues --   -0.37320  -0.37116  -0.37068  -0.36729  -0.36668
 Alpha  occ. eigenvalues --   -0.36228  -0.36080  -0.34358  -0.34096  -0.33780
 Alpha  occ. eigenvalues --   -0.33753  -0.33255  -0.33015  -0.31464  -0.31128
 Alpha  occ. eigenvalues --   -0.31107  -0.30819  -0.30082  -0.29795  -0.29542
 Alpha  occ. eigenvalues --   -0.29400  -0.29163  -0.29029  -0.24153  -0.23873
 Alpha  occ. eigenvalues --   -0.21205  -0.20955
 Alpha virt. eigenvalues --   -0.08856  -0.08626  -0.01829  -0.01524  -0.00154
 Alpha virt. eigenvalues --    0.00120   0.02131   0.02380   0.03027   0.03376
 Alpha virt. eigenvalues --    0.04660   0.04862   0.05092   0.05271   0.06154

 Mulliken charges:
               1
     1  Mg   0.838620
     2  C   -0.002816
     3  C   -0.094481
     4  C   -0.045904
     5  C   -0.064053
     6  N   -0.256793
     7  C   -0.052315
     8  C   -0.013929
     9  C   -0.086923
    10  C    0.046233
    11  C    0.104807
    12  C    0.053578
    13  C   -0.072381
    14  H    0.037875
    15  N   -0.433052
    16  C    0.168117
    17  C   -0.177662
    18  C   -0.004438
    19  C    0.148620
    20  C    0.110266
    21  C    0.011727
    22  O   -0.249548
    23  C    0.062874
    24  N   -0.341201
    25  C    0.041277
    26  C   -0.028217
    27  C   -0.024058
    28  C    0.075106
    29  C    0.076125
    30  C    0.035044
    31  C   -0.004442
    32  N   -0.310555
    33  C    0.080667
    34  C   -0.169806
    35  C    0.008524
    36  C    0.083094
    37  C    0.127313
    38  C    0.046207
    39  O   -0.187878
    40  C   -0.005276
    41  C    0.212887
    42  O   -0.256811
    43  O   -0.304996
    44  C    0.157254
    45  H   -0.017667
    46  H   -0.016871
    47  H   -0.041384
    48  H    0.001294
    49  H   -0.004203
    50  H    0.025642
    51  H    0.016355
    52  H    0.016734
    53  H    0.010308
    54  H    0.044617
    55  H    0.017996
    56  H    0.017402
    57  H    0.005974
    58  H    0.026917
    59  H    0.038062
    60  H    0.037724
    61  H    0.035133
    62  H    0.029888
    63  H    0.016682
    64  H    0.009597
    65  H    0.023314
    66  H    0.012489
    67  H    0.004884
    68  H    0.006760
    69  H    0.004589
    70  H    0.009314
    71  H    0.018163
    72  H    0.028676
    73  H    0.047542
    74  H    0.009077
    75  H    0.046310
    76  H    0.035318
    77  H    0.043271
    78  H    0.046569
    79  H    0.054845
    80  Mg   0.838271
    81  C   -0.016727
    82  C   -0.087988
    83  C   -0.045364
    84  C   -0.063374
    85  N   -0.254475
    86  C   -0.049616
    87  C   -0.015067
    88  C   -0.090603
    89  C    0.045768
    90  C    0.114578
    91  C    0.062671
    92  C   -0.077496
    93  H    0.034511
    94  N   -0.423450
    95  C    0.162702
    96  C   -0.174685
    97  C   -0.007913
    98  C    0.151961
    99  C    0.099389
   100  C    0.015503
   101  O   -0.253571
   102  C    0.061224
   103  N   -0.349834
   104  C    0.037492
   105  C   -0.019846
   106  C   -0.035121
   107  C    0.088955
   108  C    0.073616
   109  C    0.034712
   110  C   -0.007592
   111  N   -0.324406
   112  C    0.078655
   113  C   -0.161532
   114  C    0.002767
   115  C    0.096443
   116  C    0.130949
   117  C    0.043255
   118  O   -0.188024
   119  C    0.000593
   120  C    0.211036
   121  O   -0.251140
   122  O   -0.305767
   123  C    0.152172
   124  H   -0.020542
   125  H   -0.015888
   126  H   -0.039584
   127  H   -0.001240
   128  H   -0.005127
   129  H    0.022957
   130  H    0.015115
   131  H    0.013988
   132  H    0.013949
   133  H    0.037751
   134  H    0.020048
   135  H    0.019217
   136  H    0.008033
   137  H    0.026410
   138  H    0.039234
   139  H    0.038468
   140  H    0.036004
   141  H    0.033563
   142  H    0.014004
   143  H    0.013634
   144  H    0.024247
   145  H    0.011840
   146  H    0.005995
   147  H    0.005911
   148  H    0.004078
   149  H    0.010625
   150  H    0.017705
   151  H    0.030075
   152  H    0.045253
   153  H    0.008443
   154  H    0.050766
   155  H    0.035404
   156  H    0.043437
   157  H    0.049052
   158  H    0.053548
 Sum of Mulliken charges =  -0.00000

 Dipole moment (field-independent basis, Debye):
    X=              3.6348    Y=             -1.9944    Z=              7.1085  Tot=              8.2292
 Quadrupole moment (field-independent basis, Debye-Ang):
   XX=           -518.7164   YY=           -537.0087   ZZ=           -462.2008
   XY=             17.8691   XZ=              1.3772   YZ=             34.9090

 Normal termination of Gaussian 16 at Fri Sep 10 21:02:37 2021.
