 Gaussian 16, Revision A.03,
 Gaussian 16:  ES64L-G16RevA.03 25-Dec-2016

 -----------------------------------
 #p cam-b3lyp/Def2SVP td=(nstates=5)
 -----------------------------------

 --------------------------------
 TDDFT excited states in gaussian
 --------------------------------
 Symbolic Z-matrix:
 Charge =  0 Multiplicity = 1

                         Standard orientation:
 ---------------------------------------------------------------------
 Center     Atomic      Atomic             Coordinates (Angstroms)
 Number     Number       Type             X           Y           Z
 ---------------------------------------------------------------------
      1         12           0        4.180441    0.271243    0.876602
      2          6           0        4.533604   -2.789869   -0.944685
      3          6           0        5.619509    1.847750   -1.785497
      4          6           0        4.295792    2.905810    2.637957
      5          6           0        3.838629   -1.655813    3.760225
      6          7           0        4.936212   -0.483497   -1.062425
      7          6           0        4.958343   -1.669545   -1.662401
      8          6           0        5.404875   -1.599440   -3.153397
      9          6           0        6.236556   -0.240098   -3.103445
     10          6           0        5.533856    0.431860   -1.936993
     11          6           0        7.705695   -0.437556   -2.744082
     12          6           0        4.188773   -1.491314   -4.133772
     13          6           0        4.513806   -1.745619   -5.608573
     14          1           0        3.526899   -2.422171   -6.436605
     15          7           0        4.397715    2.160838    0.342681
     16          6           0        4.994134    2.620768   -0.783390
     17          6           0        4.902323    4.095300   -0.720099
     18          6           0        4.373612    4.461035    0.623328
     19          6           0        4.359077    3.175233    1.272852
     20          6           0        5.247535    4.991308   -1.869772
     21          6           0        3.958764    5.764327    1.229516
     22          8           0        3.748685    5.894785    2.483877
     23          6           0        3.889699    6.920539    0.317680
     24          7           0        4.301740    0.599346    2.934579
     25          6           0        4.277131    1.838078    3.438486
     26          6           0        4.090281    1.818551    4.926654
     27          6           0        3.747144    0.306735    5.309305
     28          6           0        3.884969   -0.329460    3.904126
     29          6           0        5.289038    2.295906    5.757994
     30          6           0        2.440371    0.061967    6.104825
     31          6           0        1.243820    0.384211    5.237922
     32          7           0        4.004068   -1.842681    1.336235
     33          6           0        3.894017   -2.422604    2.608341
     34          6           0        3.911342   -3.884828    2.419474
     35          6           0        4.047833   -4.055054    1.043161
     36          6           0        4.138106   -2.780140    0.414880
     37          6           0        3.866011   -4.859470    3.455067
     38          6           0        4.163168   -5.017656   -0.040330
     39          8           0        4.060423   -6.242166   -0.126999
     40          6           0        4.604586   -4.239056   -1.357433
     41          6           0        3.709545   -4.695956   -2.477010
     42          8           0        2.491611   -4.423938   -2.473991
     43          8           0        4.461595   -5.169700   -3.482261
     44          6           0        3.636160   -5.612747   -4.637475
     45          1           0        6.270130    2.411981   -2.456524
     46          1           0        4.221885    3.790367    3.273987
     47          1           0        3.651288   -2.320292    4.605698
     48          1           0        6.049044   -2.418429   -3.473907
     49          1           0        6.109740    0.348188   -4.012048
     50          1           0        7.910003   -1.468307   -2.454716
     51          1           0        7.894154    0.236902   -1.908569
     52          1           0        8.351628   -0.098548   -3.554403
     53          1           0        3.865060   -0.452122   -4.191653
     54          1           0        3.382074   -2.155937   -3.822584
     55          1           0        5.493701   -2.209072   -5.726581
     56          1           0        4.608062   -0.781663   -6.108678
     57          1           0        5.762320    4.447477   -2.660841
     58          1           0        5.986021    5.705568   -1.506207
     59          1           0        4.376359    5.524795   -2.250267
     60          1           0        4.868147    7.080113   -0.135889
     61          1           0        3.490403    7.745040    0.907264
     62          1           0        3.207542    6.685271   -0.499792
     63          1           0        3.261699    2.459454    5.225187
     64          1           0        4.523334   -0.144968    5.927503
     65          1           0        5.055575    3.124107    6.427533
     66          1           0        6.091020    2.563021    5.070415
     67          1           0        5.766702    1.521607    6.357758
     68          1           0        2.395137    0.720474    6.971582
     69          1           0        2.339245   -0.963129    6.461482
     70          1           0        1.144638    1.463172    5.351229
     71          1           0        0.356413   -0.130414    5.607895
     72          1           0        1.449010    0.184534    4.186013
     73          1           0        3.171884   -5.629642    3.118924
     74          1           0        3.543386   -4.419940    4.398640
     75          1           0        4.907868   -5.178650    3.477711
     76          1           0        5.648363   -4.494411   -1.537561
     77          1           0        3.898839   -6.651080   -4.840203
     78          1           0        3.799752   -4.884964   -5.432443
     79          1           0        2.564316   -5.702978   -4.457620
     80         12           0       -3.634145    0.708393   -0.473035
     81          6           0       -6.439480   -1.439260    0.156861
     82          6           0       -5.853565    3.010861   -1.659376
     83          6           0       -1.162325    2.439030   -1.454066
     84          6           0       -1.608995   -2.123867   -0.322072
     85          7           0       -5.836655    0.674200   -0.673144
     86          6           0       -6.801523   -0.171213   -0.343552
     87          6           0       -8.236563    0.402887   -0.487233
     88          6           0       -7.932129    1.540888   -1.578627
     89          6           0       -6.457566    1.789379   -1.267850
     90          6           0       -8.041454    1.045559   -3.011122
     91          6           0       -8.770281    1.020326    0.852888
     92          6           0      -10.270990    1.319184    0.870476
     93          1           0      -11.002869    1.134449    2.120554
     94          7           0       -3.523064    2.629783   -0.957255
     95          6           0       -4.526383    3.417018   -1.398716
     96          6           0       -3.926518    4.739596   -1.633466
     97          6           0       -2.453856    4.625664   -1.451777
     98          6           0       -2.317472    3.191176   -1.297684
     99          6           0       -4.745147    5.966148   -1.914256
    100          6           0       -1.349437    5.638645   -1.434092
    101          8           0       -0.117050    5.292385   -1.498641
    102          6           0       -1.755759    7.051584   -1.433194
    103          7           0       -1.699899    0.205871   -1.046160
    104          6           0       -0.808036    1.156110   -1.377175
    105          6           0        0.584904    0.582985   -1.485160
    106          6           0        0.480684   -0.908995   -0.918860
    107          6           0       -1.039336   -0.973083   -0.652767
    108          6           0        1.184706    0.552818   -2.890756
    109          6           0        1.449521   -1.293997    0.232581
    110          6           0        1.095740   -0.523400    1.484139
    111          7           0       -3.907156   -1.373569    0.035831
    112          6           0       -2.931096   -2.393660    0.007538
    113          6           0       -3.618337   -3.662682    0.323311
    114          6           0       -4.961315   -3.293340    0.492112
    115          6           0       -5.104599   -1.896179    0.275578
    116          6           0       -3.009524   -4.948359    0.373294
    117          6           0       -6.292110   -3.769412    0.793800
    118          8           0       -6.769793   -4.846201    1.148893
    119          6           0       -7.329702   -2.610848    0.465903
    120          6           0       -8.271349   -2.486813    1.632289
    121          8           0       -7.856098   -2.110894    2.742629
    122          8           0       -9.536222   -2.621310    1.193683
    123          6           0      -10.507766   -2.494809    2.312568
    124          1           0       -6.437136    3.709085   -2.260049
    125          1           0       -0.257639    3.006598   -1.684025
    126          1           0       -1.030807   -3.035971   -0.159464
    127          1           0       -8.968901   -0.296041   -0.873191
    128          1           0       -8.517929    2.436614   -1.389232
    129          1           0       -8.190704   -0.022939   -3.057669
    130          1           0       -7.109561    1.318566   -3.488712
    131          1           0       -8.824271    1.595413   -3.541396
    132          1           0       -8.374672    2.038485    0.960577
    133          1           0       -8.516281    0.396362    1.687621
    134          1           0      -10.798012    0.832161    0.041013
    135          1           0      -10.414297    2.387130    0.688876
    136          1           0       -5.785104    5.710041   -2.151548
    137          1           0       -4.355856    6.405603   -2.839024
    138          1           0       -4.679819    6.708105   -1.115569
    139          1           0       -2.360887    7.253888   -2.313744
    140          1           0       -0.830531    7.621673   -1.329133
    141          1           0       -2.396846    7.230706   -0.562824
    142          1           0        1.281940    1.142982   -0.873905
    143          1           0        0.695255   -1.656114   -1.697071
    144          1           0        2.148949    1.090145   -2.965469
    145          1           0        0.462217    0.970639   -3.579211
    146          1           0        1.347426   -0.441905   -3.302165
    147          1           0        2.473984   -1.014203   -0.024987
    148          1           0        1.452489   -2.355225    0.457914
    149          1           0        1.598161    0.436727    1.333084
    150          1           0        1.475155   -1.032711    2.367692
    151          1           0        0.018377   -0.327361    1.534273
    152          1           0       -3.400099   -5.443843    1.252180
    153          1           0       -1.924620   -4.873481    0.407288
    154          1           0       -3.362564   -5.368234   -0.572406
    155          1           0       -7.849523   -2.886824   -0.452350
    156          1           0      -11.121684   -3.400761    2.306585
    157          1           0      -11.028283   -1.532518    2.148891
    158          1           0      -10.114472   -2.512516    3.322249
 ---------------------------------------------------------------------

 SCF Done:  E(RCAM-B3LYP) =  -4069.80586121     A.U. after   19 cycles

 Excitation energies and oscillator strengths:

 Excited State   1:      Singlet-A      1.6238 eV  763.55 nm  f=0.0017  <S**2>=0.000
     309 -> 315       -0.11170
     310 -> 316        0.11156
     311 -> 313       -0.48364
     312 -> 314        0.49047
 This state for optimization and/or second-order correction.
 Total Energy, E(TD-HF/TD-DFT) =  -4069.74618853
 Copying the excited state density for this state as the 1-particle RhoCI density.

 Excited State   2:      Singlet-A      1.7098 eV  725.16 nm  f=0.6628  <S**2>=0.000
     309 -> 315        0.13196
     310 -> 316        0.12714
     311 -> 313        0.48677
     312 -> 314        0.47968

 Excited State   3:      Singlet-A      2.1773 eV  569.45 nm  f=0.0835  <S**2>=0.000
     309 -> 313        0.37556
     310 -> 314        0.49980
     311 -> 315       -0.16145
     312 -> 313        0.16305
     312 -> 316       -0.20349

 Excited State   4:      Singlet-A      2.1822 eV  568.16 nm  f=0.1062  <S**2>=0.000
     309 -> 313        0.45638
     310 -> 314       -0.40329
     311 -> 315       -0.20169
     312 -> 313        0.20711
     312 -> 316        0.17165

 Excited State   5:      Singlet-A      2.2457 eV  552.09 nm  f=0.0105  <S**2>=0.000
     309 -> 313       -0.24010
     311 -> 315        0.10315
     312 -> 313        0.65401

 The electronic state is 1-A.
 Alpha  occ. eigenvalues --  -46.87897 -46.87381 -19.26645 -19.26177 -19.19552
 Alpha  occ. eigenvalues --  -19.18977 -19.18717 -19.18543 -19.18263 -19.17815
 Alpha  occ. eigenvalues --  -14.42547 -14.42227 -14.41356 -14.41044 -14.39392
 Alpha  occ. eigenvalues --  -14.39093 -14.38312 -14.38254 -10.39513 -10.38900
 Alpha  occ. eigenvalues --  -10.35363 -10.35160 -10.34507 -10.33990 -10.31952
 Alpha  occ. eigenvalues --  -10.31607 -10.31560 -10.31021 -10.31001 -10.30809
 Alpha  occ. eigenvalues --  -10.30673 -10.30536 -10.30106 -10.30100 -10.30054
 Alpha  occ. eigenvalues --  -10.29948 -10.29773 -10.29621 -10.29563 -10.29177
 Alpha  occ. eigenvalues --  -10.29160 -10.29130 -10.28893 -10.28702 -10.28522
 Alpha  occ. eigenvalues --  -10.28509 -10.28258 -10.28236 -10.28169 -10.27927
 Alpha  occ. eigenvalues --  -10.27800 -10.27783 -10.27730 -10.27522 -10.27513
 Alpha  occ. eigenvalues --  -10.27397 -10.27373 -10.27354 -10.27349 -10.27298
 Alpha  occ. eigenvalues --  -10.27226 -10.27220 -10.27205 -10.27061 -10.26906
 Alpha  occ. eigenvalues --  -10.26825 -10.26766 -10.26521 -10.26418 -10.26316
 Alpha  occ. eigenvalues --  -10.25997 -10.25986 -10.25860 -10.25833 -10.25832
 Alpha  occ. eigenvalues --  -10.25630 -10.25500 -10.25353 -10.25332 -10.25014
 Alpha  occ. eigenvalues --  -10.24978 -10.24872 -10.24773 -10.24603 -10.24414
 Alpha  occ. eigenvalues --  -10.24400  -3.16598  -3.16132  -1.91489  -1.91066
 Alpha  occ. eigenvalues --   -1.91015  -1.90907  -1.90602  -1.90440  -1.17006
 Alpha  occ. eigenvalues --   -1.16467  -1.08758  -1.08423  -1.07096  -1.06950
 Alpha  occ. eigenvalues --   -1.06931  -1.06761  -1.04678  -1.04236  -1.03756
 Alpha  occ. eigenvalues --   -1.03382  -1.03238  -1.02734  -1.02410  -1.01823
 Alpha  occ. eigenvalues --   -0.92067  -0.91722  -0.89482  -0.89324  -0.89191
 Alpha  occ. eigenvalues --   -0.88935  -0.88225  -0.88074  -0.87780  -0.87727
 Alpha  occ. eigenvalues --   -0.87459  -0.87385  -0.87092  -0.86937  -0.85055
 Alpha  occ. eigenvalues --   -0.84777  -0.83878  -0.83720  -0.82829  -0.82811
 Alpha  occ. eigenvalues --   -0.82528  -0.82468  -0.81708  -0.81366  -0.80626
 Alpha  occ. eigenvalues --   -0.80215  -0.78716  -0.78390  -0.77235  -0.77031
 Alpha  occ. eigenvalues --   -0.76899  -0.76684  -0.76004  -0.75611  -0.74868
 Alpha  occ. eigenvalues --   -0.74541  -0.72797  -0.72402  -0.71710  -0.71306
 Alpha  occ. eigenvalues --   -0.69851  -0.69572  -0.68900  -0.68620  -0.67649
 Alpha  occ. eigenvalues --   -0.67356  -0.67206  -0.67030  -0.65407  -0.65075
 Alpha  occ. eigenvalues --   -0.64944  -0.64681  -0.64503  -0.64414  -0.64217
 Alpha  occ. eigenvalues --   -0.64001  -0.62450  -0.62054  -0.60324  -0.60126
 Alpha  occ. eigenvalues --   -0.59945  -0.59563  -0.59029  -0.58712  -0.58551
 Alpha  occ. eigenvalues --   -0.58177  -0.57787  -0.57320  -0.57274  -0.57003
 Alpha  occ. eigenvalues --   -0.56397  -0.56165  -0.55940  -0.55686  -0.55498
 Alpha  occ. eigenvalues --   -0.55395  -0.55262  -0.55111  -0.54658  -0.54297
 Alpha  occ. eigenvalues --   -0.54036  -0.53700  -0.53321  -0.53214  -0.53053
 Alpha  occ. eigenvalues --   -0.52991  -0.52960  -0.52796  -0.52664  -0.52525
 Alpha  occ. eigenvalues --   -0.52514  -0.52296  -0.51965  -0.51618  -0.51515
 Alpha  occ. eigenvalues --   -0.51449  -0.51241  -0.51014  -0.50370  -0.50266
 Alpha  occ. eigenvalues --   -0.50048  -0.49920  -0.49769  -0.49633  -0.49466
 Alpha  occ. eigenvalues --   -0.49331  -0.49217  -0.49116  -0.48981  -0.48878
 Alpha  occ. eigenvalues --   -0.48628  -0.48421  -0.48335  -0.48314  -0.48213
 Alpha  occ. eigenvalues --   -0.48033  -0.47668  -0.47371  -0.47266  -0.46861
 Alpha  occ. eigenvalues --   -0.46795  -0.46686  -0.46427  -0.46360  -0.46276
 Alpha  occ. eigenvalues --   -0.46172  -0.46015  -0.45799  -0.45785  -0.45514
 Alpha  occ. eigenvalues --   -0.45172  -0.44989  -0.44657  -0.44486  -0.44340
 Alpha  occ. eigenvalues --   -0.44250  -0.44170  -0.44081  -0.44021  -0.43933
 Alpha  occ. eigenvalues --   -0.43869  -0.43738  -0.43585  -0.43431  -0.43336
 Alpha  occ. eigenvalues --   -0.43152  -0.43051  -0.42938  -0.42743  -0.42633
 Alpha  occ. eigenvalues --   -0.42554  -0.42373  -0.42023  -0.41873  -0.41759
 Alpha  occ. eigenvalues --   -0.41530  -0.41425  -0.41276  -0.41150  -0.40856
 Alpha  occ. eigenvalues --   -0.40830  -0.40631  -0.40569  -0.40537  -0.40421
 Alpha  occ. eigenvalues --   -0.40217  -0.40076  -0.39930  -0.39470  -0.39082
 Alpha  occ. eigenvalues --   -0.38369  -0.38069  -0.37835  -0.37448  -0.37341
 Alpha  occ. eigenvalues --   -0.37202  -0.37019  -0.36968  -0.36823  -0.36543
 Alpha  occ. eigenvalues --   -0.36198  -0.35882  -0.34254  -0.34172  -0.33877
 Alpha  occ. eigenvalues --   -0.33660  -0.33152  -0.32885  -0.31252  -0.31167
 Alpha  occ. eigenvalues --   -0.30992  -0.30702  -0.30127  -0.29715  -0.29314
 Alpha  occ. eigenvalues --   -0.29204  -0.29102  -0.28929  -0.24131  -0.23740
 Alpha  occ. eigenvalues --   -0.21151  -0.20828
 Alpha virt. eigenvalues --   -0.08765  -0.08529  -0.01823  -0.01415   0.00033
 Alpha virt. eigenvalues --    0.00137   0.02153   0.02481   0.03362   0.04513
 Alpha virt. eigenvalues --    0.04615   0.04980   0.05113   0.05377   0.06064

 Mulliken charges:
               1
     1  Mg   0.649394
     2  C    0.005075
     3  C   -0.091709
     4  C   -0.043184
     5  C   -0.054464
     6  N   -0.244365
     7  C   -0.061920
     8  C   -0.007731
     9  C   -0.086537
    10  C    0.046141
    11  C    0.105315
    12  C    0.033479
    13  C   -0.069422
    14  H    0.035888
    15  N   -0.426727
    16  C    0.169850
    17  C   -0.171306
    18  C    0.001487
    19  C    0.150700
    20  C    0.109012
    21  C    0.020249
    22  O   -0.250262
    23  C    0.055687
    24  N   -0.323788
    25  C    0.043569
    26  C   -0.027784
    27  C   -0.021519
    28  C    0.065835
    29  C    0.076807
    30  C    0.035030
    31  C   -0.000155
    32  N   -0.308293
    33  C    0.068515
    34  C   -0.178473
    35  C    0.021512
    36  C    0.048942
    37  C    0.129160
    38  C    0.039992
    39  O   -0.188594
    40  C   -0.004263
    41  C    0.216337
    42  O   -0.262733
    43  O   -0.303168
    44  C    0.156703
    45  H   -0.017770
    46  H   -0.017091
    47  H   -0.043569
    48  H   -0.000382
    49  H   -0.003451
    50  H    0.026037
    51  H    0.017884
    52  H    0.016960
    53  H    0.016116
    54  H    0.051094
    55  H    0.017713
    56  H    0.018626
    57  H    0.004234
    58  H    0.026018
    59  H    0.049607
    60  H    0.033654
    61  H    0.033129
    62  H    0.047262
    63  H    0.017460
    64  H    0.008942
    65  H    0.023404
    66  H    0.012542
    67  H    0.004905
    68  H    0.006241
    69  H    0.003978
    70  H    0.006973
    71  H    0.018863
    72  H    0.022918
    73  H    0.045272
    74  H    0.009532
    75  H    0.045992
    76  H    0.035521
    77  H    0.044545
    78  H    0.047504
    79  H    0.053334
    80  Mg   0.837465
    81  C   -0.017783
    82  C   -0.088456
    83  C   -0.044683
    84  C   -0.070110
    85  N   -0.254669
    86  C   -0.049515
    87  C   -0.015144
    88  C   -0.090352
    89  C    0.045368
    90  C    0.114635
    91  C    0.062617
    92  C   -0.077539
    93  H    0.034256
    94  N   -0.423135
    95  C    0.162298
    96  C   -0.175485
    97  C   -0.009701
    98  C    0.152281
    99  C    0.099591
   100  C    0.017263
   101  O   -0.259004
   102  C    0.061627
   103  N   -0.349556
   104  C    0.033273
   105  C   -0.032788
   106  C   -0.020485
   107  C    0.088712
   108  C    0.069335
   109  C    0.014277
   110  C   -0.013866
   111  N   -0.324142
   112  C    0.077691
   113  C   -0.161535
   114  C    0.001789
   115  C    0.096767
   116  C    0.130966
   117  C    0.042626
   118  O   -0.187890
   119  C    0.000950
   120  C    0.211195
   121  O   -0.251409
   122  O   -0.305618
   123  C    0.152208
   124  H   -0.020906
   125  H   -0.017084
   126  H   -0.026464
   127  H   -0.000981
   128  H   -0.004984
   129  H    0.022231
   130  H    0.014266
   131  H    0.015403
   132  H    0.013920
   133  H    0.037516
   134  H    0.020593
   135  H    0.019306
   136  H    0.008431
   137  H    0.024428
   138  H    0.038977
   139  H    0.038066
   140  H    0.032511
   141  H    0.035788
   142  H    0.023005
   143  H    0.029969
   144  H    0.034329
   145  H    0.005229
   146  H    0.010252
   147  H    0.087952
   148  H    0.020596
   149  H    0.033045
   150  H    0.063312
   151  H    0.025291
   152  H    0.044593
   153  H    0.016191
   154  H    0.047804
   155  H    0.034664
   156  H    0.043627
   157  H    0.049232
   158  H    0.053285
 Sum of Mulliken charges =  -0.00000

 Dipole moment (field-independent basis, Debye):
    X=              1.1873    Y=              6.3989    Z=             -4.7560  Tot=              8.0607
 Quadrupole moment (field-independent basis, Debye-Ang):
   XX=           -460.0782   YY=           -540.3301   ZZ=           -481.4290
   XY=            -30.1903   XZ=              0.2651   YZ=             -8.8735

 Normal termination of Gaussian 16 at Wed Sep  8 13:34:29 2021.
