 Gaussian 16, Revision A.03,
 Gaussian 16:  ES64L-G16RevA.03 25-Dec-2016

 -----------------------------------
 #p cam-b3lyp/Def2SVP td=(nstates=5)
 -----------------------------------

 --------------------------------
 TDDFT excited states in gaussian
 --------------------------------
 Symbolic Z-matrix:
 Charge =  0 Multiplicity = 1

                         Standard orientation:
 ---------------------------------------------------------------------
 Center     Atomic      Atomic             Coordinates (Angstroms)
 Number     Number       Type             X           Y           Z
 ---------------------------------------------------------------------
      1         12           0       -6.248202    0.759962   -0.188748
      2          6           0       -6.629334   -2.328544    1.579889
      3          6           0       -7.119625    2.350707    2.701445
      4          6           0       -6.361323    3.465208   -1.839649
      5          6           0       -6.523712   -1.068202   -3.142995
      6          7           0       -6.781931   -0.001681    1.820151
      7          6           0       -6.832195   -1.204588    2.383764
      8          6           0       -7.046243   -1.155699    3.926219
      9          6           0       -7.738743    0.275986    4.039005
     10          6           0       -7.152112    0.927895    2.799327
     11          6           0       -9.256904    0.231207    3.898707
     12          6           0       -5.694873   -1.202235    4.715753
     13          6           0       -5.823553   -1.486685    6.215047
     14          1           0       -4.797154   -2.286124    6.866775
     15          7           0       -6.198275    2.637577    0.423559
     16          6           0       -6.575089    3.103464    1.638568
     17          6           0       -6.349232    4.564420    1.602864
     18          6           0       -5.989870    4.935284    0.205934
     19          6           0       -6.197026    3.682005   -0.473592
     20          6           0       -6.432508    5.439765    2.815542
     21          6           0       -5.542451    6.218565   -0.419476
     22          8           0       -5.506763    6.381282   -1.687082
     23          6           0       -5.227273    7.324183    0.503190
     24          7           0       -6.637105    1.183728   -2.195440
     25          6           0       -6.565145    2.434795   -2.663027
     26          6           0       -6.601325    2.460250   -4.162354
     27          6           0       -6.468097    0.940413   -4.633627
     28          6           0       -6.460205    0.261567   -3.241731
     29          6           0       -7.856291    3.081368   -4.791070
     30          6           0       -5.322489    0.608683   -5.622543
     31          6           0       -3.985978    0.781714   -4.936325
     32          7           0       -6.349520   -1.340116   -0.727682
     33          6           0       -6.484633   -1.874033   -2.017391
     34          6           0       -6.617554   -3.334925   -1.868410
     35          6           0       -6.566834   -3.549149   -0.492408
     36          6           0       -6.438411   -2.298768    0.177180
     37          6           0       -6.820448   -4.265380   -2.925539
     38          6           0       -6.616014   -4.541334    0.569197
     39          8           0       -6.622392   -5.772642    0.605718
     40          6           0       -6.780965   -3.780844    1.958540
     41          6           0       -5.780682   -4.365429    2.918229
     42          8           0       -4.555594   -4.207959    2.740105
     43          8           0       -6.420063   -4.808823    4.011451
     44          6           0       -5.481710   -5.374646    5.017181
     45          1           0       -7.606264    2.944427    3.477731
     46          1           0       -6.294981    4.364890   -2.454961
     47          1           0       -6.528501   -1.711270   -4.024978
     48          1           0       -7.713721   -1.923926    4.317019
     49          1           0       -7.422951    0.811403    4.934173
     50          1           0       -9.601626   -0.763067    3.614969
     51          1           0       -9.498685    0.954627    3.119798
     52          1           0       -9.740619    0.594615    4.805752
     53          1           0       -5.265729   -0.200983    4.753039
     54          1           0       -5.011705   -1.925391    4.268929
     55          1           0       -6.816273   -1.861539    6.465849
     56          1           0       -5.748371   -0.539911    6.749992
     57          1           0       -6.876629    4.913545    3.659577
     58          1           0       -7.142586    6.234183    2.586639
     59          1           0       -5.466840    5.873542    3.075647
     60          1           0       -6.108206    7.554937    1.102573
     61          1           0       -4.839734    8.131920   -0.116668
     62          1           0       -4.459067    6.992510    1.202334
     63          1           0       -5.766590    3.033251   -4.563992
     64          1           0       -7.367089    0.589104   -5.140648
     65          1           0       -7.643343    3.911552   -5.464978
     66          1           0       -8.518661    3.392903   -3.983912
     67          1           0       -8.490410    2.380614   -5.333521
     68          1           0       -5.340389    1.295811   -6.467813
     69          1           0       -5.375879   -0.405553   -6.018430
     70          1           0       -3.799034    1.850568   -5.033461
     71          1           0       -3.217259    0.202729   -5.449217
     72          1           0       -4.053331    0.558153   -3.871444
     73          1           0       -6.163544   -5.110147   -2.718626
     74          1           0       -6.598072   -3.818669   -3.894353
     75          1           0       -7.880615   -4.485067   -2.800480
     76          1           0       -7.807027   -3.945342    2.286046
     77          1           0       -5.812486   -6.391620    5.228329
     78          1           0       -5.454734   -4.668700    5.847433
     79          1           0       -4.461910   -5.556553    4.676216
     80         12           0        6.955720    0.172612    0.118861
     81          6           0        4.538595   -1.827848   -1.623169
     82          6           0        5.150908    2.908618   -0.825349
     83          6           0        9.298439    1.986476    1.254216
     84          6           0        9.127975   -2.546943   -0.057258
     85          7           0        5.102006    0.384512   -1.069029
     86          6           0        4.237881   -0.449816   -1.627190
     87          6           0        2.941557    0.223255   -2.152615
     88          6           0        3.510523    1.710311   -2.361879
     89          6           0        4.638111    1.687768   -1.331970
     90          6           0        4.122237    1.932937   -3.735043
     91          6           0        1.782644    0.195165   -1.095192
     92          6           0        0.400899    0.554938   -1.645741
     93          1           0       -0.766635   -0.129904   -1.097693
     94          7           0        6.962748    2.090323    0.629670
     95          6           0        6.145298    3.058899    0.166091
     96          6           0        6.569500    4.298077    0.835910
     97          6           0        7.809547    4.013199    1.607819
     98          6           0        8.089409    2.661207    1.167482
     99          6           0        5.775128    5.570235    0.772612
    100          6           0        8.617788    4.827921    2.571756
    101          8           0        9.790478    4.465933    2.941346
    102          6           0        8.034534    6.108465    2.997781
    103          7           0        8.997288   -0.143664    0.351903
    104          6           0        9.780909    0.789266    0.920696
    105          6           0       11.150530    0.234932    1.232489
    106          6           0       11.045520   -1.339895    0.974681
    107          6           0        9.594865   -1.414229    0.449842
    108          6           0       12.303709    0.809253    0.409854
    109          6           0       11.456597   -2.273727    2.145864
    110          6           0       10.471458   -2.137828    3.284473
    111          7           0        6.820129   -1.887671   -0.517439
    112          6           0        7.856919   -2.846298   -0.530747
    113          6           0        7.311372   -4.069000   -1.155077
    114          6           0        5.991408   -3.726607   -1.485176
    115          6           0        5.738807   -2.378710   -1.112504
    116          6           0        8.031108   -5.273794   -1.392920
    117          6           0        4.757600   -4.195545   -2.073802
    118          8           0        4.349588   -5.280069   -2.487406
    119          6           0        3.801128   -2.947172   -2.304269
    120          6           0        2.436095   -3.305561   -1.783919
    121          8           0        2.255391   -3.507844   -0.570224
    122          8           0        1.532052   -3.137864   -2.766238
    123          6           0        0.161079   -3.470325   -2.295366
    124          1           0        4.788649    3.842256   -1.256594
    125          1           0       10.109521    2.532974    1.740996
    126          1           0        9.711988   -3.469764   -0.060049
    127          1           0        2.574485   -0.170160   -3.092969
    128          1           0        2.767580    2.458320   -2.097535
    129          1           0        4.179888    1.016753   -4.303759
    130          1           0        5.112897    2.329453   -3.554993
    131          1           0        3.576347    2.716449   -4.268376
    132          1           0        1.923865    1.021893   -0.387148
    133          1           0        1.738863   -0.756971   -0.603105
    134          1           0        0.376839    0.538017   -2.742128
    135          1           0        0.185033    1.594871   -1.388933
    136          1           0        5.000641    5.522690   -0.002833
    137          1           0        6.456408    6.355817    0.428248
    138          1           0        5.364196    5.858916    1.742384
    139          1           0        7.854785    6.731595    2.124930
    140          1           0        8.716491    6.503193    3.753428
    141          1           0        7.056672    5.913591    3.452109
    142          1           0       11.409313    0.404616    2.270440
    143          1           0       11.695702   -1.661679    0.147903
    144          1           0       13.103959    1.253925    1.031096
    145          1           0       11.901618    1.543819   -0.275188
    146          1           0       12.785936    0.103840   -0.264720
    147          1           0       12.431261   -1.978048    2.541784
    148          1           0       11.528101   -3.318084    1.860913
    149          1           0       10.830088   -1.251682    3.816649
    150          1           0       10.498940   -3.019179    3.922048
    151          1           0        9.465933   -1.913119    2.910203
    152          1           0        7.377736   -6.088018   -1.108945
    153          1           0        8.963415   -5.297190   -0.832527
    154          1           0        8.201352   -5.189964   -2.469609
    155          1           0        3.789085   -2.736845   -3.374399
    156          1           0       -0.235622   -4.229051   -2.977014
    157          1           0       -0.379420   -2.506439   -2.244968
    158          1           0        0.067551   -3.974231   -1.340496
 ---------------------------------------------------------------------

 SCF Done:  E(RCAM-B3LYP) =  -4069.81173165     A.U. after   19 cycles

 Excitation energies and oscillator strengths:

 Excited State   1:      Singlet-A      1.6637 eV  745.22 nm  f=0.0066  <S**2>=0.000
     309 -> 315       -0.11339
     310 -> 316        0.12724
     311 -> 313       -0.45549
     312 -> 314        0.51397
 This state for optimization and/or second-order correction.
 Total Energy, E(TD-HF/TD-DFT) =  -4069.75059117
 Copying the excited state density for this state as the 1-particle RhoCI density.

 Excited State   2:      Singlet-A      1.6902 eV  733.55 nm  f=0.7308  <S**2>=0.000
     309 -> 315        0.13300
     310 -> 316        0.11736
     311 -> 313        0.51260
     312 -> 314        0.45440

 Excited State   3:      Singlet-A      2.1846 eV  567.55 nm  f=0.0954  <S**2>=0.000
     309 -> 313        0.12445
     310 -> 314        0.63074
     312 -> 316       -0.26679

 Excited State   4:      Singlet-A      2.1921 eV  565.60 nm  f=0.1055  <S**2>=0.000
     309 -> 313        0.62872
     310 -> 314       -0.12340
     311 -> 315       -0.27244

 Excited State   5:      Singlet-A      2.6103 eV  474.97 nm  f=0.0000  <S**2>=0.000
     312 -> 313        0.70683

 The electronic state is 1-A.
 Alpha  occ. eigenvalues --  -46.87952 -46.87519 -19.26266 -19.25960 -19.19018
 Alpha  occ. eigenvalues --  -19.19003 -19.18800 -19.18610 -19.18266 -19.17862
 Alpha  occ. eigenvalues --  -14.42589 -14.42353 -14.41603 -14.41221 -14.39557
 Alpha  occ. eigenvalues --  -14.39214 -14.38741 -14.38454 -10.39087 -10.38747
 Alpha  occ. eigenvalues --  -10.35638 -10.35291 -10.34482 -10.34032 -10.31613
 Alpha  occ. eigenvalues --  -10.31530 -10.31246 -10.31150 -10.31033 -10.30870
 Alpha  occ. eigenvalues --  -10.30711 -10.30665 -10.30372 -10.30257 -10.30210
 Alpha  occ. eigenvalues --  -10.30078 -10.30022 -10.29785 -10.29758 -10.29413
 Alpha  occ. eigenvalues --  -10.29309 -10.29262 -10.28822 -10.28538 -10.28532
 Alpha  occ. eigenvalues --  -10.28505 -10.28411 -10.28255 -10.28203 -10.27970
 Alpha  occ. eigenvalues --  -10.27936 -10.27865 -10.27859 -10.27741 -10.27681
 Alpha  occ. eigenvalues --  -10.27631 -10.27627 -10.27534 -10.27528 -10.27413
 Alpha  occ. eigenvalues --  -10.27365 -10.27332 -10.27326 -10.27269 -10.27232
 Alpha  occ. eigenvalues --  -10.26825 -10.26740 -10.26615 -10.26463 -10.26398
 Alpha  occ. eigenvalues --  -10.26344 -10.26314 -10.26177 -10.26043 -10.25976
 Alpha  occ. eigenvalues --  -10.25875 -10.25802 -10.25714 -10.25592 -10.25305
 Alpha  occ. eigenvalues --  -10.24973 -10.24960 -10.24943 -10.24723 -10.24637
 Alpha  occ. eigenvalues --  -10.24553  -3.16695  -3.16269  -1.91577  -1.91163
 Alpha  occ. eigenvalues --   -1.91152  -1.91005  -1.90740  -1.90577  -1.16619
 Alpha  occ. eigenvalues --   -1.16263  -1.08715  -1.08454  -1.07408  -1.06865
 Alpha  occ. eigenvalues --   -1.06642  -1.06588  -1.04716  -1.04346  -1.03911
 Alpha  occ. eigenvalues --   -1.03522  -1.03387  -1.02902  -1.02562  -1.01970
 Alpha  occ. eigenvalues --   -0.92093  -0.91816  -0.89689  -0.89363  -0.89275
 Alpha  occ. eigenvalues --   -0.88976  -0.88455  -0.88099  -0.88010  -0.87802
 Alpha  occ. eigenvalues --   -0.87649  -0.87533  -0.87436  -0.87003  -0.85081
 Alpha  occ. eigenvalues --   -0.84827  -0.84108  -0.83746  -0.83146  -0.82825
 Alpha  occ. eigenvalues --   -0.82756  -0.82482  -0.81657  -0.81343  -0.80706
 Alpha  occ. eigenvalues --   -0.80234  -0.78948  -0.78506  -0.77357  -0.77023
 Alpha  occ. eigenvalues --   -0.76994  -0.76698  -0.76010  -0.75631  -0.75041
 Alpha  occ. eigenvalues --   -0.74653  -0.72917  -0.72557  -0.71798  -0.71423
 Alpha  occ. eigenvalues --   -0.70099  -0.69643  -0.68984  -0.68658  -0.67778
 Alpha  occ. eigenvalues --   -0.67443  -0.67316  -0.67027  -0.65384  -0.65084
 Alpha  occ. eigenvalues --   -0.64975  -0.64731  -0.64610  -0.64442  -0.64428
 Alpha  occ. eigenvalues --   -0.64062  -0.62356  -0.61999  -0.60605  -0.60217
 Alpha  occ. eigenvalues --   -0.59911  -0.59632  -0.59121  -0.58836  -0.58633
 Alpha  occ. eigenvalues --   -0.58256  -0.57671  -0.57438  -0.57324  -0.57081
 Alpha  occ. eigenvalues --   -0.56444  -0.56054  -0.56018  -0.55659  -0.55620
 Alpha  occ. eigenvalues --   -0.55469  -0.55270  -0.55068  -0.54621  -0.54271
 Alpha  occ. eigenvalues --   -0.53982  -0.53732  -0.53445  -0.53336  -0.53079
 Alpha  occ. eigenvalues --   -0.53017  -0.52964  -0.52892  -0.52686  -0.52625
 Alpha  occ. eigenvalues --   -0.52537  -0.52279  -0.52049  -0.51732  -0.51713
 Alpha  occ. eigenvalues --   -0.51477  -0.51315  -0.51019  -0.50745  -0.50372
 Alpha  occ. eigenvalues --   -0.50204  -0.50066  -0.49843  -0.49749  -0.49630
 Alpha  occ. eigenvalues --   -0.49341  -0.49333  -0.49186  -0.49025  -0.48931
 Alpha  occ. eigenvalues --   -0.48690  -0.48622  -0.48566  -0.48355  -0.48248
 Alpha  occ. eigenvalues --   -0.48182  -0.47819  -0.47429  -0.47428  -0.46966
 Alpha  occ. eigenvalues --   -0.46936  -0.46644  -0.46557  -0.46502  -0.46379
 Alpha  occ. eigenvalues --   -0.46284  -0.46122  -0.45909  -0.45905  -0.45607
 Alpha  occ. eigenvalues --   -0.45359  -0.45075  -0.44681  -0.44656  -0.44331
 Alpha  occ. eigenvalues --   -0.44316  -0.44302  -0.44186  -0.44128  -0.43971
 Alpha  occ. eigenvalues --   -0.43930  -0.43767  -0.43577  -0.43511  -0.43313
 Alpha  occ. eigenvalues --   -0.43193  -0.43151  -0.42863  -0.42753  -0.42688
 Alpha  occ. eigenvalues --   -0.42578  -0.42431  -0.42155  -0.41826  -0.41815
 Alpha  occ. eigenvalues --   -0.41632  -0.41498  -0.41290  -0.41264  -0.41002
 Alpha  occ. eigenvalues --   -0.40980  -0.40837  -0.40716  -0.40592  -0.40545
 Alpha  occ. eigenvalues --   -0.40354  -0.40298  -0.40037  -0.39644  -0.39315
 Alpha  occ. eigenvalues --   -0.38624  -0.38222  -0.37830  -0.37476  -0.37460
 Alpha  occ. eigenvalues --   -0.37358  -0.37129  -0.37023  -0.36776  -0.36483
 Alpha  occ. eigenvalues --   -0.36277  -0.36005  -0.34430  -0.34104  -0.33800
 Alpha  occ. eigenvalues --   -0.33541  -0.33320  -0.33017  -0.31531  -0.31174
 Alpha  occ. eigenvalues --   -0.31168  -0.30822  -0.30121  -0.29759  -0.29606
 Alpha  occ. eigenvalues --   -0.29468  -0.29195  -0.29063  -0.24224  -0.23889
 Alpha  occ. eigenvalues --   -0.21276  -0.20978
 Alpha virt. eigenvalues --   -0.08923  -0.08651  -0.01905  -0.01548  -0.00210
 Alpha virt. eigenvalues --    0.00104   0.02065   0.02339   0.02525   0.03375
 Alpha virt. eigenvalues --    0.04603   0.04969   0.05078   0.05485   0.06094

 Mulliken charges:
               1
     1  Mg   0.836571
     2  C   -0.002415
     3  C   -0.093691
     4  C   -0.046464
     5  C   -0.064582
     6  N   -0.256800
     7  C   -0.052171
     8  C   -0.013990
     9  C   -0.087024
    10  C    0.046350
    11  C    0.104738
    12  C    0.053314
    13  C   -0.072306
    14  H    0.037751
    15  N   -0.433198
    16  C    0.168212
    17  C   -0.177064
    18  C   -0.004419
    19  C    0.148560
    20  C    0.110084
    21  C    0.011478
    22  O   -0.250168
    23  C    0.062752
    24  N   -0.341099
    25  C    0.041305
    26  C   -0.028165
    27  C   -0.023897
    28  C    0.074668
    29  C    0.076088
    30  C    0.035245
    31  C   -0.004915
    32  N   -0.310435
    33  C    0.079701
    34  C   -0.170944
    35  C    0.008545
    36  C    0.082278
    37  C    0.127356
    38  C    0.046176
    39  O   -0.187108
    40  C   -0.005311
    41  C    0.213018
    42  O   -0.256278
    43  O   -0.305064
    44  C    0.157074
    45  H   -0.017227
    46  H   -0.017203
    47  H   -0.041502
    48  H    0.001405
    49  H   -0.003709
    50  H    0.025713
    51  H    0.016269
    52  H    0.017002
    53  H    0.011008
    54  H    0.044941
    55  H    0.017851
    56  H    0.017819
    57  H    0.006346
    58  H    0.027013
    59  H    0.039176
    60  H    0.037956
    61  H    0.035125
    62  H    0.030780
    63  H    0.015731
    64  H    0.010003
    65  H    0.023114
    66  H    0.012893
    67  H    0.005136
    68  H    0.006598
    69  H    0.005240
    70  H    0.007927
    71  H    0.017631
    72  H    0.028550
    73  H    0.047558
    74  H    0.008950
    75  H    0.046725
    76  H    0.035538
    77  H    0.043351
    78  H    0.046369
    79  H    0.055324
    80  Mg   0.837686
    81  C   -0.016169
    82  C   -0.087851
    83  C   -0.045794
    84  C   -0.065279
    85  N   -0.254479
    86  C   -0.049751
    87  C   -0.014877
    88  C   -0.090484
    89  C    0.045653
    90  C    0.114378
    91  C    0.062585
    92  C   -0.079767
    93  H    0.037954
    94  N   -0.423383
    95  C    0.162674
    96  C   -0.174893
    97  C   -0.008190
    98  C    0.152011
    99  C    0.099442
   100  C    0.015283
   101  O   -0.253585
   102  C    0.061353
   103  N   -0.350135
   104  C    0.037409
   105  C   -0.019710
   106  C   -0.034800
   107  C    0.089075
   108  C    0.073784
   109  C    0.034807
   110  C   -0.007634
   111  N   -0.324231
   112  C    0.078730
   113  C   -0.163173
   114  C    0.002515
   115  C    0.096298
   116  C    0.131427
   117  C    0.042653
   118  O   -0.186945
   119  C    0.000964
   120  C    0.211363
   121  O   -0.249504
   122  O   -0.307047
   123  C    0.150649
   124  H   -0.019755
   125  H   -0.016013
   126  H   -0.040671
   127  H   -0.000690
   128  H   -0.004035
   129  H    0.022200
   130  H    0.014067
   131  H    0.016262
   132  H    0.013259
   133  H    0.039463
   134  H    0.020749
   135  H    0.019383
   136  H    0.008831
   137  H    0.025802
   138  H    0.038978
   139  H    0.038135
   140  H    0.035906
   141  H    0.033479
   142  H    0.014119
   143  H    0.012225
   144  H    0.024795
   145  H    0.011575
   146  H    0.005445
   147  H    0.005947
   148  H    0.003609
   149  H    0.010691
   150  H    0.017793
   151  H    0.030394
   152  H    0.046435
   153  H    0.008251
   154  H    0.046744
   155  H    0.034438
   156  H    0.043471
   157  H    0.049611
   158  H    0.058942
 Sum of Mulliken charges =  -0.00000

 Dipole moment (field-independent basis, Debye):
    X=             -2.9061    Y=              7.1541    Z=              1.3627  Tot=              7.8411
 Quadrupole moment (field-independent basis, Debye-Ang):
   XX=           -481.0853   YY=           -544.5123   ZZ=           -474.3672
   XY=            -24.7455   XZ=            -25.5107   YZ=              2.8883

 Normal termination of Gaussian 16 at Sat Sep 11 10:11:00 2021.
