 Gaussian 16, Revision A.03,
 Gaussian 16:  ES64L-G16RevA.03 25-Dec-2016

 -----------------------------------
 #p cam-b3lyp/Def2SVP td=(nstates=5)
 -----------------------------------

 --------------------------------
 TDDFT excited states in gaussian
 --------------------------------
 Symbolic Z-matrix:
 Charge =  0 Multiplicity = 1

                         Standard orientation:
 ---------------------------------------------------------------------
 Center     Atomic      Atomic             Coordinates (Angstroms)
 Number     Number       Type             X           Y           Z
 ---------------------------------------------------------------------
      1         12           0      -15.793817   -0.737579    0.215929
      2          6           0      -15.991827    2.819361   -0.132182
      3          6           0      -16.698462   -0.959967   -3.066635
      4          6           0      -16.068314   -3.871404    0.616450
      5          6           0      -16.023621   -0.265225    3.661177
      6          7           0      -16.257111    0.805469   -1.302296
      7          6           0      -16.238153    2.134502   -1.324212
      8          6           0      -16.430163    2.731688   -2.750352
      9          6           0      -17.191721    1.509472   -3.434615
     10          6           0      -16.658030    0.378109   -2.573735
     11          6           0      -18.707741    1.572115   -3.278855
     12          6           0      -15.065943    3.026358   -3.460142
     13          6           0      -15.156666    3.905162   -4.711073
     14          1           0      -14.081379    4.846440   -4.985118
     15          7           0      -15.828496   -2.200619   -1.111159
     16          6           0      -16.209091   -2.108742   -2.408075
     17          6           0      -16.057357   -3.466241   -2.974515
     18          6           0      -15.738997   -4.393965   -1.853771
     19          6           0      -15.893687   -3.519053   -0.719761
     20          6           0      -16.165386   -3.763699   -4.438619
     21          6           0      -15.366348   -5.842212   -1.810806
     22          8           0      -15.358750   -6.510535   -0.720916
     23          6           0      -15.092567   -6.488824   -3.106947
     24          7           0      -16.234905   -1.923743    1.876077
     25          6           0      -16.233106   -3.258533    1.790536
     26          6           0      -16.294029   -3.892772    3.148464
     27          6           0      -16.092174   -2.707613    4.199372
     28          6           0      -16.028425   -1.520493    3.206924
     29          6           0      -17.588266   -4.650245    3.475873
     30          6           0      -14.947026   -2.869401    5.230332
     31          6           0      -13.610273   -2.816248    4.525092
     32          7           0      -15.798152    0.960830    1.567384
     33          6           0      -15.926538    0.927106    2.963469
     34          6           0      -15.983691    2.326006    3.425942
     35          6           0      -15.900718    3.081062    2.257674
     36          6           0      -15.824662    2.208836    1.134407
     37          6           0      -16.156235    2.752194    4.772428
     38          6           0      -15.883431    4.421627    1.695141
     39          8           0      -15.827491    5.558770    2.165534
     40          6           0      -16.064493    4.305299    0.117323
     41          6           0      -15.021228    5.178075   -0.525460
     42          8           0      -13.808521    4.897872   -0.434941
     43          8           0      -15.620348    6.062335   -1.337668
     44          6           0      -14.639145    6.940069   -2.029751
     45          1           0      -17.202022   -1.158186   -4.014832
     46          1           0      -16.056824   -4.946134    0.809479
     47          1           0      -16.009996   -0.039617    4.729057
     48          1           0      -17.052071    3.626224   -2.788559
     49          1           0      -16.889170    1.371114   -4.472421
     50          1           0      -19.006586    2.380017   -2.611092
     51          1           0      -18.997676    0.607177   -2.862533
     52          1           0      -19.194782    1.637042   -4.252176
     53          1           0      -14.687007    2.106943   -3.906400
     54          1           0      -14.354467    3.466944   -2.760848
     55          1           0      -16.125286    4.401018   -4.780427
     56          1           0      -15.120668    3.257293   -5.586956
     57          1           0      -16.569271   -2.916030   -4.990778
     58          1           0      -16.917905   -4.544051   -4.550305
     59          1           0      -15.218721   -4.102970   -4.859395
     60          1           0      -15.974452   -6.408084   -3.742800
     61          1           0      -14.755785   -7.498395   -2.874152
     62          1           0      -14.297827   -5.940888   -3.613999
     63          1           0      -15.495476   -4.622588    3.275382
     64          1           0      -16.980263   -2.547900    4.811306
     65          1           0      -17.427806   -5.693256    3.749890
     66          1           0      -18.252680   -4.569569    2.616027
     67          1           0      -18.194882   -4.200444    4.261439
     68          1           0      -15.012612   -3.840081    5.720664
     69          1           0      -14.955699   -2.104357    6.006787
     70          1           0      -13.478703   -3.839574    4.175343
     71          1           0      -12.821631   -2.538492    5.225168
     72          1           0      -13.649622   -2.173712    3.645271
     73          1           0      -15.454636    3.572205    4.925106
     74          1           0      -15.971758    1.937526    5.472347
     75          1           0      -17.201961    3.058788    4.754758
     76          1           0      -17.075753    4.642591   -0.107866
     77          1           0      -14.915163    7.970238   -1.804365
     78          1           0      -14.634579    6.634865   -3.076286
     79          1           0      -13.616981    6.913222   -1.650543
     80         12           0       15.962646   -0.801247   -0.070652
     81          6           0       15.770807    2.696548    0.708904
     82          6           0       15.059138    0.012153   -3.257601
     83          6           0       15.683558   -3.903098   -0.677328
     84          6           0       15.724152   -1.434305    3.348130
     85          7           0       15.502492    1.138481   -1.028762
     86          6           0       15.522421    2.407250   -0.649059
     87          6           0       15.340841    3.427440   -1.804818
     88          6           0       14.569880    2.477563   -2.845121
     89          6           0       15.098765    1.123138   -2.377690
     90          6           0       13.060868    2.488729   -2.665986
     91          6           0       16.711679    3.922442   -2.386031
     92          6           0       16.618053    5.144731   -3.302003
     93          1           0       17.702037    6.122713   -3.270587
     94          7           0       15.929188   -1.773606   -1.800384
     95          6           0       15.556823   -1.284450   -3.001773
     96          6           0       15.690753   -2.401241   -3.949926
     97          6           0       16.014721   -3.633341   -3.180721
     98          6           0       15.864614   -3.144648   -1.824722
     99          6           0       15.592277   -2.222295   -5.437113
    100          6           0       16.384350   -5.024899   -3.596818
    101          8           0       16.390534   -5.997928   -2.762534
    102          6           0       16.648100   -5.232936   -5.028125
    103          7           0       15.524434   -2.439348    1.132226
    104          6           0       15.517600   -3.685584    0.627462
    105          6           0       15.450725   -4.718936    1.726588
    106          6           0       15.658880   -3.909794    3.090239
    107          6           0       15.723841   -2.473905    2.525090
    108          6           0       14.153354   -5.523311    1.805385
    109          6           0       16.803182   -4.388665    4.025075
    110          6           0       18.143069   -4.133872    3.373027
    111          7           0       15.965641    0.385461    1.734831
    112          6           0       15.828676   -0.079254    3.061238
    113          6           0       15.774711    1.110090    3.935865
    114          6           0       15.861559    2.193364    3.048463
    115          6           0       15.942193    1.713416    1.713308
    116          6           0       15.612010    1.096154    5.349883
    117          6           0       15.892666    3.633938    2.936786
    118          8           0       15.943670    4.566425    3.737785
    119          6           0       15.707898    4.026364    1.407654
    120          6           0       16.754057    5.050085    1.061152
    121          8           0       17.960796    4.749662    1.073270
    122          8           0       16.151085    6.145700    0.564757
    123          6           0       17.148282    7.185613    0.195983
    124          1           0       14.562349    0.130765   -4.220944
    125          1           0       15.691954   -4.985948   -0.821705
    126          1           0       15.749055   -1.549315    4.433870
    127          1           0       14.727351    4.286314   -1.560419
    128          1           0       14.881378    2.676407   -3.867266
    129          1           0       12.763334    3.044360   -1.789127
    130          1           0       12.767894    1.451078   -2.573802
    131          1           0       12.576221    2.859220   -3.573836
    132          1           0       17.086301    3.179477   -3.101853
    133          1           0       17.412738    4.114824   -1.597273
    134          1           0       15.645780    5.645999   -3.222353
    135          1           0       16.660138    4.804803   -4.339642
    136          1           0       15.183968   -1.238026   -5.697671
    137          1           0       14.839068   -2.932338   -5.795430
    138          1           0       16.536551   -2.420623   -5.948662
    139          1           0       15.768722   -4.950698   -5.602135
    140          1           0       16.982946   -6.268318   -5.116102
    141          1           0       17.455030   -4.558971   -5.336747
    142          1           0       16.247715   -5.445108    1.623691
    143          1           0       14.766199   -3.955118    3.731256
    144          1           0       14.312457   -6.616045    1.736876
    145          1           0       13.493591   -5.184975    1.017488
    146          1           0       13.555370   -5.348933    2.698242
    147          1           0       16.735655   -5.467672    4.184258
    148          1           0       16.788441   -3.917448    5.002178
    149          1           0       18.266906   -5.000500    2.716739
    150          1           0       18.931351   -4.089992    4.121844
    151          1           0       18.108115   -3.241410    2.737475
    152          1           0       16.308318    1.820803    5.750559
    153          1           0       15.788890    0.104332    5.760686
    154          1           0       14.562369    1.391750    5.428354
    155          1           0       14.696863    4.418172    1.289844
    156          1           0       16.871160    8.098445    0.732286
    157          1           0       17.140160    7.228670   -0.909378
    158          1           0       18.168417    7.043694    0.533093
 ---------------------------------------------------------------------

 SCF Done:  E(RCAM-B3LYP) =  -4069.81176391     A.U. after   19 cycles

 Excitation energies and oscillator strengths:

 Excited State   1:      Singlet-A      1.6753 eV  740.06 nm  f=0.2251  <S**2>=0.000
     310 -> 316        0.16894
     311 -> 314       -0.15676
     312 -> 313        0.66791
     310 <- 316        0.10184
 This state for optimization and/or second-order correction.
 Total Energy, E(TD-HF/TD-DFT) =  -4069.75019683
 Copying the excited state density for this state as the 1-particle RhoCI density.

 Excited State   2:      Singlet-A      1.6801 eV  737.96 nm  f=0.5522  <S**2>=0.000
     309 -> 315        0.17097
     311 -> 314        0.66754
     312 -> 313        0.15670
     309 <- 315        0.10236

 Excited State   3:      Singlet-A      2.1861 eV  567.16 nm  f=0.0955  <S**2>=0.000
     310 -> 313        0.64211
     312 -> 316       -0.27294

 Excited State   4:      Singlet-A      2.1925 eV  565.48 nm  f=0.1046  <S**2>=0.000
     309 -> 314        0.64034
     311 -> 315       -0.27816

 Excited State   5:      Singlet-A      3.0659 eV  404.40 nm  f=0.0000  <S**2>=0.000
     311 -> 313        0.70711

 The electronic state is 1-A.
 Alpha  occ. eigenvalues --  -46.87796 -46.87660 -19.26346 -19.26285 -19.19158
 Alpha  occ. eigenvalues --  -19.19020 -19.18815 -19.18716 -19.18169 -19.18049
 Alpha  occ. eigenvalues --  -14.42497 -14.42450 -14.41449 -14.41359 -14.39402
 Alpha  occ. eigenvalues --  -14.39352 -14.38599 -14.38586 -10.39088 -10.39080
 Alpha  occ. eigenvalues --  -10.35448 -10.35393 -10.34389 -10.34226 -10.31752
 Alpha  occ. eigenvalues --  -10.31681 -10.31405 -10.31308 -10.31023 -10.30909
 Alpha  occ. eigenvalues --  -10.30569 -10.30507 -10.30397 -10.30360 -10.30206
 Alpha  occ. eigenvalues --  -10.30141 -10.29920 -10.29894 -10.29630 -10.29437
 Alpha  occ. eigenvalues --  -10.29401 -10.29254 -10.28750 -10.28717 -10.28652
 Alpha  occ. eigenvalues --  -10.28542 -10.28404 -10.28365 -10.28138 -10.28117
 Alpha  occ. eigenvalues --  -10.28000 -10.27792 -10.27727 -10.27669 -10.27584
 Alpha  occ. eigenvalues --  -10.27518 -10.27499 -10.27483 -10.27482 -10.27469
 Alpha  occ. eigenvalues --  -10.27465 -10.27448 -10.27403 -10.27376 -10.27158
 Alpha  occ. eigenvalues --  -10.27048 -10.26707 -10.26691 -10.26418 -10.26411
 Alpha  occ. eigenvalues --  -10.26235 -10.26181 -10.26138 -10.26021 -10.26018
 Alpha  occ. eigenvalues --  -10.25934 -10.25849 -10.25841 -10.25434 -10.25398
 Alpha  occ. eigenvalues --  -10.24872 -10.24832 -10.24787 -10.24732 -10.24690
 Alpha  occ. eigenvalues --  -10.24684  -3.16539  -3.16410  -1.91421  -1.91292
 Alpha  occ. eigenvalues --   -1.91007  -1.90881  -1.90849  -1.90718  -1.16640
 Alpha  occ. eigenvalues --   -1.16634  -1.08656  -1.08627  -1.07216  -1.06968
 Alpha  occ. eigenvalues --   -1.06942  -1.06643  -1.04581  -1.04495  -1.03760
 Alpha  occ. eigenvalues --   -1.03663  -1.03233  -1.03039  -1.02411  -1.02111
 Alpha  occ. eigenvalues --   -0.91986  -0.91972  -0.89518  -0.89494  -0.89189
 Alpha  occ. eigenvalues --   -0.89150  -0.88286  -0.88220  -0.87869  -0.87793
 Alpha  occ. eigenvalues --   -0.87683  -0.87673  -0.87274  -0.87121  -0.84999
 Alpha  occ. eigenvalues --   -0.84983  -0.83935  -0.83876  -0.82967  -0.82933
 Alpha  occ. eigenvalues --   -0.82652  -0.82649  -0.81595  -0.81586  -0.80596
 Alpha  occ. eigenvalues --   -0.80442  -0.78797  -0.78636  -0.77218  -0.77144
 Alpha  occ. eigenvalues --   -0.76935  -0.76897  -0.75923  -0.75837  -0.74897
 Alpha  occ. eigenvalues --   -0.74803  -0.72774  -0.72699  -0.71672  -0.71580
 Alpha  occ. eigenvalues --   -0.69905  -0.69758  -0.68873  -0.68826  -0.67641
 Alpha  occ. eigenvalues --   -0.67601  -0.67221  -0.67199  -0.65287  -0.65270
 Alpha  occ. eigenvalues --   -0.64853  -0.64770  -0.64653  -0.64621  -0.64268
 Alpha  occ. eigenvalues --   -0.64204  -0.62298  -0.62277  -0.60442  -0.60340
 Alpha  occ. eigenvalues --   -0.59805  -0.59795  -0.58992  -0.58987  -0.58503
 Alpha  occ. eigenvalues --   -0.58425  -0.57584  -0.57552  -0.57308  -0.57236
 Alpha  occ. eigenvalues --   -0.56310  -0.56204  -0.55979  -0.55885  -0.55520
 Alpha  occ. eigenvalues --   -0.55452  -0.55339  -0.55247  -0.54523  -0.54487
 Alpha  occ. eigenvalues --   -0.53911  -0.53896  -0.53298  -0.53227  -0.53222
 Alpha  occ. eigenvalues --   -0.53141  -0.52915  -0.52901  -0.52757  -0.52669
 Alpha  occ. eigenvalues --   -0.52436  -0.52402  -0.51913  -0.51883  -0.51658
 Alpha  occ. eigenvalues --   -0.51617  -0.51200  -0.51195  -0.50573  -0.50477
 Alpha  occ. eigenvalues --   -0.50030  -0.49979  -0.49919  -0.49868  -0.49515
 Alpha  occ. eigenvalues --   -0.49488  -0.49214  -0.49201  -0.49103  -0.49096
 Alpha  occ. eigenvalues --   -0.48593  -0.48557  -0.48461  -0.48445  -0.48376
 Alpha  occ. eigenvalues --   -0.48339  -0.47695  -0.47594  -0.47297  -0.47118
 Alpha  occ. eigenvalues --   -0.46797  -0.46709  -0.46556  -0.46553  -0.46359
 Alpha  occ. eigenvalues --   -0.46270  -0.46162  -0.46085  -0.45821  -0.45821
 Alpha  occ. eigenvalues --   -0.45209  -0.45200  -0.44577  -0.44513  -0.44507
 Alpha  occ. eigenvalues --   -0.44475  -0.44144  -0.44126  -0.44089  -0.44078
 Alpha  occ. eigenvalues --   -0.44019  -0.43939  -0.43552  -0.43495  -0.43386
 Alpha  occ. eigenvalues --   -0.43385  -0.43027  -0.42929  -0.42900  -0.42699
 Alpha  occ. eigenvalues --   -0.42654  -0.42554  -0.42009  -0.41964  -0.41704
 Alpha  occ. eigenvalues --   -0.41668  -0.41534  -0.41458  -0.41141  -0.40989
 Alpha  occ. eigenvalues --   -0.40869  -0.40824  -0.40722  -0.40698  -0.40570
 Alpha  occ. eigenvalues --   -0.40493  -0.40236  -0.40226  -0.39439  -0.39426
 Alpha  occ. eigenvalues --   -0.38468  -0.38350  -0.37749  -0.37653  -0.37319
 Alpha  occ. eigenvalues --   -0.37266  -0.37264  -0.37199  -0.36769  -0.36713
 Alpha  occ. eigenvalues --   -0.36216  -0.36192  -0.34286  -0.34253  -0.33860
 Alpha  occ. eigenvalues --   -0.33771  -0.33186  -0.33175  -0.31345  -0.31275
 Alpha  occ. eigenvalues --   -0.31035  -0.30972  -0.30028  -0.29953  -0.29449
 Alpha  occ. eigenvalues --   -0.29327  -0.29321  -0.29211  -0.24080  -0.24036
 Alpha  occ. eigenvalues --   -0.21127  -0.21117
 Alpha virt. eigenvalues --   -0.08792  -0.08774  -0.01749  -0.01684  -0.00058
 Alpha virt. eigenvalues --   -0.00029   0.02201   0.02208   0.03121   0.03226
 Alpha virt. eigenvalues --    0.04717   0.04730   0.05098   0.05168   0.06175

 Mulliken charges:
               1
     1  Mg   0.838708
     2  C   -0.002960
     3  C   -0.094147
     4  C   -0.045867
     5  C   -0.063916
     6  N   -0.256779
     7  C   -0.052456
     8  C   -0.014011
     9  C   -0.086993
    10  C    0.046323
    11  C    0.104810
    12  C    0.053464
    13  C   -0.071786
    14  H    0.036093
    15  N   -0.433143
    16  C    0.168435
    17  C   -0.177167
    18  C   -0.004002
    19  C    0.148700
    20  C    0.110186
    21  C    0.012284
    22  O   -0.249616
    23  C    0.062474
    24  N   -0.341137
    25  C    0.041256
    26  C   -0.028189
    27  C   -0.023960
    28  C    0.074803
    29  C    0.076173
    30  C    0.035136
    31  C   -0.004512
    32  N   -0.310480
    33  C    0.080414
    34  C   -0.169705
    35  C    0.008376
    36  C    0.083001
    37  C    0.127308
    38  C    0.046120
    39  O   -0.188422
    40  C   -0.005365
    41  C    0.212889
    42  O   -0.257109
    43  O   -0.304793
    44  C    0.157690
    45  H   -0.017614
    46  H   -0.016831
    47  H   -0.041471
    48  H    0.000936
    49  H   -0.004052
    50  H    0.025480
    51  H    0.016458
    52  H    0.016648
    53  H    0.011194
    54  H    0.044121
    55  H    0.017877
    56  H    0.017933
    57  H    0.005861
    58  H    0.026823
    59  H    0.039529
    60  H    0.037345
    61  H    0.035651
    62  H    0.031487
    63  H    0.016560
    64  H    0.009470
    65  H    0.023218
    66  H    0.012540
    67  H    0.004762
    68  H    0.006374
    69  H    0.004747
    70  H    0.008777
    71  H    0.018167
    72  H    0.028974
    73  H    0.047589
    74  H    0.009130
    75  H    0.046016
    76  H    0.035154
    77  H    0.042953
    78  H    0.046384
    79  H    0.053684
    80  Mg   0.837835
    81  C   -0.016818
    82  C   -0.087794
    83  C   -0.045512
    84  C   -0.064861
    85  N   -0.254562
    86  C   -0.049821
    87  C   -0.015100
    88  C   -0.090488
    89  C    0.045750
    90  C    0.114364
    91  C    0.062524
    92  C   -0.077907
    93  H    0.034906
    94  N   -0.423485
    95  C    0.162913
    96  C   -0.174624
    97  C   -0.007806
    98  C    0.152120
    99  C    0.099369
   100  C    0.015563
   101  O   -0.253199
   102  C    0.061203
   103  N   -0.350057
   104  C    0.037548
   105  C   -0.019853
   106  C   -0.034816
   107  C    0.088911
   108  C    0.073650
   109  C    0.034735
   110  C   -0.007674
   111  N   -0.324116
   112  C    0.078447
   113  C   -0.163117
   114  C    0.002266
   115  C    0.096191
   116  C    0.131485
   117  C    0.042405
   118  O   -0.187816
   119  C    0.000910
   120  C    0.211264
   121  O   -0.251040
   122  O   -0.305607
   123  C    0.152020
   124  H   -0.019653
   125  H   -0.015577
   126  H   -0.040436
   127  H   -0.000608
   128  H   -0.004335
   129  H    0.022512
   130  H    0.014435
   131  H    0.016303
   132  H    0.013900
   133  H    0.037676
   134  H    0.020822
   135  H    0.019581
   136  H    0.008764
   137  H    0.026133
   138  H    0.039781
   139  H    0.038245
   140  H    0.036383
   141  H    0.033893
   142  H    0.014390
   143  H    0.012454
   144  H    0.025132
   145  H    0.011653
   146  H    0.005708
   147  H    0.006265
   148  H    0.003666
   149  H    0.010923
   150  H    0.017933
   151  H    0.030098
   152  H    0.046018
   153  H    0.008512
   154  H    0.047010
   155  H    0.035090
   156  H    0.043952
   157  H    0.049492
   158  H    0.053573
 Sum of Mulliken charges =  -0.00000

 Dipole moment (field-independent basis, Debye):
    X=             -4.0733    Y=             -2.4211    Z=             -7.6076  Tot=              8.9626
 Quadrupole moment (field-independent basis, Debye-Ang):
   XX=           -516.2138   YY=           -549.1759   ZZ=           -449.7507
   XY=             15.5801   XZ=             -4.3630   YZ=            -46.2754

 Normal termination of Gaussian 16 at Sun Sep 12 13:14:09 2021.
