 Gaussian 16, Revision A.03,
 Gaussian 16:  ES64L-G16RevA.03 25-Dec-2016

 -----------------------------------
 #p cam-b3lyp/Def2SVP td=(nstates=5)
 -----------------------------------

 --------------------------------
 TDDFT excited states in gaussian
 --------------------------------
 Symbolic Z-matrix:
 Charge =  0 Multiplicity = 1

                         Standard orientation:
 ---------------------------------------------------------------------
 Center     Atomic      Atomic             Coordinates (Angstroms)
 Number     Number       Type             X           Y           Z
 ---------------------------------------------------------------------
      1         12           0        3.921522    1.282297    0.729233
      2          6           0        4.865103   -1.912384   -0.580684
      3          6           0        4.964085    2.635269   -2.224679
      4          6           0        3.522888    4.148484    2.026415
      5          6           0        4.028175   -0.152478    3.903458
      6          7           0        4.784655    0.373206   -1.095377
      7          6           0        5.039695   -0.869382   -1.492994
      8          6           0        5.438380   -0.967587   -2.995918
      9          6           0        5.974582    0.518318   -3.211722
     10          6           0        5.167939    1.226069   -2.137321
     11          6           0        7.458589    0.681881   -2.899516
     12          6           0        4.210337   -1.273071   -3.918047
     13          6           0        4.556848   -1.705748   -5.345658
     14          1           0        3.716332   -2.696702   -6.000557
     15          7           0        3.738409    3.057677   -0.117730
     16          6           0        4.209769    3.427855   -1.332667
     17          6           0        3.818806    4.843212   -1.507577
     18          6           0        3.248024    5.320383   -0.217379
     19          6           0        3.507690    4.187773    0.634175
     20          6           0        3.954591    5.580098   -2.804616
     21          6           0        2.584728    6.598929    0.186961
     22          8           0        2.372553    6.897331    1.411915
     23          6           0        2.265586    7.545010   -0.897530
     24          7           0        4.006061    1.974768    2.696711
     25          6           0        3.736259    3.251282    2.991167
     26          6           0        3.581304    3.449543    4.469890
     27          6           0        3.561406    1.987769    5.112210
     28          6           0        3.804072    1.161194    3.825292
     29          6           0        4.670015    4.291053    5.150022
     30          6           0        2.345462    1.627201    6.002091
     31          6           0        1.094503    1.551615    5.155636
     32          7           0        4.189435   -0.714094    1.537745
     33          6           0        4.220991   -1.078206    2.891666
     34          6           0        4.534519   -2.517986    2.944606
     35          6           0        4.680867   -2.890263    1.609752
     36          6           0        4.497894   -1.749439    0.777085
     37          6           0        4.706492   -3.290503    4.127009
     38          6           0        4.973570   -3.981304    0.694432
     39          8           0        5.122525   -5.198161    0.815122
     40          6           0        5.224875   -3.367157   -0.753151
     41          6           0        4.424574   -4.177682   -1.735941
     42          8           0        3.176954   -4.157325   -1.716066
     43          8           0        5.241491   -4.656789   -2.686545
     44          6           0        4.505900   -5.446171   -3.710232
     45          1           0        5.474428    3.194655   -3.011176
     46          1           0        3.279532    5.096000    2.511625
     47          1           0        3.994565   -0.686491    4.854854
     48          1           0        6.231457   -1.684304   -3.209856
     49          1           0        5.715341    0.905433   -4.196942
     50          1           0        7.874382   -0.222574   -2.455671
     51          1           0        7.518251    1.513025   -2.196570
     52          1           0        8.008254    0.999203   -3.786056
     53          1           0        3.679677   -0.344698   -4.129196
     54          1           0        3.562038   -2.021920   -3.461693
     55          1           0        5.608888   -1.977904   -5.435386
     56          1           0        4.443546   -0.842282   -6.001241
     57          1           0        4.557109    5.022698   -3.520732
     58          1           0        4.536802    6.478570   -2.600928
     59          1           0        2.986591    5.856297   -3.222973
     60          1           0        3.183164    7.816402   -1.419973
     61          1           0        1.715347    8.361814   -0.431785
     62          1           0        1.633067    7.042386   -1.629812
     63          1           0        2.643887    3.953922    4.700708
     64          1           0        4.423508    1.812187    5.756124
     65          1           0        4.282594    5.158129    5.685550
     66          1           0        5.389100    4.591067    4.388315
     67          1           0        5.305767    3.741563    5.843778
     68          1           0        2.180189    2.401736    6.750240
     69          1           0        2.462263    0.678854    6.526730
     70          1           0        0.778182    2.592350    5.095267
     71          1           0        0.337428    0.941473    5.649371
     72          1           0        1.319328    1.220047    4.141731
     73          1           0        4.179590   -4.229402    3.957268
     74          1           0        4.315853   -2.769401    5.000770
     75          1           0        5.791870   -3.387063    4.149048
     76          1           0        6.295797   -3.436400   -0.941443
     77          1           0        4.972467   -6.430412   -3.752882
     78          1           0        4.504110   -4.847175   -4.621059
     79          1           0        3.478315   -5.716034   -3.464098
     80         12           0       -4.860063   -0.271722   -0.427877
     81          6           0       -2.055426   -2.453014    0.077127
     82          6           0       -2.621051    2.185351   -1.192205
     83          6           0       -7.274544    1.786798   -0.441838
     84          6           0       -6.762423   -2.511660    1.445472
     85          7           0       -2.649880   -0.258026   -0.512504
     86          6           0       -1.693707   -1.161902   -0.360612
     87          6           0       -0.278361   -0.676641   -0.773993
     88          6           0       -0.503385    0.903070   -0.593029
     89          6           0       -2.013615    0.961635   -0.813209
     90          6           0       -0.206280    1.396071    0.813392
     91          6           0        0.067966   -1.040957   -2.260384
     92          6           0        1.541801   -0.873961   -2.636783
     93          1           0        2.130519   -1.819728   -3.580923
     94          7           0       -4.998431    1.540071   -1.225879
     95          6           0       -3.986139    2.393107   -1.488350
     96          6           0       -4.612190    3.599063   -2.052155
     97          6           0       -6.089542    3.452916   -1.948243
     98          6           0       -6.179696    2.236819   -1.165257
     99          6           0       -3.821197    4.704527   -2.689091
    100          6           0       -7.231998    4.278817   -2.457040
    101          8           0       -8.432037    4.093512   -2.046668
    102          6           0       -6.891103    5.371948   -3.379173
    103          7           0       -6.690409   -0.238625    0.557565
    104          6           0       -7.578583    0.745640    0.333325
    105          6           0       -8.922882    0.415199    0.936693
    106          6           0       -8.819792   -1.110047    1.406331
    107          6           0       -7.339766   -1.382342    1.058833
    108          6           0       -9.352993    1.283467    2.118855
    109          6           0       -9.898255   -2.087734    0.864356
    110          6           0       -9.726891   -2.270270   -0.626514
    111          7           0       -4.556835   -2.230920    0.430997
    112          6           0       -5.477118   -2.977231    1.199216
    113          6           0       -4.776168   -4.194562    1.656601
    114          6           0       -3.479557   -4.059794    1.137833
    115          6           0       -3.373628   -2.834637    0.425615
    116          6           0       -5.329488   -5.211627    2.484568
    117          6           0       -2.173296   -4.670339    1.039739
    118          8           0       -1.693309   -5.753177    1.372604
    119          6           0       -1.156561   -3.597380    0.455434
    120          6           0       -0.363545   -4.256943   -0.639378
    121          8           0       -0.921418   -4.632867   -1.685352
    122          8           0        0.948482   -4.139044   -0.365440
    123          6           0        1.776594   -4.768440   -1.428416
    124          1           0       -2.002785    3.082833   -1.226144
    125          1           0       -8.170381    2.408696   -0.506575
    126          1           0       -7.314915   -3.306299    1.951401
    127          1           0        0.523988   -1.014215   -0.128968
    128          1           0        0.016387    1.466882   -1.363307
    129          1           0       -0.005761    0.580528    1.492223
    130          1           0       -1.087315    1.940931    1.126366
    131          1           0        0.608009    2.126025    0.792804
    132          1           0       -0.381907   -0.293441   -2.926406
    133          1           0       -0.253827   -2.037360   -2.493333
    134          1           0        2.182751   -0.763178   -1.753695
    135          1           0        1.658145    0.071190   -3.172676
    136          1           0       -2.750432    4.610957   -2.469774
    137          1           0       -4.119086    5.636095   -2.195839
    138          1           0       -4.011682    4.795419   -3.760601
    139          1           0       -6.197032    6.052439   -2.891668
    140          1           0       -7.846341    5.790025   -3.702611
    141          1           0       -6.364258    4.950045   -4.242327
    142          1           0       -9.710342    0.503064    0.198245
    143          1           0       -8.909187   -1.207081    2.498313
    144          1           0      -10.324678    1.787870    1.959211
    145          1           0       -8.574338    2.009897    2.309949
    146          1           0       -9.422773    0.763275    3.072655
    147          1           0      -10.897057   -1.670123    1.013138
    148          1           0       -9.880744   -3.059960    1.345463
    149          1           0      -10.250057   -1.404246   -1.042904
    150          1           0      -10.183841   -3.202136   -0.953385
    151          1           0       -8.672376   -2.188112   -0.914439
    152          1           0       -5.022516   -6.158840    2.061426
    153          1           0       -6.413203   -5.132880    2.540567
    154          1           0       -4.850587   -4.969670    3.437129
    155          1           0       -0.521705   -3.265749    1.277964
    156          1           0        2.426291   -5.499037   -0.936684
    157          1           0        2.269789   -3.931553   -1.957696
    158          1           0        1.269545   -5.391905   -2.155490
 ---------------------------------------------------------------------

 SCF Done:  E(RCAM-B3LYP) =  -4069.39177827     A.U. after   28 cycles

 Excitation energies and oscillator strengths:

 Excited State   1:      Singlet-A      0.1805 eV 6867.80 nm  f=0.0033  <S**2>=0.000
     312 -> 313        0.48848
     312 -> 315       -0.38586
     312 -> 316        0.77218
     312 -> 318        0.14776
     312 <- 313       -0.32893
     312 <- 315        0.27882
     312 <- 316       -0.56340
     312 <- 318       -0.10787
 This state for optimization and/or second-order correction.
 Total Energy, E(TD-HF/TD-DFT) =  -4069.38514392
 Copying the excited state density for this state as the 1-particle RhoCI density.

 Excited State   2:      Singlet-A      0.5177 eV 2395.02 nm  f=0.0284  <S**2>=0.000
     312 -> 313        0.60924
     312 -> 315        0.16346
     312 -> 316       -0.30881
     312 -> 318       -0.14214

 Excited State   3:      Singlet-A      0.9745 eV 1272.26 nm  f=0.0075  <S**2>=0.000
     312 -> 314        0.70480

 Excited State   4:      Singlet-A      1.6367 eV  757.52 nm  f=0.0078  <S**2>=0.000
     308 -> 315        0.11829
     310 -> 313        0.53950
     311 -> 314       -0.42725

 Excited State   5:      Singlet-A      1.7032 eV  727.96 nm  f=0.6367  <S**2>=0.000
     308 -> 315        0.10519
     309 -> 317        0.13943
     310 -> 313        0.42277
     311 -> 314        0.53530

 The electronic state is 1-A.
 Alpha  occ. eigenvalues --  -46.88247 -46.87025 -19.29035 -19.25369 -19.23044
 Alpha  occ. eigenvalues --  -19.19078 -19.18981 -19.18187 -19.17065 -19.16625
 Alpha  occ. eigenvalues --  -14.42858 -14.41898 -14.41719 -14.40700 -14.39787
 Alpha  occ. eigenvalues --  -14.39145 -14.38720 -14.37932 -10.40341 -10.36344
 Alpha  occ. eigenvalues --  -10.35718 -10.35163 -10.34879 -10.34281 -10.33159
 Alpha  occ. eigenvalues --  -10.31835 -10.31628 -10.30851 -10.30816 -10.30633
 Alpha  occ. eigenvalues --  -10.30597 -10.30320 -10.30218 -10.29825 -10.29744
 Alpha  occ. eigenvalues --  -10.29714 -10.29656 -10.29597 -10.29503 -10.29487
 Alpha  occ. eigenvalues --  -10.29255 -10.29039 -10.28861 -10.28756 -10.28722
 Alpha  occ. eigenvalues --  -10.28710 -10.28133 -10.28090 -10.28002 -10.27931
 Alpha  occ. eigenvalues --  -10.27828 -10.27784 -10.27762 -10.27696 -10.27655
 Alpha  occ. eigenvalues --  -10.27617 -10.27536 -10.27396 -10.27336 -10.27093
 Alpha  occ. eigenvalues --  -10.27043 -10.27031 -10.26882 -10.26825 -10.26738
 Alpha  occ. eigenvalues --  -10.26730 -10.26656 -10.26391 -10.26332 -10.26053
 Alpha  occ. eigenvalues --  -10.26019 -10.25798 -10.25726 -10.25687 -10.25652
 Alpha  occ. eigenvalues --  -10.25544 -10.25378 -10.25319 -10.25312 -10.25301
 Alpha  occ. eigenvalues --  -10.25085 -10.24963 -10.24892 -10.24331 -10.24159
 Alpha  occ. eigenvalues --  -10.24028  -3.16964  -3.15776  -1.91848  -1.91432
 Alpha  occ. eigenvalues --   -1.91276  -1.90659  -1.90247  -1.90083  -1.23688
 Alpha  occ. eigenvalues --   -1.16302  -1.13303  -1.09475  -1.07563  -1.07489
 Alpha  occ. eigenvalues --   -1.06450  -1.05092  -1.04328  -1.04121  -1.03839
 Alpha  occ. eigenvalues --   -1.03665  -1.03023  -1.02840  -1.02401  -1.01456
 Alpha  occ. eigenvalues --   -0.93507  -0.91154  -0.90661  -0.89858  -0.89521
 Alpha  occ. eigenvalues --   -0.88847  -0.88579  -0.88486  -0.88270  -0.88130
 Alpha  occ. eigenvalues --   -0.87635  -0.87557  -0.87165  -0.87037  -0.86568
 Alpha  occ. eigenvalues --   -0.85597  -0.84346  -0.84210  -0.83365  -0.83248
 Alpha  occ. eigenvalues --   -0.83172  -0.82562  -0.82419  -0.81892  -0.81250
 Alpha  occ. eigenvalues --   -0.80203  -0.79155  -0.78108  -0.77941  -0.77741
 Alpha  occ. eigenvalues --   -0.77535  -0.76642  -0.76565  -0.75838  -0.75309
 Alpha  occ. eigenvalues --   -0.74518  -0.73193  -0.72220  -0.72117  -0.71488
 Alpha  occ. eigenvalues --   -0.70202  -0.70004  -0.69566  -0.69017  -0.68653
 Alpha  occ. eigenvalues --   -0.67983  -0.67767  -0.66793  -0.66608  -0.65945
 Alpha  occ. eigenvalues --   -0.65627  -0.65194  -0.64666  -0.64502  -0.64132
 Alpha  occ. eigenvalues --   -0.64054  -0.63723  -0.63533  -0.61439  -0.60789
 Alpha  occ. eigenvalues --   -0.60478  -0.59912  -0.59768  -0.59473  -0.59179
 Alpha  occ. eigenvalues --   -0.58682  -0.58367  -0.58200  -0.57721  -0.57554
 Alpha  occ. eigenvalues --   -0.56701  -0.56651  -0.56249  -0.55951  -0.55678
 Alpha  occ. eigenvalues --   -0.55583  -0.55084  -0.54984  -0.54923  -0.54675
 Alpha  occ. eigenvalues --   -0.54510  -0.53895  -0.53764  -0.53558  -0.53259
 Alpha  occ. eigenvalues --   -0.53159  -0.52934  -0.52830  -0.52686  -0.52641
 Alpha  occ. eigenvalues --   -0.52398  -0.52217  -0.51982  -0.51919  -0.51552
 Alpha  occ. eigenvalues --   -0.51376  -0.51172  -0.50949  -0.50866  -0.50478
 Alpha  occ. eigenvalues --   -0.50301  -0.50213  -0.50013  -0.50004  -0.49598
 Alpha  occ. eigenvalues --   -0.49483  -0.49440  -0.49410  -0.48972  -0.48811
 Alpha  occ. eigenvalues --   -0.48787  -0.48647  -0.48420  -0.48302  -0.48068
 Alpha  occ. eigenvalues --   -0.47915  -0.47849  -0.47575  -0.47487  -0.47311
 Alpha  occ. eigenvalues --   -0.47105  -0.47003  -0.46731  -0.46644  -0.46588
 Alpha  occ. eigenvalues --   -0.46210  -0.46191  -0.45898  -0.45670  -0.45581
 Alpha  occ. eigenvalues --   -0.45365  -0.45106  -0.45020  -0.44909  -0.44797
 Alpha  occ. eigenvalues --   -0.44534  -0.44515  -0.44342  -0.44281  -0.44070
 Alpha  occ. eigenvalues --   -0.43906  -0.43760  -0.43577  -0.43528  -0.43434
 Alpha  occ. eigenvalues --   -0.43266  -0.43064  -0.42957  -0.42861  -0.42490
 Alpha  occ. eigenvalues --   -0.42400  -0.42334  -0.42030  -0.42000  -0.41657
 Alpha  occ. eigenvalues --   -0.41598  -0.41539  -0.41277  -0.41121  -0.41018
 Alpha  occ. eigenvalues --   -0.40962  -0.40906  -0.40604  -0.40246  -0.40095
 Alpha  occ. eigenvalues --   -0.39949  -0.39744  -0.39528  -0.39458  -0.39065
 Alpha  occ. eigenvalues --   -0.38885  -0.38752  -0.38410  -0.37855  -0.37686
 Alpha  occ. eigenvalues --   -0.37656  -0.36844  -0.36701  -0.36636  -0.35786
 Alpha  occ. eigenvalues --   -0.34908  -0.34671  -0.33766  -0.33646  -0.33558
 Alpha  occ. eigenvalues --   -0.32611  -0.31714  -0.31561  -0.31463  -0.30910
 Alpha  occ. eigenvalues --   -0.30738  -0.30162  -0.29913  -0.29721  -0.28907
 Alpha  occ. eigenvalues --   -0.28710  -0.28506  -0.24686  -0.23336  -0.21647
 Alpha  occ. eigenvalues --   -0.20503  -0.16023
 Alpha virt. eigenvalues --   -0.09342  -0.08131  -0.02300  -0.01616  -0.01072
 Alpha virt. eigenvalues --   -0.00467   0.00530   0.01481   0.02884   0.03000
 Alpha virt. eigenvalues --    0.03836   0.03992   0.04870   0.05573   0.06109

 Mulliken charges:
               1
     1  Mg   0.798620
     2  C   -0.013904
     3  C   -0.094343
     4  C   -0.047553
     5  C   -0.063223
     6  N   -0.257307
     7  C   -0.061947
     8  C   -0.000817
     9  C   -0.082847
    10  C    0.045661
    11  C    0.105836
    12  C    0.020218
    13  C   -0.061074
    14  H    0.034776
    15  N   -0.432641
    16  C    0.165050
    17  C   -0.180109
    18  C   -0.006375
    19  C    0.143720
    20  C    0.110711
    21  C    0.010080
    22  O   -0.249547
    23  C    0.063555
    24  N   -0.335889
    25  C    0.042912
    26  C   -0.027586
    27  C   -0.024803
    28  C    0.075477
    29  C    0.075910
    30  C    0.034821
    31  C   -0.006658
    32  N   -0.310246
    33  C    0.080821
    34  C   -0.169311
    35  C    0.021694
    36  C    0.080960
    37  C    0.126276
    38  C    0.025640
    39  O   -0.193273
    40  C    0.005912
    41  C    0.212474
    42  O   -0.022652
    43  O   -0.281034
    44  C    0.145291
    45  H   -0.018241
    46  H   -0.017084
    47  H   -0.040639
    48  H   -0.006797
    49  H   -0.004829
    50  H    0.024759
    51  H    0.018779
    52  H    0.017333
    53  H    0.026066
    54  H    0.052925
    55  H    0.017675
    56  H    0.021643
    57  H    0.005292
    58  H    0.027126
    59  H    0.037156
    60  H    0.038243
    61  H    0.036082
    62  H    0.028132
    63  H    0.017007
    64  H    0.010342
    65  H    0.023866
    66  H    0.012994
    67  H    0.005231
    68  H    0.007436
    69  H    0.005872
    70  H    0.009115
    71  H    0.020259
    72  H    0.028964
    73  H    0.050894
    74  H    0.010630
    75  H    0.045543
    76  H    0.038076
    77  H    0.059694
    78  H    0.059135
    79  H    0.041467
    80  Mg   0.835181
    81  C   -0.012009
    82  C   -0.088467
    83  C   -0.047098
    84  C   -0.067630
    85  N   -0.253339
    86  C   -0.050502
    87  C   -0.023697
    88  C   -0.096996
    89  C    0.043650
    90  C    0.085164
    91  C    0.109178
    92  C   -0.148145
    93  H    0.045789
    94  N   -0.423271
    95  C    0.161304
    96  C   -0.175427
    97  C   -0.009538
    98  C    0.151802
    99  C    0.100235
   100  C    0.014482
   101  O   -0.254913
   102  C    0.061687
   103  N   -0.350850
   104  C    0.037091
   105  C   -0.019259
   106  C   -0.034779
   107  C    0.090040
   108  C    0.074254
   109  C    0.035148
   110  C   -0.007405
   111  N   -0.324095
   112  C    0.079472
   113  C   -0.165195
   114  C    0.004251
   115  C    0.093956
   116  C    0.131767
   117  C    0.039441
   118  O   -0.185394
   119  C    0.005003
   120  C    0.219571
   121  O   -0.268309
   122  O   -0.295406
   123  C    0.009755
   124  H   -0.020233
   125  H   -0.017506
   126  H   -0.042183
   127  H    0.003527
   128  H   -0.000356
   129  H    0.032667
   130  H    0.015727
   131  H    0.041969
   132  H    0.002629
   133  H    0.036723
   134  H    0.050074
   135  H    0.017019
   136  H    0.005929
   137  H    0.024880
   138  H    0.036792
   139  H    0.037448
   140  H    0.034688
   141  H    0.032545
   142  H    0.013217
   143  H    0.011298
   144  H    0.023749
   145  H    0.011474
   146  H    0.004348
   147  H    0.004998
   148  H    0.002972
   149  H    0.010313
   150  H    0.016780
   151  H    0.030985
   152  H    0.045950
   153  H    0.006964
   154  H    0.045570
   155  H    0.030227
   156  H    0.002142
   157  H    0.096697
   158  H    0.010057
 Sum of Mulliken charges =  -0.00000

 Dipole moment (field-independent basis, Debye):
    X=              6.2660    Y=              5.1891    Z=             -3.4203  Tot=              8.8255
 Quadrupole moment (field-independent basis, Debye-Ang):
   XX=           -496.4347   YY=           -554.7580   ZZ=           -466.8709
   XY=             16.6992   XZ=            -38.2025   YZ=             -7.0149

 Normal termination of Gaussian 16 at Fri Sep 10 01:01:45 2021.
