 Gaussian 16, Revision A.03,
 Gaussian 16:  ES64L-G16RevA.03 25-Dec-2016

 -----------------------------------
 #p cam-b3lyp/Def2SVP td=(nstates=5)
 -----------------------------------

 --------------------------------
 TDDFT excited states in gaussian
 --------------------------------
 Symbolic Z-matrix:
 Charge =  0 Multiplicity = 1

                         Standard orientation:
 ---------------------------------------------------------------------
 Center     Atomic      Atomic             Coordinates (Angstroms)
 Number     Number       Type             X           Y           Z
 ---------------------------------------------------------------------
      1         12           0        6.525159   -0.619083   -0.486707
      2          6           0        6.754757    2.745037    0.714207
      3          6           0        7.614988   -1.631872    2.584057
      4          6           0        6.765733   -3.555122   -1.660768
      5          6           0        6.559480    0.688203   -3.717108
      6          7           0        7.079600    0.508267    1.336016
      7          6           0        7.066422    1.790842    1.685301
      8          6           0        7.341564    2.021131    3.201427
      9          6           0        8.136807    0.676483    3.520030
     10          6           0        7.551009   -0.214203    2.438622
     11          6           0        9.641664    0.791825    3.299570
     12          6           0        6.021099    2.117547    4.037373
     13          6           0        6.186070    2.662776    5.458944
     14          1           0        5.131375    3.496154    6.016122
     15          7           0        6.630600   -2.363013    0.435486
     16          6           0        7.084931   -2.588695    1.691646
     17          6           0        6.961192   -4.045340    1.914256
     18          6           0        6.576225   -4.672443    0.619406
     19          6           0        6.668876   -3.543982   -0.271307
     20          6           0        7.151630   -4.692423    3.251703
     21          6           0        6.196831   -6.069609    0.242419
     22          8           0        6.124756   -6.449524   -0.976205
     23          6           0        5.995314   -7.017931    1.352878
     24          7           0        6.866725   -1.355890   -2.409748
     25          6           0        6.865296   -2.670684   -2.655304
     26          6           0        6.846442   -2.950931   -4.128751
     27          6           0        6.588927   -1.546034   -4.842687
     28          6           0        6.585963   -0.640088   -3.586692
     29          6           0        8.117303   -3.590678   -4.704638
     30          6           0        5.386243   -1.461734   -5.815757
     31          6           0        4.092124   -1.597992   -5.045182
     32          7           0        6.458074    1.359390   -1.376757
     33          6           0        6.506426    1.671300   -2.743157
     34          6           0        6.541814    3.141494   -2.849665
     35          6           0        6.528235    3.585232   -1.528772
     36          6           0        6.513485    2.462863   -0.652210
     37          6           0        6.638641    3.887457   -4.057389
     38          6           0        6.547631    4.746096   -0.653629
     39          8           0        6.468774    5.963311   -0.825854
     40          6           0        6.818088    4.247404    0.834318
     41          6           0        5.816184    4.924081    1.729642
     42          8           0        4.599346    4.661682    1.641228
     43          8           0        6.463688    5.587932    2.699478
     44          6           0        5.526577    6.257962    3.640241
     45          1           0        8.171190   -2.051676    3.424501
     46          1           0        6.739604   -4.549475   -2.111344
     47          1           0        6.485669    1.169255   -4.694141
     48          1           0        7.967663    2.885468    3.423567
     49          1           0        7.893536    0.283985    4.507191
     50          1           0        9.904628    1.742267    2.835425
     51          1           0        9.904089   -0.037970    2.643013
     52          1           0       10.183699    0.620721    4.229999
     53          1           0        5.665152    1.112613    4.264245
     54          1           0        5.272354    2.708834    3.509089
     55          1           0        7.158742    3.136771    5.593652
     56          1           0        6.197946    1.819114    6.149085
     57          1           0        7.589248   -4.002211    3.971872
     58          1           0        7.906653   -5.468129    3.125497
     59          1           0        6.229390   -5.134905    3.628555
     60          1           0        6.912332   -7.086491    1.938477
     61          1           0        5.642375   -7.942857    0.898129
     62          1           0        5.232678   -6.620060    2.022978
     63          1           0        6.039479   -3.635707   -4.386277
     64          1           0        7.441164   -1.231226   -5.445399
     65          1           0        7.937931   -4.535981   -5.217406
     66          1           0        8.829996   -3.716710   -3.890098
     67          1           0        8.679597   -2.955049   -5.388172
     68          1           0        5.420441   -2.281315   -6.532738
     69          1           0        5.353160   -0.529236   -6.379322
     70          1           0        3.977275   -2.677252   -4.951157
     71          1           0        3.265742   -1.165167   -5.609953
     72          1           0        4.183816   -1.191086   -4.037955
     73          1           0        5.932248    4.712229   -3.963949
     74          1           0        6.411748    3.267920   -4.924739
     75          1           0        7.684702    4.191546   -4.023593
     76          1           0        7.841691    4.529859    1.078404
     77          1           0        5.792761    7.314838    3.660124
     78          1           0        5.580738    5.704814    4.578057
     79          1           0        4.484345    6.314153    3.324120
     80         12           0       -6.682453   -0.812159    0.368143
     81          6           0       -6.630208    2.371373   -1.287584
     82          6           0       -5.646436    0.804742    3.187168
     83          6           0       -6.284487   -3.650193    1.729988
     84          6           0       -6.594984   -2.296833   -2.783645
     85          7           0       -6.231610    1.315140    0.772642
     86          6           0       -6.306815    2.443699    0.083406
     87          6           0       -6.097852    3.728735    0.928728
     88          6           0       -5.249389    3.089151    2.132852
     89          6           0       -5.761476    1.652280    2.056439
     90          6           0       -3.752012    3.076960    1.873901
     91          6           0       -7.451995    4.335294    1.439016
     92          6           0       -7.348497    5.752835    2.006133
     93          1           0       -8.460431    6.673483    1.785974
     94          7           0       -6.535593   -1.307948    2.284185
     95          6           0       -6.118596   -0.521529    3.298543
     96          6           0       -6.173294   -1.359815    4.506205
     97          6           0       -6.499230   -2.752722    4.095977
     98          6           0       -6.430424   -2.625775    2.654018
     99          6           0       -6.006676   -0.804109    5.890709
    100          6           0       -6.807607   -3.996556    4.873134
    101          8           0       -6.826956   -5.150919    4.316449
    102          6           0       -6.994230   -3.834674    6.322433
    103          7           0       -6.257179   -2.697044   -0.399115
    104          6           0       -6.189519   -3.771957    0.405802
    105          6           0       -6.147266   -5.051425   -0.395181
    106          6           0       -6.445750   -4.622184   -1.906554
    107          6           0       -6.524067   -3.090558   -1.723858
    108          6           0       -4.832738   -5.829287   -0.337476
    109          6           0       -7.620561   -5.342069   -2.623676
    110          6           0       -8.933392   -4.949027   -1.985406
    111          7           0       -6.808811   -0.128179   -1.677400
    112          6           0       -6.724202   -0.915275   -2.846759
    113          6           0       -6.747791    0.010765   -3.997543
    114          6           0       -6.821883    1.283880   -3.412584
    115          6           0       -6.822600    1.161106   -1.996805
    116          6           0       -6.654799   -0.362741   -5.367926
    117          6           0       -6.888921    2.704298   -3.670706
    118          8           0       -7.006273    3.399381   -4.679080
    119          6           0       -6.640234    3.478401   -2.304936
    120          6           0       -7.697061    4.540709   -2.174048
    121          8           0       -8.893769    4.228905   -2.042552
    122          8           0       -7.102118    5.736004   -2.007699
    123          6           0       -8.109429    6.820418   -1.862137
    124          1           0       -5.106295    1.173896    4.059440
    125          1           0       -6.254540   -4.659833    2.146169
    126          1           0       -6.670153   -2.686729   -3.801002
    127          1           0       -5.522181    4.505473    0.439794
    128          1           0       -5.515621    3.538636    3.085968
    129          1           0       -3.514299    3.393681    0.869255
    130          1           0       -3.434179    2.054933    2.033573
    131          1           0       -3.233990    3.675140    2.628996
    132          1           0       -7.769240    3.795069    2.340269
    133          1           0       -8.196398    4.308347    0.667168
    134          1           0       -6.396180    6.231654    1.747714
    135          1           0       -7.329457    5.689702    3.096842
    136          1           0       -5.614519    0.220160    5.868535
    137          1           0       -5.216544   -1.387010    6.376280
    138          1           0       -6.918424   -0.878986    6.487188
    139          1           0       -6.096063   -3.401366    6.756028
    140          1           0       -7.294345   -4.817873    6.690048
    141          1           0       -7.804019   -3.116468    6.492832
    142          1           0       -6.916948   -5.738978   -0.066592
    143          1           0       -5.584884   -4.816758   -2.562974
    144          1           0       -4.956710   -6.870230    0.016300
    145          1           0       -4.144882   -5.290272    0.300380
    146          1           0       -4.284859   -5.880574   -1.276827
    147          1           0       -7.529921   -6.424661   -2.505700
    148          1           0       -7.667688   -5.136924   -3.687955
    149          1           0       -8.999643   -5.620212   -1.123888
    150          1           0       -9.758624   -5.110584   -2.675995
    151          1           0       -8.892803   -3.923026   -1.601577
    152          1           0       -7.390635    0.224291   -5.901254
    153          1           0       -6.823109   -1.429307   -5.501613
    154          1           0       -5.619269   -0.081218   -5.576968
    155          1           0       -5.636326    3.902648   -2.346942
    156          1           0       -7.885563    7.569358   -2.628071
    157          1           0       -8.047968    7.145532   -0.806549
    158          1           0       -9.140457    6.581323   -2.095102
 ---------------------------------------------------------------------

 SCF Done:  E(RCAM-B3LYP) =  -4069.81187633     A.U. after   19 cycles

 Excitation energies and oscillator strengths:

 Excited State   1:      Singlet-A      1.6689 eV  742.92 nm  f=0.1199  <S**2>=0.000
     309 -> 315       -0.10326
     310 -> 316        0.13758
     311 -> 313       -0.41016
     312 -> 314        0.55041
 This state for optimization and/or second-order correction.
 Total Energy, E(TD-HF/TD-DFT) =  -4069.75054601
 Copying the excited state density for this state as the 1-particle RhoCI density.

 Excited State   2:      Singlet-A      1.6852 eV  735.72 nm  f=0.6186  <S**2>=0.000
     309 -> 315        0.14206
     310 -> 316        0.10479
     311 -> 313        0.54949
     312 -> 314        0.40953

 Excited State   3:      Singlet-A      2.1845 eV  567.57 nm  f=0.0694  <S**2>=0.000
     309 -> 313       -0.14855
     310 -> 314        0.62565
     312 -> 316       -0.26414

 Excited State   4:      Singlet-A      2.1935 eV  565.24 nm  f=0.1242  <S**2>=0.000
     309 -> 313        0.62326
     310 -> 314        0.14723
     311 -> 315       -0.27146

 Excited State   5:      Singlet-A      2.6468 eV  468.44 nm  f=0.0000  <S**2>=0.000
     312 -> 313        0.70710

 The electronic state is 1-A.
 Alpha  occ. eigenvalues --  -46.87858 -46.87544 -19.26409 -19.26202 -19.19142
 Alpha  occ. eigenvalues --  -19.19024 -19.18863 -19.18641 -19.18238 -19.17929
 Alpha  occ. eigenvalues --  -14.42515 -14.42371 -14.41507 -14.41246 -14.39463
 Alpha  occ. eigenvalues --  -14.39241 -14.38648 -14.38484 -10.39197 -10.38952
 Alpha  occ. eigenvalues --  -10.35495 -10.35321 -10.34460 -10.34103 -10.31824
 Alpha  occ. eigenvalues --  -10.31610 -10.31473 -10.31172 -10.30980 -10.30895
 Alpha  occ. eigenvalues --  -10.30631 -10.30565 -10.30289 -10.30258 -10.30243
 Alpha  occ. eigenvalues --  -10.30038 -10.29975 -10.29785 -10.29687 -10.29331
 Alpha  occ. eigenvalues --  -10.29310 -10.29297 -10.28842 -10.28680 -10.28551
 Alpha  occ. eigenvalues --  -10.28504 -10.28429 -10.28288 -10.28198 -10.27956
 Alpha  occ. eigenvalues --  -10.27891 -10.27850 -10.27790 -10.27641 -10.27544
 Alpha  occ. eigenvalues --  -10.27539 -10.27535 -10.27491 -10.27471 -10.27426
 Alpha  occ. eigenvalues --  -10.27391 -10.27366 -10.27361 -10.27284 -10.27242
 Alpha  occ. eigenvalues --  -10.26908 -10.26828 -10.26546 -10.26447 -10.26369
 Alpha  occ. eigenvalues --  -10.26306 -10.26211 -10.26072 -10.26059 -10.25879
 Alpha  occ. eigenvalues --  -10.25826 -10.25762 -10.25753 -10.25471 -10.25309
 Alpha  occ. eigenvalues --  -10.24892 -10.24845 -10.24760 -10.24715 -10.24658
 Alpha  occ. eigenvalues --  -10.24581  -3.16601  -3.16294  -1.91483  -1.91176
 Alpha  occ. eigenvalues --   -1.91069  -1.90911  -1.90765  -1.90602  -1.16756
 Alpha  occ. eigenvalues --   -1.16499  -1.08699  -1.08533  -1.07263  -1.06896
 Alpha  occ. eigenvalues --   -1.06808  -1.06763  -1.04648  -1.04368  -1.03820
 Alpha  occ. eigenvalues --   -1.03547  -1.03293  -1.02928  -1.02470  -1.01997
 Alpha  occ. eigenvalues --   -0.92041  -0.91862  -0.89569  -0.89391  -0.89273
 Alpha  occ. eigenvalues --   -0.88984  -0.88335  -0.88121  -0.87923  -0.87740
 Alpha  occ. eigenvalues --   -0.87684  -0.87561  -0.87327  -0.87033  -0.85064
 Alpha  occ. eigenvalues --   -0.84857  -0.83985  -0.83780  -0.83014  -0.82855
 Alpha  occ. eigenvalues --   -0.82725  -0.82522  -0.81675  -0.81468  -0.80670
 Alpha  occ. eigenvalues --   -0.80323  -0.78852  -0.78536  -0.77282  -0.77022
 Alpha  occ. eigenvalues --   -0.77017  -0.76763  -0.76003  -0.75690  -0.74952
 Alpha  occ. eigenvalues --   -0.74695  -0.72832  -0.72585  -0.71736  -0.71450
 Alpha  occ. eigenvalues --   -0.69948  -0.69664  -0.68949  -0.68692  -0.67705
 Alpha  occ. eigenvalues --   -0.67490  -0.67306  -0.67078  -0.65369  -0.65129
 Alpha  occ. eigenvalues --   -0.64925  -0.64694  -0.64651  -0.64525  -0.64322
 Alpha  occ. eigenvalues --   -0.64099  -0.62390  -0.62150  -0.60494  -0.60246
 Alpha  occ. eigenvalues --   -0.59880  -0.59649  -0.59051  -0.58876  -0.58569
 Alpha  occ. eigenvalues --   -0.58309  -0.57668  -0.57424  -0.57368  -0.57132
 Alpha  occ. eigenvalues --   -0.56372  -0.56093  -0.56081  -0.55755  -0.55581
 Alpha  occ. eigenvalues --   -0.55403  -0.55343  -0.55138  -0.54599  -0.54374
 Alpha  occ. eigenvalues --   -0.53982  -0.53754  -0.53357  -0.53296  -0.53123
 Alpha  occ. eigenvalues --   -0.53020  -0.52995  -0.52819  -0.52778  -0.52564
 Alpha  occ. eigenvalues --   -0.52479  -0.52312  -0.51964  -0.51779  -0.51698
 Alpha  occ. eigenvalues --   -0.51528  -0.51263  -0.51082  -0.50620  -0.50396
 Alpha  occ. eigenvalues --   -0.50079  -0.49977  -0.49858  -0.49768  -0.49585
 Alpha  occ. eigenvalues --   -0.49370  -0.49282  -0.49173  -0.49078  -0.48952
 Alpha  occ. eigenvalues --   -0.48670  -0.48516  -0.48506  -0.48424  -0.48277
 Alpha  occ. eigenvalues --   -0.48242  -0.47762  -0.47476  -0.47358  -0.47014
 Alpha  occ. eigenvalues --   -0.46859  -0.46641  -0.46592  -0.46420  -0.46409
 Alpha  occ. eigenvalues --   -0.46225  -0.46164  -0.45974  -0.45897  -0.45695
 Alpha  occ. eigenvalues --   -0.45251  -0.45105  -0.44649  -0.44570  -0.44394
 Alpha  occ. eigenvalues --   -0.44343  -0.44203  -0.44163  -0.44087  -0.43986
 Alpha  occ. eigenvalues --   -0.43979  -0.43831  -0.43577  -0.43455  -0.43425
 Alpha  occ. eigenvalues --   -0.43256  -0.43091  -0.42804  -0.42799  -0.42774
 Alpha  occ. eigenvalues --   -0.42710  -0.42457  -0.42071  -0.41852  -0.41770
 Alpha  occ. eigenvalues --   -0.41616  -0.41545  -0.41326  -0.41207  -0.40943
 Alpha  occ. eigenvalues --   -0.40883  -0.40853  -0.40626  -0.40624  -0.40570
 Alpha  occ. eigenvalues --   -0.40379  -0.40337  -0.40088  -0.39481  -0.39335
 Alpha  occ. eigenvalues --   -0.38524  -0.38242  -0.37848  -0.37518  -0.37375
 Alpha  occ. eigenvalues --   -0.37345  -0.37155  -0.37066  -0.36812  -0.36641
 Alpha  occ. eigenvalues --   -0.36269  -0.36098  -0.34348  -0.34135  -0.33882
 Alpha  occ. eigenvalues --   -0.33730  -0.33250  -0.33060  -0.31393  -0.31198
 Alpha  occ. eigenvalues --   -0.31099  -0.30855  -0.30099  -0.29831  -0.29506
 Alpha  occ. eigenvalues --   -0.29380  -0.29227  -0.29100  -0.24143  -0.23918
 Alpha  occ. eigenvalues --   -0.21187  -0.21002
 Alpha virt. eigenvalues --   -0.08833  -0.08682  -0.01808  -0.01573  -0.00117
 Alpha virt. eigenvalues --    0.00074   0.02139   0.02321   0.03053   0.03330
 Alpha virt. eigenvalues --    0.04640   0.04865   0.04987   0.05302   0.06064

 Mulliken charges:
               1
     1  Mg   0.838577
     2  C   -0.003268
     3  C   -0.094296
     4  C   -0.045763
     5  C   -0.063728
     6  N   -0.256760
     7  C   -0.052614
     8  C   -0.013978
     9  C   -0.086968
    10  C    0.046194
    11  C    0.104778
    12  C    0.053544
    13  C   -0.071424
    14  H    0.034865
    15  N   -0.433155
    16  C    0.168403
    17  C   -0.177149
    18  C   -0.003887
    19  C    0.148675
    20  C    0.110149
    21  C    0.012337
    22  O   -0.249529
    23  C    0.062445
    24  N   -0.341118
    25  C    0.041261
    26  C   -0.028189
    27  C   -0.024016
    28  C    0.074783
    29  C    0.076121
    30  C    0.035062
    31  C   -0.004561
    32  N   -0.310482
    33  C    0.080334
    34  C   -0.169486
    35  C    0.008331
    36  C    0.082920
    37  C    0.127284
    38  C    0.046060
    39  O   -0.188473
    40  C   -0.005356
    41  C    0.212959
    42  O   -0.257763
    43  O   -0.304549
    44  C    0.157923
    45  H   -0.017585
    46  H   -0.016695
    47  H   -0.041138
    48  H    0.000944
    49  H   -0.004215
    50  H    0.025534
    51  H    0.016653
    52  H    0.016689
    53  H    0.011040
    54  H    0.043578
    55  H    0.018223
    56  H    0.017965
    57  H    0.005753
    58  H    0.026985
    59  H    0.039627
    60  H    0.037385
    61  H    0.035851
    62  H    0.031607
    63  H    0.016583
    64  H    0.009633
    65  H    0.023316
    66  H    0.012542
    67  H    0.004914
    68  H    0.006495
    69  H    0.005087
    70  H    0.008589
    71  H    0.018575
    72  H    0.028776
    73  H    0.047752
    74  H    0.009474
    75  H    0.046087
    76  H    0.035265
    77  H    0.043112
    78  H    0.046229
    79  H    0.052880
    80  Mg   0.837975
    81  C   -0.016750
    82  C   -0.087654
    83  C   -0.045799
    84  C   -0.065004
    85  N   -0.254671
    86  C   -0.049260
    87  C   -0.015226
    88  C   -0.090620
    89  C    0.045931
    90  C    0.114392
    91  C    0.062500
    92  C   -0.077819
    93  H    0.034384
    94  N   -0.423465
    95  C    0.162888
    96  C   -0.174793
    97  C   -0.008185
    98  C    0.152178
    99  C    0.099509
   100  C    0.015282
   101  O   -0.253572
   102  C    0.061296
   103  N   -0.350059
   104  C    0.037617
   105  C   -0.019828
   106  C   -0.034820
   107  C    0.089047
   108  C    0.073687
   109  C    0.034796
   110  C   -0.007615
   111  N   -0.324158
   112  C    0.078630
   113  C   -0.163202
   114  C    0.002446
   115  C    0.096202
   116  C    0.131452
   117  C    0.042439
   118  O   -0.187782
   119  C    0.000922
   120  C    0.211165
   121  O   -0.251391
   122  O   -0.305186
   123  C    0.152155
   124  H   -0.019545
   125  H   -0.016003
   126  H   -0.040689
   127  H    0.000341
   128  H   -0.004734
   129  H    0.024074
   130  H    0.014441
   131  H    0.017342
   132  H    0.013530
   133  H    0.037403
   134  H    0.021595
   135  H    0.019323
   136  H    0.008828
   137  H    0.025499
   138  H    0.039440
   139  H    0.037865
   140  H    0.035949
   141  H    0.033897
   142  H    0.014106
   143  H    0.012480
   144  H    0.024742
   145  H    0.011612
   146  H    0.005937
   147  H    0.006065
   148  H    0.003541
   149  H    0.010772
   150  H    0.017714
   151  H    0.030225
   152  H    0.045851
   153  H    0.008258
   154  H    0.047068
   155  H    0.036214
   156  H    0.044034
   157  H    0.049591
   158  H    0.053204
 Sum of Mulliken charges =  -0.00000

 Dipole moment (field-independent basis, Debye):
    X=              4.5796    Y=             -2.0928    Z=              6.6524  Tot=              8.3431
 Quadrupole moment (field-independent basis, Debye-Ang):
   XX=           -517.9626   YY=           -534.9083   ZZ=           -464.6101
   XY=            -14.7336   XZ=             -3.1382   YZ=             33.4451

 Normal termination of Gaussian 16 at Sat Sep  4 11:16:19 2021.
