 Gaussian 16, Revision A.03,
 Gaussian 16:  ES64L-G16RevA.03 25-Dec-2016

 -----------------------------------
 #p cam-b3lyp/Def2SVP td=(nstates=5)
 -----------------------------------

 --------------------------------
 TDDFT excited states in gaussian
 --------------------------------
 Symbolic Z-matrix:
 Charge =  0 Multiplicity = 1

                         Standard orientation:
 ---------------------------------------------------------------------
 Center     Atomic      Atomic             Coordinates (Angstroms)
 Number     Number       Type             X           Y           Z
 ---------------------------------------------------------------------
      1         12           0      -15.794326   -0.752768    0.141599
      2          6           0      -15.990955    2.821228    0.131282
      3          6           0      -16.682683   -0.662630   -3.151692
      4          6           0      -16.070499   -3.910346    0.241867
      5          6           0      -16.041236   -0.609064    3.614932
      6          7           0      -16.250247    0.927431   -1.225776
      7          6           0      -16.231309    2.252550   -1.121507
      8          6           0      -16.416313    2.982316   -2.485541
      9          6           0      -17.174354    1.830756   -3.286342
     10          6           0      -16.644823    0.622677   -2.533967
     11          6           0      -18.691133    1.878916   -3.132835
     12          6           0      -15.048622    3.342437   -3.157453
     13          6           0      -15.133235    4.335905   -4.319871
     14          1           0      -14.056695    5.298523   -4.498134
     15          7           0      -15.822291   -2.083398   -1.318364
     16          6           0      -16.196468   -1.868845   -2.602593
     17          6           0      -16.041799   -3.166588   -3.294418
     18          6           0      -15.728903   -4.196499   -2.265111
     19          6           0      -15.889292   -3.432974   -1.054045
     20          6           0      -16.142546   -3.323870   -4.780642
     21          6           0      -15.356330   -5.642436   -2.357795
     22          8           0      -15.354065   -6.411073   -1.336146
     23          6           0      -15.076071   -6.163363   -3.708029
     24          7           0      -16.243515   -2.090807    1.679622
     25          6           0      -16.241163   -3.411477    1.467938
     26          6           0      -16.308749   -4.171568    2.759306
     27          6           0      -16.112216   -3.091448    3.918818
     28          6           0      -16.043668   -1.815615    3.043707
     29          6           0      -17.604517   -4.956185    3.007035
     30          6           0      -14.972172   -3.350669    4.935442
     31          6           0      -13.631947   -3.231397    4.245028
     32          7           0      -15.805520    0.809876    1.647940
     33          6           0      -15.940815    0.644003    3.033889
     34          6           0      -16.000392    1.992781    3.626607
     35          6           0      -15.911708    2.855158    2.535605
     36          6           0      -15.830006    2.093318    1.335098
     37          6           0      -16.179644    2.289468    5.006564
     38          6           0      -15.891766    4.243007    2.102784
     39          8           0      -15.838267    5.330415    2.679131
     40          6           0      -16.065001    4.276847    0.520169
     41          6           0      -15.018650    5.206239   -0.031818
     42          8           0      -13.806379    4.918265    0.037718
     43          8           0      -15.613826    6.163738   -0.759489
     44          6           0      -14.629294    7.102762   -1.360391
     45          1           0      -17.181521   -0.769879   -4.116885
     46          1           0      -16.059861   -4.998539    0.332196
     47          1           0      -16.032921   -0.485712    4.699445
     48          1           0      -17.038110    3.876677   -2.441845
     49          1           0      -16.866653    1.791292   -4.331083
     50          1           0      -18.993359    2.619987   -2.392974
     51          1           0      -18.983032    0.878964   -2.811301
     52          1           0      -19.173353    2.036003   -4.098010
     53          1           0      -14.667392    2.469328   -3.686985
     54          1           0      -14.340661    3.714481   -2.416034
     55          1           0      -16.101548    4.836465   -4.346689
     56          1           0      -15.092836    3.773975   -5.253039
     57          1           0      -16.543774   -2.427523   -5.251943
     58          1           0      -16.894428   -4.089839   -4.969519
     59          1           0      -15.193776   -3.622076   -5.227006
     60          1           0      -15.954804   -6.022379   -4.337712
     61          1           0      -14.740348   -7.190582   -3.570330
     62          1           0      -14.278883   -5.570123   -4.156921
     63          1           0      -15.510763   -4.910426    2.820408
     64          1           0      -17.003339   -2.990135    4.538744
     65          1           0      -17.445315   -6.020536    3.181728
     66          1           0      -18.264673   -4.794112    2.155438
     67          1           0      -18.215060   -4.582656    3.828698
     68          1           0      -15.040091   -4.363436    5.331214
     69          1           0      -14.984764   -2.662675    5.780874
     70          1           0      -13.498547   -4.217007    3.800496
     71          1           0      -12.846809   -3.021553    4.972169
     72          1           0      -13.667001   -2.508333    3.429898
     73          1           0      -15.478889    3.091051    5.239755
     74          1           0      -15.998557    1.412047    5.627002
     75          1           0      -17.225300    2.596746    5.012874
     76          1           0      -17.075166    4.634345    0.322978
     77          1           0      -14.906524    8.107028   -1.039725
     78          1           0      -14.619516    6.898143   -2.431111
     79          1           0      -13.609018    7.039706   -0.980392
     80         12           0       15.963170   -0.802082    0.006371
     81          6           0       15.764695    2.753835    0.448128
     82          6           0       15.073738   -0.297283   -3.247656
     83          6           0       15.689578   -3.947991   -0.303159
     84          6           0       15.709368   -1.106735    3.468813
     85          7           0       15.505787    1.036905   -1.134328
     86          6           0       15.522854    2.336109   -0.877182
     87          6           0       15.345757    3.241271   -2.125733
     88          6           0       14.580443    2.195568   -3.074247
     89          6           0       15.108336    0.892549   -2.477463
     90          6           0       13.070605    2.221788   -2.903843
     91          6           0       16.718840    3.680409   -2.745259
     92          6           0       16.628411    4.809714   -3.773965
     93          1           0       17.711392    5.787655   -3.830992
     94          7           0       15.938569   -1.934906   -1.622937
     95          6           0       15.571361   -1.562962   -2.867161
     96          6           0       15.710656   -2.764855   -3.703941
     97          6           0       16.032112   -3.917618   -2.819343
     98          6           0       15.875290   -3.302116   -1.516794
     99          6           0       15.618923   -2.728589   -5.201843
    100          6           0       16.404875   -5.342020   -3.099232
    101          8           0       16.408038   -6.231087   -2.175993
    102          6           0       16.675443   -5.685180   -4.502990
    103          7           0       15.520807   -2.318658    1.357908
    104          6           0       15.517388   -3.607332    0.974189
    105          6           0       15.446307   -4.531321    2.166491
    106          6           0       15.647438   -3.595623    3.447740
    107          6           0       15.713775   -2.220043    2.748607
    108          6           0       14.149284   -5.326215    2.315702
    109          6           0       16.787803   -3.981729    4.429149
    110          6           0       18.130476   -3.788492    3.761856
    111          7           0       15.956763    0.551297    1.690526
    112          6           0       15.814048    0.214937    3.054561
    113          6           0       15.755006    1.482153    3.811590
    114          6           0       15.845030    2.476029    2.825380
    115          6           0       15.932265    1.871131    1.542428
    116          6           0       15.585756    1.602823    5.219750
    117          6           0       15.875402    3.899444    2.577061
    118          8           0       15.921889    4.904090    3.285760
    119          6           0       15.697386    4.144112    1.016658
    120          6           0       16.744264    5.131506    0.578912
    121          8           0       17.951191    4.835185    0.625086
    122          8           0       16.142644    6.174045   -0.022370
    123          6           0       17.140641    7.175368   -0.484055
    124          1           0       14.581326   -0.271676   -4.220155
    125          1           0       15.699581   -5.039659   -0.343638
    126          1           0       15.729330   -1.117726    4.560669
    127          1           0       14.730395    4.118734   -1.967086
    128          1           0       14.896505    2.296492   -4.109276
    129          1           0       12.768535    2.858075   -2.085283
    130          1           0       12.778106    1.197262   -2.714506
    131          1           0       12.589861    2.503436   -3.845052
    132          1           0       17.097427    2.873099   -3.385308
    133          1           0       17.416066    3.948006   -1.975252
    134          1           0       15.655337    5.315026   -3.746861
    135          1           0       16.675600    4.372501   -4.774289
    136          1           0       15.210967   -1.774170   -5.556870
    137          1           0       14.867997   -3.470526   -5.494268
    138          1           0       16.565725   -2.973540   -5.687875
    139          1           0       15.798489   -5.460067   -5.105267
    140          1           0       17.011584   -6.723794   -4.490360
    141          1           0       17.483205   -5.042642   -4.870778
    142          1           0       16.244386   -5.262948    2.136883
    143          1           0       14.751829   -3.580815    4.086097
    144          1           0       14.309647   -6.420291    2.352368
    145          1           0       13.492878   -5.065357    1.496167
    146          1           0       13.547006   -5.068308    3.185159
    147          1           0       16.720471   -5.040743    4.690138
    148          1           0       16.768121   -3.419556    5.356808
    149          1           0       18.258106   -4.713562    3.191725
    150          1           0       18.915231   -3.672429    4.506656
    151          1           0       18.097696   -2.960712    3.043988
    152          1           0       16.279569    2.363268    5.552693
    153          1           0       15.761593    0.654897    5.724009
    154          1           0       14.535503    1.903187    5.264928
    155          1           0       14.686571    4.521593    0.857465
    156          1           0       16.860249    8.134800   -0.038455
    157          1           0       17.137611    7.112872   -1.588516
    158          1           0       18.159328    7.067560   -0.130330
 ---------------------------------------------------------------------

 SCF Done:  E(RCAM-B3LYP) =  -4069.81176354     A.U. after   19 cycles

 Excitation energies and oscillator strengths:

 Excited State   1:      Singlet-A      1.6753 eV  740.07 nm  f=0.2127  <S**2>=0.000
     310 -> 316        0.16858
     311 -> 314       -0.16263
     312 -> 313        0.66650
     310 <- 316        0.10163
 This state for optimization and/or second-order correction.
 Total Energy, E(TD-HF/TD-DFT) =  -4069.75019693
 Copying the excited state density for this state as the 1-particle RhoCI density.

 Excited State   2:      Singlet-A      1.6801 eV  737.96 nm  f=0.5647  <S**2>=0.000
     309 -> 315        0.17061
     311 -> 314        0.66613
     312 -> 313        0.16258
     309 <- 315        0.10214

 Excited State   3:      Singlet-A      2.1861 eV  567.16 nm  f=0.0950  <S**2>=0.000
     310 -> 313        0.64209
     312 -> 316       -0.27293

 Excited State   4:      Singlet-A      2.1925 eV  565.49 nm  f=0.1051  <S**2>=0.000
     309 -> 314        0.64031
     311 -> 315       -0.27814

 Excited State   5:      Singlet-A      3.0659 eV  404.40 nm  f=0.0000  <S**2>=0.000
     311 -> 313        0.70711

 The electronic state is 1-A.
 Alpha  occ. eigenvalues --  -46.87796 -46.87660 -19.26347 -19.26284 -19.19159
 Alpha  occ. eigenvalues --  -19.19019 -19.18815 -19.18715 -19.18168 -19.18050
 Alpha  occ. eigenvalues --  -14.42497 -14.42450 -14.41449 -14.41359 -14.39402
 Alpha  occ. eigenvalues --  -14.39352 -14.38599 -14.38586 -10.39089 -10.39079
 Alpha  occ. eigenvalues --  -10.35449 -10.35393 -10.34388 -10.34227 -10.31753
 Alpha  occ. eigenvalues --  -10.31679 -10.31405 -10.31308 -10.31023 -10.30909
 Alpha  occ. eigenvalues --  -10.30569 -10.30507 -10.30397 -10.30360 -10.30206
 Alpha  occ. eigenvalues --  -10.30141 -10.29920 -10.29894 -10.29630 -10.29437
 Alpha  occ. eigenvalues --  -10.29401 -10.29254 -10.28749 -10.28718 -10.28654
 Alpha  occ. eigenvalues --  -10.28541 -10.28404 -10.28364 -10.28139 -10.28117
 Alpha  occ. eigenvalues --  -10.28001 -10.27792 -10.27727 -10.27669 -10.27584
 Alpha  occ. eigenvalues --  -10.27518 -10.27499 -10.27483 -10.27483 -10.27469
 Alpha  occ. eigenvalues --  -10.27465 -10.27448 -10.27403 -10.27376 -10.27157
 Alpha  occ. eigenvalues --  -10.27048 -10.26706 -10.26692 -10.26418 -10.26412
 Alpha  occ. eigenvalues --  -10.26234 -10.26182 -10.26138 -10.26022 -10.26018
 Alpha  occ. eigenvalues --  -10.25934 -10.25849 -10.25841 -10.25434 -10.25397
 Alpha  occ. eigenvalues --  -10.24872 -10.24832 -10.24787 -10.24732 -10.24690
 Alpha  occ. eigenvalues --  -10.24685  -3.16539  -3.16410  -1.91421  -1.91292
 Alpha  occ. eigenvalues --   -1.91007  -1.90881  -1.90849  -1.90718  -1.16641
 Alpha  occ. eigenvalues --   -1.16632  -1.08656  -1.08626  -1.07217  -1.06968
 Alpha  occ. eigenvalues --   -1.06943  -1.06642  -1.04581  -1.04495  -1.03760
 Alpha  occ. eigenvalues --   -1.03663  -1.03233  -1.03038  -1.02411  -1.02111
 Alpha  occ. eigenvalues --   -0.91986  -0.91972  -0.89519  -0.89494  -0.89188
 Alpha  occ. eigenvalues --   -0.89150  -0.88286  -0.88220  -0.87869  -0.87793
 Alpha  occ. eigenvalues --   -0.87683  -0.87673  -0.87274  -0.87121  -0.84999
 Alpha  occ. eigenvalues --   -0.84982  -0.83935  -0.83876  -0.82967  -0.82933
 Alpha  occ. eigenvalues --   -0.82652  -0.82649  -0.81595  -0.81585  -0.80596
 Alpha  occ. eigenvalues --   -0.80442  -0.78797  -0.78636  -0.77218  -0.77144
 Alpha  occ. eigenvalues --   -0.76934  -0.76897  -0.75923  -0.75838  -0.74897
 Alpha  occ. eigenvalues --   -0.74802  -0.72774  -0.72699  -0.71672  -0.71580
 Alpha  occ. eigenvalues --   -0.69906  -0.69758  -0.68873  -0.68827  -0.67641
 Alpha  occ. eigenvalues --   -0.67601  -0.67220  -0.67200  -0.65286  -0.65271
 Alpha  occ. eigenvalues --   -0.64853  -0.64770  -0.64653  -0.64620  -0.64268
 Alpha  occ. eigenvalues --   -0.64204  -0.62297  -0.62277  -0.60442  -0.60340
 Alpha  occ. eigenvalues --   -0.59804  -0.59796  -0.58992  -0.58987  -0.58503
 Alpha  occ. eigenvalues --   -0.58425  -0.57584  -0.57553  -0.57308  -0.57236
 Alpha  occ. eigenvalues --   -0.56309  -0.56204  -0.55978  -0.55885  -0.55520
 Alpha  occ. eigenvalues --   -0.55452  -0.55338  -0.55247  -0.54523  -0.54487
 Alpha  occ. eigenvalues --   -0.53912  -0.53895  -0.53298  -0.53227  -0.53222
 Alpha  occ. eigenvalues --   -0.53141  -0.52914  -0.52902  -0.52757  -0.52669
 Alpha  occ. eigenvalues --   -0.52437  -0.52401  -0.51913  -0.51883  -0.51658
 Alpha  occ. eigenvalues --   -0.51617  -0.51200  -0.51195  -0.50573  -0.50477
 Alpha  occ. eigenvalues --   -0.50030  -0.49980  -0.49919  -0.49867  -0.49515
 Alpha  occ. eigenvalues --   -0.49488  -0.49214  -0.49202  -0.49103  -0.49096
 Alpha  occ. eigenvalues --   -0.48592  -0.48557  -0.48461  -0.48445  -0.48375
 Alpha  occ. eigenvalues --   -0.48339  -0.47695  -0.47594  -0.47297  -0.47118
 Alpha  occ. eigenvalues --   -0.46796  -0.46709  -0.46556  -0.46553  -0.46358
 Alpha  occ. eigenvalues --   -0.46270  -0.46162  -0.46085  -0.45821  -0.45821
 Alpha  occ. eigenvalues --   -0.45208  -0.45200  -0.44577  -0.44513  -0.44507
 Alpha  occ. eigenvalues --   -0.44476  -0.44144  -0.44127  -0.44088  -0.44078
 Alpha  occ. eigenvalues --   -0.44019  -0.43939  -0.43552  -0.43494  -0.43385
 Alpha  occ. eigenvalues --   -0.43385  -0.43026  -0.42929  -0.42900  -0.42698
 Alpha  occ. eigenvalues --   -0.42654  -0.42554  -0.42009  -0.41964  -0.41703
 Alpha  occ. eigenvalues --   -0.41668  -0.41534  -0.41458  -0.41141  -0.40989
 Alpha  occ. eigenvalues --   -0.40869  -0.40824  -0.40723  -0.40698  -0.40570
 Alpha  occ. eigenvalues --   -0.40493  -0.40235  -0.40227  -0.39439  -0.39426
 Alpha  occ. eigenvalues --   -0.38468  -0.38350  -0.37749  -0.37653  -0.37319
 Alpha  occ. eigenvalues --   -0.37266  -0.37264  -0.37199  -0.36769  -0.36712
 Alpha  occ. eigenvalues --   -0.36216  -0.36192  -0.34285  -0.34253  -0.33860
 Alpha  occ. eigenvalues --   -0.33770  -0.33186  -0.33175  -0.31345  -0.31274
 Alpha  occ. eigenvalues --   -0.31035  -0.30973  -0.30028  -0.29954  -0.29449
 Alpha  occ. eigenvalues --   -0.29327  -0.29321  -0.29211  -0.24080  -0.24036
 Alpha  occ. eigenvalues --   -0.21127  -0.21117
 Alpha virt. eigenvalues --   -0.08792  -0.08774  -0.01749  -0.01684  -0.00058
 Alpha virt. eigenvalues --   -0.00029   0.02201   0.02208   0.03122   0.03228
 Alpha virt. eigenvalues --    0.04718   0.04730   0.05099   0.05167   0.06176

 Mulliken charges:
               1
     1  Mg   0.838734
     2  C   -0.002978
     3  C   -0.094128
     4  C   -0.045876
     5  C   -0.063969
     6  N   -0.256769
     7  C   -0.052464
     8  C   -0.014019
     9  C   -0.086994
    10  C    0.046311
    11  C    0.104812
    12  C    0.053480
    13  C   -0.071803
    14  H    0.036109
    15  N   -0.433137
    16  C    0.168428
    17  C   -0.177170
    18  C   -0.004004
    19  C    0.148705
    20  C    0.110183
    21  C    0.012277
    22  O   -0.249620
    23  C    0.062477
    24  N   -0.341166
    25  C    0.041255
    26  C   -0.028167
    27  C   -0.024014
    28  C    0.074889
    29  C    0.076172
    30  C    0.035130
    31  C   -0.004510
    32  N   -0.310471
    33  C    0.080413
    34  C   -0.169702
    35  C    0.008368
    36  C    0.082994
    37  C    0.127308
    38  C    0.046125
    39  O   -0.188415
    40  C   -0.005322
    41  C    0.212862
    42  O   -0.257098
    43  O   -0.304792
    44  C    0.157686
    45  H   -0.017615
    46  H   -0.016836
    47  H   -0.041471
    48  H    0.000942
    49  H   -0.004049
    50  H    0.025481
    51  H    0.016453
    52  H    0.016650
    53  H    0.011190
    54  H    0.044126
    55  H    0.017880
    56  H    0.017933
    57  H    0.005863
    58  H    0.026820
    59  H    0.039525
    60  H    0.037343
    61  H    0.035643
    62  H    0.031484
    63  H    0.016555
    64  H    0.009473
    65  H    0.023213
    66  H    0.012541
    67  H    0.004761
    68  H    0.006376
    69  H    0.004748
    70  H    0.008774
    71  H    0.018164
    72  H    0.028974
    73  H    0.047594
    74  H    0.009127
    75  H    0.046017
    76  H    0.035154
    77  H    0.042961
    78  H    0.046385
    79  H    0.053693
    80  Mg   0.837915
    81  C   -0.016814
    82  C   -0.087783
    83  C   -0.045522
    84  C   -0.064863
    85  N   -0.254590
    86  C   -0.049820
    87  C   -0.015098
    88  C   -0.090512
    89  C    0.045766
    90  C    0.114370
    91  C    0.062523
    92  C   -0.077899
    93  H    0.034900
    94  N   -0.423510
    95  C    0.162909
    96  C   -0.174627
    97  C   -0.007822
    98  C    0.152126
    99  C    0.099371
   100  C    0.015574
   101  O   -0.253182
   102  C    0.061200
   103  N   -0.350065
   104  C    0.037532
   105  C   -0.019851
   106  C   -0.034800
   107  C    0.088902
   108  C    0.073642
   109  C    0.034739
   110  C   -0.007675
   111  N   -0.324132
   112  C    0.078452
   113  C   -0.163105
   114  C    0.002260
   115  C    0.096206
   116  C    0.131483
   117  C    0.042410
   118  O   -0.187816
   119  C    0.000886
   120  C    0.211273
   121  O   -0.251039
   122  O   -0.305612
   123  C    0.152025
   124  H   -0.019662
   125  H   -0.015570
   126  H   -0.040431
   127  H   -0.000609
   128  H   -0.004338
   129  H    0.022510
   130  H    0.014437
   131  H    0.016289
   132  H    0.013903
   133  H    0.037681
   134  H    0.020813
   135  H    0.019577
   136  H    0.008757
   137  H    0.026134
   138  H    0.039779
   139  H    0.038246
   140  H    0.036386
   141  H    0.033890
   142  H    0.014389
   143  H    0.012457
   144  H    0.025138
   145  H    0.011656
   146  H    0.005716
   147  H    0.006269
   148  H    0.003666
   149  H    0.010926
   150  H    0.017934
   151  H    0.030091
   152  H    0.046018
   153  H    0.008518
   154  H    0.047015
   155  H    0.035084
   156  H    0.043945
   157  H    0.049486
   158  H    0.053573
 Sum of Mulliken charges =  -0.00000

 Dipole moment (field-independent basis, Debye):
    X=             -4.0359    Y=             -2.4406    Z=             -7.7216  Tot=              9.0481
 Quadrupole moment (field-independent basis, Debye-Ang):
   XX=           -516.1933   YY=           -551.3649   ZZ=           -447.5488
   XY=              4.0265   XZ=             -0.9748   YZ=            -48.2694

 Normal termination of Gaussian 16 at Sun Sep 12 22:04:18 2021.
