 Gaussian 16, Revision A.03,
 Gaussian 16:  ES64L-G16RevA.03 25-Dec-2016

 -----------------------------------
 #p cam-b3lyp/Def2SVP td=(nstates=5)
 -----------------------------------

 --------------------------------
 TDDFT excited states in gaussian
 --------------------------------
 Symbolic Z-matrix:
 Charge =  0 Multiplicity = 1

                         Standard orientation:
 ---------------------------------------------------------------------
 Center     Atomic      Atomic             Coordinates (Angstroms)
 Number     Number       Type             X           Y           Z
 ---------------------------------------------------------------------
      1         12           0        5.427673   -0.243983   -0.230842
      2          6           0        5.241221    3.138701   -1.386219
      3          6           0        6.372731    1.001013    2.802295
      4          6           0        6.037625   -3.220056    0.678868
      5          6           0        5.582185   -1.221245   -3.572510
      6          7           0        5.730970    1.825916    0.493155
      7          6           0        5.568196    3.036130   -0.032258
      8          6           0        5.703741    4.185728    1.010540
      9          6           0        6.597802    3.435921    2.097022
     10          6           0        6.184233    2.004138    1.805679
     11          6           0        8.097037    3.573585    1.852386
     12          6           0        4.320329    4.615499    1.604844
     13          6           0        4.323502    5.937717    2.377556
     14          1           0        3.154344    6.800017    2.294753
     15          7           0        5.629503   -1.015289    1.576699
     16          6           0        6.006443   -0.358486    2.700003
     17          6           0        6.006502   -1.367174    3.781313
     18          6           0        5.783201   -2.701597    3.158783
     19          6           0        5.834650   -2.364492    1.759107
     20          6           0        6.155796   -1.019686    5.230697
     21          6           0        5.569469   -4.066009    3.733963
     22          8           0        5.627174   -5.123041    3.017076
     23          6           0        5.375954   -4.140752    5.193418
     24          7           0        5.983786   -1.962852   -1.276722
     25          6           0        6.127259   -3.135763   -0.650082
     26          6           0        6.247618   -4.266378   -1.628428
     27          6           0        5.911547   -3.648254   -3.061862
     28          6           0        5.726033   -2.168842   -2.643298
     29          6           0        7.614153   -4.963401   -1.680891
     30          6           0        4.783910   -4.331552   -3.875469
     31          6           0        3.453954   -4.119634   -3.187424
     32          7           0        5.238953    0.734016   -2.159299
     33          6           0        5.361025    0.137618   -3.422660
     34          6           0        5.263142    1.217762   -4.421548
     35          6           0        5.106515    2.377069   -3.664370
     36          6           0        5.132873    2.045492   -2.279576
     37          6           0        5.379581    1.062427   -5.831068
     38          6           0        4.947719    3.821778   -3.702547
     39          8           0        4.765736    4.650865   -4.595291
     40          6           0        5.150729    4.387316   -2.227834
     41          6           0        4.023263    5.343399   -1.948488
     42          8           0        2.847507    4.935922   -1.854007
     43          8           0        4.528339    6.537641   -1.603197
     44          6           0        3.462356    7.524585   -1.284173
     45          1           0        6.901055    1.262616    3.721195
     46          1           0        6.141435   -4.273879    0.945549
     47          1           0        5.537138   -1.460611   -4.636525
     48          1           0        6.225251    5.070903    0.645964
     49          1           0        6.318885    3.711466    3.113881
     50          1           0        8.302128    4.056966    0.897294
     51          1           0        8.487114    2.555585    1.855365
     52          1           0        8.580579    4.082190    2.686822
     53          1           0        4.046248    3.931762    2.408239
     54          1           0        3.560687    4.656405    0.823436
     55          1           0        5.233097    6.508203    2.187579
     56          1           0        4.363727    5.710603    3.442920
     57          1           0        6.469043    0.015002    5.364268
     58          1           0        6.989195   -1.607546    5.614853
     59          1           0        5.254285   -1.243345    5.801299
     60          1           0        6.248064   -3.719708    5.694112
     61          1           0        5.149070   -5.183279    5.413667
     62          1           0        4.529860   -3.511059    5.470115
     63          1           0        5.532066   -5.056149   -1.403321
     64          1           0        6.773032   -3.671908   -3.729663
     65          1           0        7.565901   -6.036349   -1.493384
     66          1           0        8.271564   -4.470517   -0.965233
     67          1           0        8.163238   -4.823406   -2.611656
     68          1           0        4.951099   -5.406928   -3.926080
     69          1           0        4.704476   -3.959821   -4.897113
     70          1           0        3.436403   -4.913659   -2.441737
     71          1           0        2.635249   -4.233840   -3.898683
     72          1           0        3.429221   -3.169896   -2.652753
     73          1           0        4.592233    1.674093   -6.271426
     74          1           0        5.279893    0.017466   -6.123853
     75          1           0        6.386003    1.447598   -5.994210
     76          1           0        6.120929    4.882910   -2.212962
     77          1           0        3.623579    8.390169   -1.926827
     78          1           0        3.497807    7.681321   -0.205942
     79          1           0        2.446647    7.245152   -1.566291
     80         12           0       -5.091674   -1.238534    0.411732
     81          6           0       -7.087992    1.707769   -0.049837
     82          6           0       -2.866075    0.715743    2.103509
     83          6           0       -3.100794   -3.708878    0.446842
     84          6           0       -6.850480   -2.675796   -2.231485
     85          7           0       -5.088859    0.918968    0.899003
     86          6           0       -5.930055    1.927166    0.725071
     87          6           0       -5.546729    3.223580    1.487933
     88          6           0       -3.968492    2.962210    1.628349
     89          6           0       -3.967982    1.435775    1.576768
     90          6           0       -3.165221    3.480310    0.446960
     91          6           0       -6.240486    3.318116    2.892132
     92          6           0       -6.158244    4.693092    3.558791
     93          1           0       -7.292779    5.148280    4.357606
     94          7           0       -3.511436   -1.598231    1.557170
     95          6           0       -2.737166   -0.688230    2.184620
     96          6           0       -1.694958   -1.458409    2.880888
     97          6           0       -1.819344   -2.885925    2.479095
     98          6           0       -2.824080   -2.780753    1.440095
     99          6           0       -0.761646   -0.843657    3.883106
    100          6           0       -1.136552   -4.136781    2.943170
    101          8           0       -1.227726   -5.235723    2.289836
    102          6           0       -0.282373   -4.014400    4.133507
    103          7           0       -4.841039   -2.865567   -0.858033
    104          6           0       -3.937892   -3.823365   -0.584406
    105          6           0       -4.126704   -5.023428   -1.481403
    106          6           0       -5.503377   -4.769498   -2.254614
    107          6           0       -5.842104   -3.363283   -1.713123
    108          6           0       -3.012445   -5.277080   -2.496513
    109          6           0       -6.583534   -5.880984   -2.152077
    110          6           0       -7.102063   -5.967560   -0.734674
    111          7           0       -6.800770   -0.699270   -0.795010
    112          6           0       -7.354933   -1.434337   -1.865829
    113          6           0       -8.432284   -0.608794   -2.449111
    114          6           0       -8.414757    0.568250   -1.685743
    115          6           0       -7.384914    0.490667   -0.709567
    116          6           0       -9.234830   -0.960146   -3.570982
    117          6           0       -9.026283    1.863111   -1.490639
    118          8           0      -10.002139    2.443252   -1.964849
    119          6           0       -8.111643    2.710588   -0.504931
    120          6           0       -9.001297    3.326965    0.539629
    121          8           0       -9.609076    2.610821    1.354702
    122          8           0       -8.818511    4.659987    0.543220
    123          6           0       -9.671357    5.315117    1.570484
    124          1           0       -1.997758    1.276679    2.450298
    125          1           0       -2.513857   -4.629492    0.485041
    126          1           0       -7.510304   -3.093375   -2.994993
    127          1           0       -5.724343    4.141809    0.941055
    128          1           0       -3.594057    3.311450    2.587090
    129          1           0       -3.802750    3.834608   -0.349389
    130          1           0       -2.566690    2.644499    0.108988
    131          1           0       -2.456136    4.243987    0.779108
    132          1           0       -5.667229    2.724018    3.615447
    133          1           0       -7.265029    3.006034    2.832705
    134          1           0       -5.845534    5.474239    2.855265
    135          1           0       -5.360545    4.669680    4.305213
    136          1           0       -0.798194    0.252149    3.847473
    137          1           0        0.256945   -1.091909    3.565760
    138          1           0       -0.919407   -1.224391    4.894448
    139          1           0        0.494471   -3.276901    3.946263
    140          1           0        0.046643   -5.029815    4.362738
    141          1           0       -0.888681   -3.629637    4.961137
    142          1           0       -4.213505   -5.932129   -0.898445
    143          1           0       -5.348026   -4.660046   -3.338001
    144          1           0       -2.561932   -6.283672   -2.407703
    145          1           0       -2.258435   -4.510876   -2.374290
    146          1           0       -3.300567   -5.153443   -3.539065
    147          1           0       -6.146953   -6.855796   -2.382929
    148          1           0       -7.419618   -5.734419   -2.827720
    149          1           0       -6.356568   -6.595031   -0.237077
    150          1           0       -8.085862   -6.432080   -0.714378
    151          1           0       -7.083829   -4.985365   -0.248256
    152          1           0      -10.252558   -0.689860   -3.322616
    153          1           0       -9.149708   -2.019370   -3.804593
    154          1           0       -8.779180   -0.332033   -4.341122
    155          1           0       -7.597867    3.464970   -1.102018
    156          1           0      -10.267262    6.074124    1.054250
    157          1           0       -8.976013    5.668340    2.355002
    158          1           0      -10.446840    4.716588    2.033989
 ---------------------------------------------------------------------

 SCF Done:  E(RCAM-B3LYP) =  -4069.81156087     A.U. after   19 cycles

 Excitation energies and oscillator strengths:

 Excited State   1:      Singlet-A      1.6553 eV  749.01 nm  f=0.1418  <S**2>=0.000
     309 -> 315       -0.11388
     310 -> 316       -0.12472
     311 -> 313       -0.46185
     312 -> 314        0.50891
 This state for optimization and/or second-order correction.
 Total Energy, E(TD-HF/TD-DFT) =  -4069.75072909
 Copying the excited state density for this state as the 1-particle RhoCI density.

 Excited State   2:      Singlet-A      1.6947 eV  731.61 nm  f=0.6077  <S**2>=0.000
     309 -> 315        0.13353
     310 -> 316       -0.11950
     311 -> 313        0.50697
     312 -> 314        0.46021

 Excited State   3:      Singlet-A      2.1821 eV  568.19 nm  f=0.0197  <S**2>=0.000
     309 -> 313        0.28713
     310 -> 314        0.57698
     311 -> 315       -0.11954
     312 -> 316        0.24142

 Excited State   4:      Singlet-A      2.1946 eV  564.95 nm  f=0.1607  <S**2>=0.000
     309 -> 313        0.57313
     310 -> 314       -0.28390
     311 -> 315       -0.25127
     312 -> 316       -0.12435

 Excited State   5:      Singlet-A      2.4311 eV  509.99 nm  f=0.0000  <S**2>=0.000
     312 -> 313        0.70683

 The electronic state is 1-A.
 Alpha  occ. eigenvalues --  -46.88000 -46.87497 -19.26547 -19.26224 -19.19291
 Alpha  occ. eigenvalues --  -19.19033 -19.18979 -19.18570 -19.18371 -19.17902
 Alpha  occ. eigenvalues --  -14.42663 -14.42323 -14.41631 -14.41202 -14.39611
 Alpha  occ. eigenvalues --  -14.39192 -14.38786 -14.38440 -10.39343 -10.38959
 Alpha  occ. eigenvalues --  -10.35614 -10.35254 -10.34594 -10.34078 -10.31952
 Alpha  occ. eigenvalues --  -10.31649 -10.31619 -10.31139 -10.31126 -10.30855
 Alpha  occ. eigenvalues --  -10.30776 -10.30692 -10.30379 -10.30243 -10.30204
 Alpha  occ. eigenvalues --  -10.30077 -10.29991 -10.29825 -10.29742 -10.29454
 Alpha  occ. eigenvalues --  -10.29281 -10.29258 -10.29020 -10.28897 -10.28577
 Alpha  occ. eigenvalues --  -10.28549 -10.28527 -10.28362 -10.28245 -10.27994
 Alpha  occ. eigenvalues --  -10.27936 -10.27901 -10.27847 -10.27789 -10.27729
 Alpha  occ. eigenvalues --  -10.27612 -10.27599 -10.27536 -10.27490 -10.27396
 Alpha  occ. eigenvalues --  -10.27391 -10.27380 -10.27326 -10.27321 -10.27249
 Alpha  occ. eigenvalues --  -10.27060 -10.26893 -10.26616 -10.26554 -10.26446
 Alpha  occ. eigenvalues --  -10.26322 -10.26228 -10.26197 -10.26031 -10.26002
 Alpha  occ. eigenvalues --  -10.25783 -10.25710 -10.25636 -10.25513 -10.25283
 Alpha  occ. eigenvalues --  -10.25033 -10.24960 -10.24718 -10.24678 -10.24629
 Alpha  occ. eigenvalues --  -10.24534  -3.16743  -3.16247  -1.91625  -1.91211
 Alpha  occ. eigenvalues --   -1.91129  -1.91053  -1.90718  -1.90555  -1.16897
 Alpha  occ. eigenvalues --   -1.16517  -1.08831  -1.08510  -1.07375  -1.06909
 Alpha  occ. eigenvalues --   -1.06819  -1.06817  -1.04796  -1.04322  -1.03949
 Alpha  occ. eigenvalues --   -1.03501  -1.03429  -1.02883  -1.02604  -1.01953
 Alpha  occ. eigenvalues --   -0.92180  -0.91826  -0.89661  -0.89441  -0.89353
 Alpha  occ. eigenvalues --   -0.88943  -0.88415  -0.88085  -0.88060  -0.87887
 Alpha  occ. eigenvalues --   -0.87643  -0.87522  -0.87485  -0.86997  -0.85225
 Alpha  occ. eigenvalues --   -0.84822  -0.84053  -0.83749  -0.83145  -0.82869
 Alpha  occ. eigenvalues --   -0.82815  -0.82487  -0.81809  -0.81454  -0.80808
 Alpha  occ. eigenvalues --   -0.80296  -0.79002  -0.78500  -0.77418  -0.77145
 Alpha  occ. eigenvalues --   -0.76990  -0.76741  -0.76144  -0.75655  -0.75039
 Alpha  occ. eigenvalues --   -0.74665  -0.72962  -0.72543  -0.71861  -0.71408
 Alpha  occ. eigenvalues --   -0.69997  -0.69631  -0.69102  -0.68659  -0.67841
 Alpha  occ. eigenvalues --   -0.67481  -0.67455  -0.67060  -0.65527  -0.65102
 Alpha  occ. eigenvalues --   -0.65055  -0.64822  -0.64616  -0.64498  -0.64410
 Alpha  occ. eigenvalues --   -0.64064  -0.62516  -0.62141  -0.60628  -0.60210
 Alpha  occ. eigenvalues --   -0.60039  -0.59609  -0.59177  -0.58838  -0.58696
 Alpha  occ. eigenvalues --   -0.58276  -0.57806  -0.57479  -0.57407  -0.57099
 Alpha  occ. eigenvalues --   -0.56512  -0.56223  -0.56059  -0.55751  -0.55722
 Alpha  occ. eigenvalues --   -0.55495  -0.55312  -0.55113  -0.54695  -0.54357
 Alpha  occ. eigenvalues --   -0.54150  -0.53717  -0.53491  -0.53451  -0.53130
 Alpha  occ. eigenvalues --   -0.53085  -0.52990  -0.52983  -0.52753  -0.52525
 Alpha  occ. eigenvalues --   -0.52520  -0.52282  -0.52092  -0.51867  -0.51739
 Alpha  occ. eigenvalues --   -0.51503  -0.51385  -0.51052  -0.50787  -0.50370
 Alpha  occ. eigenvalues --   -0.50189  -0.50096  -0.49821  -0.49735  -0.49726
 Alpha  occ. eigenvalues --   -0.49428  -0.49326  -0.49317  -0.49041  -0.48910
 Alpha  occ. eigenvalues --   -0.48808  -0.48639  -0.48602  -0.48392  -0.48244
 Alpha  occ. eigenvalues --   -0.48197  -0.47896  -0.47489  -0.47446  -0.46984
 Alpha  occ. eigenvalues --   -0.46982  -0.46800  -0.46557  -0.46546  -0.46376
 Alpha  occ. eigenvalues --   -0.46338  -0.46131  -0.46028  -0.45946  -0.45672
 Alpha  occ. eigenvalues --   -0.45336  -0.45071  -0.44784  -0.44705  -0.44368
 Alpha  occ. eigenvalues --   -0.44331  -0.44306  -0.44289  -0.44221  -0.43950
 Alpha  occ. eigenvalues --   -0.43939  -0.43798  -0.43706  -0.43587  -0.43414
 Alpha  occ. eigenvalues --   -0.43223  -0.43217  -0.42932  -0.42795  -0.42774
 Alpha  occ. eigenvalues --   -0.42750  -0.42420  -0.42167  -0.41900  -0.41825
 Alpha  occ. eigenvalues --   -0.41760  -0.41511  -0.41336  -0.41300  -0.41086
 Alpha  occ. eigenvalues --   -0.41024  -0.40804  -0.40701  -0.40577  -0.40537
 Alpha  occ. eigenvalues --   -0.40528  -0.40343  -0.40078  -0.39518  -0.39302
 Alpha  occ. eigenvalues --   -0.38617  -0.38209  -0.38026  -0.37507  -0.37507
 Alpha  occ. eigenvalues --   -0.37474  -0.37119  -0.37033  -0.36940  -0.36642
 Alpha  occ. eigenvalues --   -0.36385  -0.36072  -0.34483  -0.34094  -0.34029
 Alpha  occ. eigenvalues --   -0.33728  -0.33386  -0.33017  -0.31506  -0.31230
 Alpha  occ. eigenvalues --   -0.31126  -0.30810  -0.30232  -0.29806  -0.29655
 Alpha  occ. eigenvalues --   -0.29521  -0.29181  -0.29058  -0.24279  -0.23872
 Alpha  occ. eigenvalues --   -0.21325  -0.20958
 Alpha virt. eigenvalues --   -0.08974  -0.08637  -0.01940  -0.01525  -0.00262
 Alpha virt. eigenvalues --    0.00125   0.02010   0.02357   0.02799   0.03371
 Alpha virt. eigenvalues --    0.04485   0.04841   0.04902   0.05300   0.05883

 Mulliken charges:
               1
     1  Mg   0.837607
     2  C   -0.003722
     3  C   -0.095487
     4  C   -0.044513
     5  C   -0.063363
     6  N   -0.256803
     7  C   -0.052963
     8  C   -0.013741
     9  C   -0.086727
    10  C    0.045645
    11  C    0.104713
    12  C    0.053852
    13  C   -0.071413
    14  H    0.034457
    15  N   -0.433151
    16  C    0.167399
    17  C   -0.178772
    18  C   -0.005108
    19  C    0.148466
    20  C    0.110417
    21  C    0.011891
    22  O   -0.247261
    23  C    0.063084
    24  N   -0.341222
    25  C    0.041267
    26  C   -0.028521
    27  C   -0.024164
    28  C    0.075302
    29  C    0.075950
    30  C    0.034845
    31  C   -0.004662
    32  N   -0.310571
    33  C    0.080687
    34  C   -0.169238
    35  C    0.008486
    36  C    0.083033
    37  C    0.127244
    38  C    0.046195
    39  O   -0.187975
    40  C   -0.005350
    41  C    0.213133
    42  O   -0.258315
    43  O   -0.304411
    44  C    0.157670
    45  H   -0.017575
    46  H   -0.015522
    47  H   -0.040779
    48  H    0.001405
    49  H   -0.004685
    50  H    0.025774
    51  H    0.016931
    52  H    0.016886
    53  H    0.009088
    54  H    0.042880
    55  H    0.019155
    56  H    0.017698
    57  H    0.005737
    58  H    0.027681
    59  H    0.037308
    60  H    0.037685
    61  H    0.037257
    62  H    0.028228
    63  H    0.018391
    64  H    0.009622
    65  H    0.024057
    66  H    0.012285
    67  H    0.004887
    68  H    0.006997
    69  H    0.004389
    70  H    0.011450
    71  H    0.018117
    72  H    0.028509
    73  H    0.047865
    74  H    0.009632
    75  H    0.046381
    76  H    0.035528
    77  H    0.043812
    78  H    0.045977
    79  H    0.052974
    80  Mg   0.838334
    81  C   -0.016883
    82  C   -0.087355
    83  C   -0.045491
    84  C   -0.064819
    85  N   -0.254697
    86  C   -0.049135
    87  C   -0.015165
    88  C   -0.090677
    89  C    0.045968
    90  C    0.114280
    91  C    0.062668
    92  C   -0.077368
    93  H    0.033925
    94  N   -0.423581
    95  C    0.163005
    96  C   -0.174560
    97  C   -0.008078
    98  C    0.152164
    99  C    0.098937
   100  C    0.016194
   101  O   -0.252235
   102  C    0.060922
   103  N   -0.349878
   104  C    0.037611
   105  C   -0.019806
   106  C   -0.034801
   107  C    0.088924
   108  C    0.073661
   109  C    0.034817
   110  C   -0.007602
   111  N   -0.324122
   112  C    0.078547
   113  C   -0.163185
   114  C    0.002357
   115  C    0.096263
   116  C    0.131451
   117  C    0.042349
   118  O   -0.188174
   119  C    0.000934
   120  C    0.211131
   121  O   -0.251364
   122  O   -0.305385
   123  C    0.152203
   124  H   -0.018743
   125  H   -0.015549
   126  H   -0.040777
   127  H   -0.000414
   128  H   -0.005655
   129  H    0.022797
   130  H    0.017762
   131  H    0.017919
   132  H    0.013338
   133  H    0.037321
   134  H    0.021022
   135  H    0.018894
   136  H    0.008436
   137  H    0.026384
   138  H    0.037913
   139  H    0.037496
   140  H    0.037459
   141  H    0.032444
   142  H    0.014183
   143  H    0.012325
   144  H    0.024580
   145  H    0.012176
   146  H    0.005250
   147  H    0.005886
   148  H    0.003485
   149  H    0.010819
   150  H    0.017598
   151  H    0.030245
   152  H    0.045659
   153  H    0.008195
   154  H    0.047273
   155  H    0.035766
   156  H    0.043731
   157  H    0.049310
   158  H    0.053263
 Sum of Mulliken charges =  -0.00000

 Dipole moment (field-independent basis, Debye):
    X=              6.4601    Y=              1.2432    Z=              5.0416  Tot=              8.2883
 Quadrupole moment (field-independent basis, Debye-Ang):
   XX=           -549.2516   YY=           -505.3563   ZZ=           -484.6017
   XY=             18.0888   XZ=             15.7199   YZ=             58.7102

 Normal termination of Gaussian 16 at Sat Sep 11 00:10:05 2021.
