 Gaussian 16, Revision A.03,
 Gaussian 16:  ES64L-G16RevA.03 25-Dec-2016

 -----------------------------------
 #p cam-b3lyp/Def2SVP td=(nstates=5)
 -----------------------------------

 --------------------------------
 TDDFT excited states in gaussian
 --------------------------------
 Symbolic Z-matrix:
 Charge =  0 Multiplicity = 1

                         Standard orientation:
 ---------------------------------------------------------------------
 Center     Atomic      Atomic             Coordinates (Angstroms)
 Number     Number       Type             X           Y           Z
 ---------------------------------------------------------------------
      1         12           0       -6.537864   -0.696310    0.237491
      2          6           0       -6.703304    2.871968    0.008929
      3          6           0       -7.495418   -0.801622   -3.035897
      4          6           0       -6.839530   -3.838647    0.539709
      5          6           0       -6.709384   -0.335007    3.699528
      6          7           0       -7.008079    0.900371   -1.222015
      7          6           0       -6.975297    2.229147   -1.200801
      8          6           0       -7.182935    2.874748   -2.603463
      9          6           0       -7.967954    1.683445   -3.315179
     10          6           0       -7.433119    0.519072   -2.500249
     11          6           0       -9.480633    1.756320   -3.133545
     12          6           0       -5.826775    3.178702   -3.324695
     13          6           0       -5.927436    4.098975   -4.544662
     14          1           0       -4.846538    5.037782   -4.804751
     15          7           0       -6.608628   -2.114566   -1.135969
     16          6           0       -7.008207   -1.976305   -2.423022
     17          6           0       -6.879718   -3.315945   -3.035830
     18          6           0       -6.553993   -4.283145   -1.951155
     19          6           0       -6.681815   -3.444409   -0.786869
     20          6           0       -7.013510   -3.564066   -4.506981
     21          6           0       -6.196182   -5.735729   -1.961411
     22          8           0       -6.178875   -6.439514   -0.894190
     23          6           0       -5.949360   -6.342185   -3.282142
     24          7           0       -6.965878   -1.931799    1.864760
     25          6           0       -6.979628   -3.263010    1.735644
     26          6           0       -7.026327   -3.940836    3.072921
     27          6           0       -6.795645   -2.792926    4.158665
     28          6           0       -6.734582   -1.574573    3.204644
     29          6           0       -8.323353   -4.695478    3.395800
     30          6           0       -5.636500   -3.000085    5.165586
     31          6           0       -4.310308   -2.937374    4.441445
     32          7           0       -6.503224    0.956774    1.643606
     33          6           0       -6.610385    0.878540    3.039697
     34          6           0       -6.645474    2.262010    3.548465
     35          6           0       -6.572511    3.054133    2.404322
     36          6           0       -6.523115    2.218526    1.252100
     37          6           0       -6.792649    2.645494    4.910711
     38          6           0       -6.549627    4.412198    1.885678
     39          8           0       -6.474312    5.532659    2.392025
     40          6           0       -6.756266    4.349574    0.307956
     41          6           0       -5.713809    5.232351   -0.322360
     42          8           0       -4.502904    4.937037   -0.260197
     43          8           0       -6.315943    6.148832   -1.095690
     44          6           0       -5.336247    7.038812   -1.774133
     45          1           0       -8.015647   -0.963485   -3.981996
     46          1           0       -6.836516   -4.919196    0.697321
     47          1           0       -6.676863   -0.144729    4.773860
     48          1           0       -7.795788    3.776320   -2.602606
     49          1           0       -7.682958    1.576168   -4.361598
     50          1           0       -9.760501    2.544856   -2.435113
     51          1           0       -9.774372    0.781226   -2.744442
     52          1           0       -9.981928    1.858105   -4.096416
     53          1           0       -5.464599    2.270636   -3.806674
     54          1           0       -5.099929    3.588851   -2.622699
     55          1           0       -6.891672    4.606644   -4.582483
     56          1           0       -5.911877    3.479879   -5.441700
     57          1           0       -7.416817   -2.694673   -5.024711
     58          1           0       -7.775940   -4.332655   -4.632207
     59          1           0       -6.077127   -3.898929   -4.953507
     60          1           0       -6.840049   -6.231670   -3.901019
     61          1           0       -5.619802   -7.362221   -3.087797
     62          1           0       -5.156750   -5.785991   -3.783507
     63          1           0       -6.233733   -4.682491    3.163309
     64          1           0       -7.672424   -2.644386    4.789433
     65          1           0       -8.169807   -5.748497    3.633031
     66          1           0       -9.000071   -4.579880    2.549643
     67          1           0       -8.912936   -4.265577    4.205117
     68          1           0       -5.704848   -3.985623    5.624921
     69          1           0       -5.625026   -2.260894    5.966658
     70          1           0       -4.195070   -3.949949    4.056421
     71          1           0       -3.508032   -2.690768    5.137685
     72          1           0       -4.356390   -2.265935    3.583814
     73          1           0       -6.080076    3.452889    5.079000
     74          1           0       -6.606079    1.806456    5.580644
     75          1           0       -7.835197    2.963098    4.919575
     76          1           0       -7.767231    4.704321    0.109898
     77          1           0       -5.597755    8.063775   -1.510886
     78          1           0       -5.351098    6.768100   -2.830021
     79          1           0       -4.308692    6.989160   -1.412188
     80         12           0        6.693693   -0.851205   -0.095730
     81          6           0        6.546329    2.670497    0.578791
     82          6           0        5.746081   -0.127143   -3.291409
     83          6           0        6.376608   -3.967356   -0.602156
     84          6           0        6.504890   -1.376965    3.344276
     85          7           0        6.235730    1.062604   -1.105621
     86          6           0        6.273342    2.342153   -0.765500
     87          6           0        6.082352    3.328169   -1.949068
     88          6           0        5.286015    2.354317   -2.947244
     89          6           0        5.810076    1.009831   -2.446841
     90          6           0        3.780263    2.385424   -2.744540
     91          6           0        7.448030    3.791973   -2.566981
     92          6           0        7.350692    4.986482   -3.518529
     93          1           0        8.443897    5.954536   -3.534474
     94          7           0        6.623361   -1.875709   -1.793965
     95          6           0        6.236037   -1.420022   -3.003760
     96          6           0        6.344425   -2.566552   -3.919120
     97          6           0        6.669598   -3.777569   -3.117617
     98          6           0        6.545927   -3.246170   -1.775081
     99          6           0        6.223490   -2.432290   -5.409346
    100          6           0        7.019770   -5.184696   -3.496527
    101          8           0        7.030620   -6.131728   -2.632905
    102          6           0        7.258378   -5.438985   -4.924779
    103          7           0        6.260159   -2.447438    1.163809
    104          6           0        6.233801   -3.708415    0.697796
    105          6           0        6.175352   -4.706938    1.829130
    106          6           0        6.412931   -3.858455    3.163756
    107          6           0        6.481785   -2.441226    2.553724
    108          6           0        4.872173   -5.496049    1.953283
    109          6           0        7.567836   -4.319424    4.094551
    110          6           0        8.899238   -4.097582    3.413715
    111          7           0        6.736737    0.390152    1.672107
    112          6           0        6.617066   -0.032403    3.014199
    113          6           0        6.588103    1.183631    3.852561
    114          6           0        6.670412    2.238330    2.930982
    115          6           0        6.725020    1.716984    1.610105
    116          6           0        6.448217    1.214559    5.268750
    117          6           0        6.712799    3.674458    2.774553
    118          8           0        6.785258    4.630494    3.545566
    119          6           0        6.506850    4.021627    1.237200
    120          6           0        7.556526    5.024179    0.842757
    121          8           0        8.760517    4.712715    0.844901
    122          8           0        6.955564    6.109812    0.322541
    123          6           0        7.956077    7.128338   -0.093874
    124          1           0        5.234850   -0.033334   -4.249910
    125          1           0        6.372810   -5.054153   -0.713258
    126          1           0        6.546338   -1.458916    4.432509
    127          1           0        5.480733    4.199964   -1.721471
    128          1           0        5.582707    2.518779   -3.979853
    129          1           0        3.502059    2.970481   -1.880567
    130          1           0        3.479404    1.353941   -2.615824
    131          1           0        3.284359    2.732576   -3.655526
    132          1           0        7.804232    3.023884   -3.265486
    133          1           0        8.163491    4.001683   -1.795777
    134          1           0        6.384426    5.499262   -3.438865
    135          1           0        7.372859    4.614558   -4.545753
    136          1           0        5.819973   -1.452588   -5.693532
    137          1           0        5.458152   -3.145720   -5.733609
    138          1           0        7.157506   -2.655235   -5.929521
    139          1           0        6.372418   -5.166030   -5.493132
    140          1           0        7.582324   -6.479742   -4.986176
    141          1           0        8.066294   -4.782551   -5.266799
    142          1           0        6.963937   -5.443525    1.735950
    143          1           0        5.530378   -3.875569    3.819979
    144          1           0        5.020200   -6.591843    1.915902
    145          1           0        4.202829   -5.175685    1.165950
    146          1           0        4.290347   -5.288695    2.849759
    147          1           0        7.493087   -5.392362    4.287909
    148          1           0        7.573221   -3.818389    5.056796
    149          1           0        9.004545   -4.985041    2.782519
    150          1           0        9.699918   -4.038350    4.148187
    151          1           0        8.862102   -3.224696    2.751642
    152          1           0        7.157490    1.944422    5.635812
    153          1           0        6.622710    0.234121    5.707010
    154          1           0        5.402720    1.522462    5.354792
    155          1           0        5.497641    4.419318    1.123509
    156          1           0        7.696004    8.059779    0.418429
    157          1           0        7.930436    7.137594   -1.199775
    158          1           0        8.980209    6.987037    0.231150
 ---------------------------------------------------------------------

 SCF Done:  E(RCAM-B3LYP) =  -4069.81164091     A.U. after   19 cycles

 Excitation energies and oscillator strengths:

 Excited State   1:      Singlet-A      1.6658 eV  744.30 nm  f=0.0162  <S**2>=0.000
     309 -> 315       -0.10945
     310 -> 316        0.13190
     311 -> 313       -0.43671
     312 -> 314        0.52983
 This state for optimization and/or second-order correction.
 Total Energy, E(TD-HF/TD-DFT) =  -4069.75042478
 Copying the excited state density for this state as the 1-particle RhoCI density.

 Excited State   2:      Singlet-A      1.6889 eV  734.13 nm  f=0.7273  <S**2>=0.000
     309 -> 315        0.13739
     310 -> 316        0.11236
     311 -> 313        0.52865
     312 -> 314        0.43581

 Excited State   3:      Singlet-A      2.1844 eV  567.59 nm  f=0.0438  <S**2>=0.000
     309 -> 313       -0.19274
     310 -> 314        0.61360
     312 -> 316       -0.25926

 Excited State   4:      Singlet-A      2.1936 eV  565.21 nm  f=0.1453  <S**2>=0.000
     309 -> 313        0.61106
     310 -> 314        0.19098
     311 -> 315       -0.26646

 Excited State   5:      Singlet-A      2.6487 eV  468.10 nm  f=0.0000  <S**2>=0.000
     312 -> 313        0.70710

 The electronic state is 1-A.
 Alpha  occ. eigenvalues --  -46.87853 -46.87547 -19.26355 -19.26213 -19.19089
 Alpha  occ. eigenvalues --  -19.19032 -19.18863 -19.18632 -19.18214 -19.17918
 Alpha  occ. eigenvalues --  -14.42510 -14.42381 -14.41504 -14.41247 -14.39459
 Alpha  occ. eigenvalues --  -14.39242 -14.38641 -14.38483 -10.39148 -10.38959
 Alpha  occ. eigenvalues --  -10.35496 -10.35312 -10.34436 -10.34093 -10.31757
 Alpha  occ. eigenvalues --  -10.31629 -10.31465 -10.31185 -10.30974 -10.30909
 Alpha  occ. eigenvalues --  -10.30625 -10.30558 -10.30285 -10.30260 -10.30244
 Alpha  occ. eigenvalues --  -10.30040 -10.29970 -10.29780 -10.29682 -10.29332
 Alpha  occ. eigenvalues --  -10.29308 -10.29293 -10.28831 -10.28663 -10.28589
 Alpha  occ. eigenvalues --  -10.28555 -10.28421 -10.28290 -10.28191 -10.28004
 Alpha  occ. eigenvalues --  -10.27888 -10.27843 -10.27787 -10.27638 -10.27557
 Alpha  occ. eigenvalues --  -10.27548 -10.27546 -10.27493 -10.27462 -10.27423
 Alpha  occ. eigenvalues --  -10.27401 -10.27366 -10.27363 -10.27276 -10.27215
 Alpha  occ. eigenvalues --  -10.26905 -10.26814 -10.26584 -10.26459 -10.26361
 Alpha  occ. eigenvalues --  -10.26299 -10.26227 -10.26071 -10.26056 -10.25870
 Alpha  occ. eigenvalues --  -10.25847 -10.25826 -10.25728 -10.25473 -10.25294
 Alpha  occ. eigenvalues --  -10.24883 -10.24840 -10.24755 -10.24735 -10.24653
 Alpha  occ. eigenvalues --  -10.24579  -3.16596  -3.16297  -1.91478  -1.91179
 Alpha  occ. eigenvalues --   -1.91065  -1.90907  -1.90768  -1.90605  -1.16703
 Alpha  occ. eigenvalues --   -1.16509  -1.08672  -1.08522  -1.07263  -1.06886
 Alpha  occ. eigenvalues --   -1.06815  -1.06711  -1.04641  -1.04378  -1.03816
 Alpha  occ. eigenvalues --   -1.03550  -1.03288  -1.02927  -1.02465  -1.01998
 Alpha  occ. eigenvalues --   -0.92028  -0.91864  -0.89570  -0.89390  -0.89265
 Alpha  occ. eigenvalues --   -0.89022  -0.88336  -0.88118  -0.87915  -0.87736
 Alpha  occ. eigenvalues --   -0.87676  -0.87572  -0.87329  -0.87032  -0.85055
 Alpha  occ. eigenvalues --   -0.84882  -0.83985  -0.83775  -0.83019  -0.82851
 Alpha  occ. eigenvalues --   -0.82715  -0.82541  -0.81648  -0.81475  -0.80656
 Alpha  occ. eigenvalues --   -0.80329  -0.78851  -0.78536  -0.77279  -0.77034
 Alpha  occ. eigenvalues --   -0.77003  -0.76781  -0.75987  -0.75713  -0.74949
 Alpha  occ. eigenvalues --   -0.74695  -0.72827  -0.72586  -0.71729  -0.71461
 Alpha  occ. eigenvalues --   -0.69955  -0.69662  -0.68941  -0.68713  -0.67697
 Alpha  occ. eigenvalues --   -0.67492  -0.67299  -0.67098  -0.65358  -0.65151
 Alpha  occ. eigenvalues --   -0.64912  -0.64683  -0.64657  -0.64537  -0.64321
 Alpha  occ. eigenvalues --   -0.64099  -0.62360  -0.62157  -0.60495  -0.60244
 Alpha  occ. eigenvalues --   -0.59872  -0.59673  -0.59043  -0.58879  -0.58559
 Alpha  occ. eigenvalues --   -0.58311  -0.57641  -0.57423  -0.57361  -0.57130
 Alpha  occ. eigenvalues --   -0.56363  -0.56095  -0.56048  -0.55767  -0.55575
 Alpha  occ. eigenvalues --   -0.55391  -0.55348  -0.55137  -0.54580  -0.54376
 Alpha  occ. eigenvalues --   -0.53972  -0.53788  -0.53352  -0.53287  -0.53124
 Alpha  occ. eigenvalues --   -0.53031  -0.52976  -0.52819  -0.52788  -0.52577
 Alpha  occ. eigenvalues --   -0.52486  -0.52310  -0.51954  -0.51763  -0.51688
 Alpha  occ. eigenvalues --   -0.51549  -0.51251  -0.51085  -0.50629  -0.50398
 Alpha  occ. eigenvalues --   -0.50083  -0.49976  -0.49871  -0.49768  -0.49578
 Alpha  occ. eigenvalues --   -0.49383  -0.49270  -0.49162  -0.49086  -0.48975
 Alpha  occ. eigenvalues --   -0.48651  -0.48510  -0.48498  -0.48437  -0.48272
 Alpha  occ. eigenvalues --   -0.48241  -0.47755  -0.47487  -0.47353  -0.47018
 Alpha  occ. eigenvalues --   -0.46854  -0.46630  -0.46599  -0.46438  -0.46413
 Alpha  occ. eigenvalues --   -0.46214  -0.46165  -0.45971  -0.45876  -0.45698
 Alpha  occ. eigenvalues --   -0.45250  -0.45102  -0.44632  -0.44569  -0.44396
 Alpha  occ. eigenvalues --   -0.44364  -0.44199  -0.44156  -0.44075  -0.44006
 Alpha  occ. eigenvalues --   -0.43979  -0.43834  -0.43553  -0.43449  -0.43434
 Alpha  occ. eigenvalues --   -0.43269  -0.43082  -0.42811  -0.42778  -0.42761
 Alpha  occ. eigenvalues --   -0.42709  -0.42456  -0.42067  -0.41859  -0.41759
 Alpha  occ. eigenvalues --   -0.41608  -0.41547  -0.41347  -0.41200  -0.40938
 Alpha  occ. eigenvalues --   -0.40882  -0.40869  -0.40630  -0.40624  -0.40591
 Alpha  occ. eigenvalues --   -0.40386  -0.40327  -0.40120  -0.39490  -0.39333
 Alpha  occ. eigenvalues --   -0.38524  -0.38246  -0.37836  -0.37544  -0.37374
 Alpha  occ. eigenvalues --   -0.37336  -0.37159  -0.37084  -0.36776  -0.36648
 Alpha  occ. eigenvalues --   -0.36253  -0.36104  -0.34342  -0.34139  -0.33837
 Alpha  occ. eigenvalues --   -0.33736  -0.33242  -0.33063  -0.31393  -0.31190
 Alpha  occ. eigenvalues --   -0.31092  -0.30859  -0.30074  -0.29820  -0.29502
 Alpha  occ. eigenvalues --   -0.29371  -0.29224  -0.29094  -0.24137  -0.23920
 Alpha  occ. eigenvalues --   -0.21183  -0.21005
 Alpha virt. eigenvalues --   -0.08828  -0.08681  -0.01805  -0.01574  -0.00113
 Alpha virt. eigenvalues --    0.00073   0.02152   0.02329   0.03053   0.03327
 Alpha virt. eigenvalues --    0.04647   0.04847   0.05032   0.05296   0.06080

 Mulliken charges:
               1
     1  Mg   0.838514
     2  C   -0.003118
     3  C   -0.094454
     4  C   -0.045778
     5  C   -0.063798
     6  N   -0.256741
     7  C   -0.052598
     8  C   -0.013955
     9  C   -0.086939
    10  C    0.046166
    11  C    0.104797
    12  C    0.053604
    13  C   -0.071479
    14  H    0.035206
    15  N   -0.433150
    16  C    0.168325
    17  C   -0.177330
    18  C   -0.003965
    19  C    0.148649
    20  C    0.110221
    21  C    0.012332
    22  O   -0.249429
    23  C    0.062496
    24  N   -0.341114
    25  C    0.041217
    26  C   -0.028210
    27  C   -0.023987
    28  C    0.074796
    29  C    0.076129
    30  C    0.035097
    31  C   -0.004508
    32  N   -0.310515
    33  C    0.080430
    34  C   -0.169442
    35  C    0.008520
    36  C    0.083012
    37  C    0.127242
    38  C    0.046276
    39  O   -0.188007
    40  C   -0.005443
    41  C    0.213019
    42  O   -0.257334
    43  O   -0.304707
    44  C    0.157679
    45  H   -0.017685
    46  H   -0.016709
    47  H   -0.041245
    48  H    0.001058
    49  H   -0.004354
    50  H    0.025594
    51  H    0.016605
    52  H    0.016628
    53  H    0.010727
    54  H    0.043882
    55  H    0.018259
    56  H    0.017674
    57  H    0.005667
    58  H    0.026953
    59  H    0.039156
    60  H    0.037317
    61  H    0.035926
    62  H    0.031238
    63  H    0.016591
    64  H    0.009614
    65  H    0.023311
    66  H    0.012567
    67  H    0.004861
    68  H    0.006427
    69  H    0.004918
    70  H    0.008732
    71  H    0.018078
    72  H    0.028957
    73  H    0.048024
    74  H    0.009265
    75  H    0.046122
    76  H    0.035253
    77  H    0.043280
    78  H    0.046033
    79  H    0.053549
    80  Mg   0.838013
    81  C   -0.016670
    82  C   -0.087822
    83  C   -0.045649
    84  C   -0.064833
    85  N   -0.254589
    86  C   -0.049316
    87  C   -0.015185
    88  C   -0.090649
    89  C    0.045941
    90  C    0.114374
    91  C    0.062569
    92  C   -0.077700
    93  H    0.034508
    94  N   -0.423448
    95  C    0.162860
    96  C   -0.174949
    97  C   -0.008050
    98  C    0.152091
    99  C    0.099571
   100  C    0.015348
   101  O   -0.253373
   102  C    0.061300
   103  N   -0.350015
   104  C    0.037592
   105  C   -0.019858
   106  C   -0.034779
   107  C    0.089023
   108  C    0.073680
   109  C    0.034767
   110  C   -0.007619
   111  N   -0.324227
   112  C    0.078706
   113  C   -0.162961
   114  C    0.002669
   115  C    0.096216
   116  C    0.131364
   117  C    0.042799
   118  O   -0.187370
   119  C    0.000718
   120  C    0.211152
   121  O   -0.251390
   122  O   -0.305218
   123  C    0.152142
   124  H   -0.020124
   125  H   -0.015798
   126  H   -0.040567
   127  H    0.000098
   128  H   -0.004949
   129  H    0.024373
   130  H    0.014428
   131  H    0.015792
   132  H    0.013608
   133  H    0.037592
   134  H    0.021079
   135  H    0.019178
   136  H    0.008450
   137  H    0.025449
   138  H    0.039423
   139  H    0.037851
   140  H    0.036088
   141  H    0.033781
   142  H    0.014152
   143  H    0.012423
   144  H    0.024930
   145  H    0.011909
   146  H    0.005673
   147  H    0.006074
   148  H    0.003552
   149  H    0.010818
   150  H    0.017734
   151  H    0.030194
   152  H    0.045914
   153  H    0.008186
   154  H    0.047763
   155  H    0.036544
   156  H    0.044099
   157  H    0.049269
   158  H    0.053284
 Sum of Mulliken charges =  -0.00000

 Dipole moment (field-independent basis, Debye):
    X=             -4.2977    Y=             -2.2503    Z=             -7.3942  Tot=              8.8435
 Quadrupole moment (field-independent basis, Debye-Ang):
   XX=           -517.7907   YY=           -549.9831   ZZ=           -449.2824
   XY=              0.7048   XZ=             -0.4322   YZ=            -47.0897

 Normal termination of Gaussian 16 at Sat Sep 11 05:35:50 2021.
