 Gaussian 16, Revision A.03,
 Gaussian 16:  ES64L-G16RevA.03 25-Dec-2016

 -----------------------------------
 #p cam-b3lyp/Def2SVP td=(nstates=5)
 -----------------------------------

 --------------------------------
 TDDFT excited states in gaussian
 --------------------------------
 Symbolic Z-matrix:
 Charge =  0 Multiplicity = 1

                         Standard orientation:
 ---------------------------------------------------------------------
 Center     Atomic      Atomic             Coordinates (Angstroms)
 Number     Number       Type             X           Y           Z
 ---------------------------------------------------------------------
      1         12           0       -4.002988   -1.586376    0.584274
      2          6           0       -4.949621    1.861725    0.420871
      3          6           0       -5.183039   -1.907363   -2.601242
      4          6           0       -3.596338   -4.718835    0.865264
      5          6           0       -3.961068   -1.257821    4.053562
      6          7           0       -4.924418   -0.133738   -0.809088
      7          6           0       -5.176279    1.170998   -0.771676
      8          6           0       -5.633122    1.751615   -2.143373
      9          6           0       -6.199960    0.416634   -2.805580
     10          6           0       -5.361873   -0.602282   -2.053687
     11          6           0       -7.672625    0.162763   -2.500113
     12          6           0       -4.438392    2.337802   -2.968440
     13          6           0       -4.835035    3.210348   -4.162882
     14          1           0       -4.006425    4.358911   -4.496882
     15          7           0       -3.880752   -2.991616   -0.798914
     16          6           0       -4.405800   -2.947340   -2.046972
     17          6           0       -4.043617   -4.230125   -2.687258
     18          6           0       -3.429068   -5.100533   -1.646675
     19          6           0       -3.637339   -4.304740   -0.464002
     20          6           0       -4.242229   -4.506612   -4.145976
     21          6           0       -2.769599   -6.442032   -1.706799
     22          8           0       -2.513226   -7.121676   -0.654692
     23          6           0       -2.508381   -6.985945   -3.051777
     24          7           0       -4.019380   -2.879085    2.223258
     25          6           0       -3.757403   -4.182496    2.076728
     26          6           0       -3.546549   -4.849584    3.403556
     27          6           0       -3.478880   -3.674967    4.483116
     28          6           0       -3.760189   -2.475539    3.544761
     29          6           0       -4.619856   -5.864608    3.820390
     30          6           0       -2.223052   -3.624002    5.389049
     31          6           0       -1.005887   -3.279863    4.560088
     32          7           0       -4.208133    0.040523    2.006301
     33          6           0       -4.180085   -0.053844    3.405223
     34          6           0       -4.469404    1.291473    3.934831
     35          6           0       -4.663279    2.076537    2.799959
     36          6           0       -4.531000    1.266958    1.635753
     37          6           0       -4.582307    1.639252    5.309871
     38          6           0       -4.975736    3.405770    2.300593
     39          8           0       -5.101304    4.518011    2.815031
     40          6           0       -5.293914    3.294354    0.744259
     41          6           0       -4.521308    4.378570    0.043642
     42          8           0       -3.274341    4.351137    0.002584
     43          8           0       -5.368178    5.141073   -0.664837
     44          6           0       -4.662176    6.218634   -1.408193
     45          1           0       -5.732794   -2.180901   -3.503953
     46          1           0       -3.348183   -5.772807    1.006684
     47          1           0       -3.881412   -1.061076    5.124262
     48          1           0       -6.423162    2.500082   -2.079663
     49          1           0       -5.986157    0.369412   -3.873185
     50          1           0       -8.056616    0.875092   -1.770004
     51          1           0       -7.716754   -0.851277   -2.102283
     52          1           0       -8.261993    0.150702   -3.417324
     53          1           0       -3.930709    1.527260   -3.491260
     54          1           0       -3.761119    2.897395   -2.322311
     55          1           0       -5.885576    3.498354   -4.114664
     56          1           0       -4.761092    2.605847   -5.066934
     57          1           0       -4.864348   -3.746347   -4.616626
     58          1           0       -4.829386   -5.421788   -4.219524
     59          1           0       -3.296000   -4.633634   -4.672140
     60          1           0       -3.450093   -7.072063   -3.594281
     61          1           0       -1.952420   -7.910379   -2.899531
     62          1           0       -1.898064   -6.273973   -3.608157
     63          1           0       -2.608411   -5.402850    3.418392
     64          1           0       -4.311826   -3.716388    5.185370
     65          1           0       -4.224540   -6.858993    4.029264
     66          1           0       -5.373244   -5.900523    3.034001
     67          1           0       -5.219004   -5.568779    4.681159
     68          1           0       -2.039790   -4.599454    5.838331
     69          1           0       -2.304433   -2.896755    6.196972
     70          1           0       -0.708029   -4.245276    4.152548
     71          1           0       -0.220547   -2.863755    5.191995
     72          1           0       -1.265969   -2.637235    3.718737
     73          1           0       -4.048442    2.581747    5.430956
     74          1           0       -4.165030    0.862521    5.950318
     75          1           0       -5.664353    1.724962    5.408294
     76          1           0       -6.370329    3.422378    0.634423
     77          1           0       -5.115112    7.164205   -1.109900
     78          1           0       -4.705828    5.947214   -2.463100
     79          1           0       -3.621613    6.392717   -1.132035
     80         12           0        4.754595    0.247919   -0.381652
     81          6           0        2.818152    3.262960   -0.184759
     82          6           0        2.798294   -0.658817   -3.024635
     83          6           0        6.139075   -2.605840   -0.299709
     84          6           0        5.767079    0.848688    2.898534
     85          7           0        3.059667    1.256564   -1.382711
     86          6           0        2.451601    2.426829   -1.259919
     87          6           0        1.447144    2.752271   -2.397762
     88          6           0        1.120948    1.251542   -2.867099
     89          6           0        2.418185    0.572274   -2.432981
     90          6           0       -0.029103    0.618199   -2.101859
     91          6           0        2.103199    3.585897   -3.553914
     92          6           0        1.112791    4.201624   -4.544738
     93          1           0        1.420928    5.510456   -5.114367
     94          7           0        4.851816   -1.172504   -1.764226
     95          6           0        3.986147   -1.381731   -2.778190
     96          6           0        4.489353   -2.560675   -3.500013
     97          6           0        5.630465   -3.129035   -2.732203
     98          6           0        5.570103   -2.319086   -1.532023
     99          6           0        3.944252   -2.994599   -4.829673
    100          6           0        6.605648   -4.229153   -3.023706
    101          8           0        7.366168   -4.713681   -2.112844
    102          6           0        6.578234   -4.786125   -4.384044
    103          7           0        5.632124   -0.850025    1.150269
    104          6           0        6.206933   -2.040727    0.905838
    105          6           0        7.009306   -2.513394    2.094609
    106          6           0        7.051689   -1.274089    3.104523
    107          6           0        6.151798   -0.285967    2.330444
    108          6           0        6.462199   -3.742414    2.820266
    109          6           0        8.453537   -0.790582    3.566827
    110          6           0        9.203581   -0.190868    2.399280
    111          7           0        4.530871    1.854360    1.045697
    112          6           0        5.012586    1.889630    2.372654
    113          6           0        4.513198    3.138312    2.984062
    114          6           0        3.750496    3.736452    1.969662
    115          6           0        3.756350    2.908499    0.814690
    116          6           0        4.741385    3.557065    4.325221
    117          6           0        2.933025    4.874845    1.616813
    118          8           0        2.643341    5.938801    2.162536
    119          6           0        2.188968    4.557967    0.248470
    120          6           0        2.348360    5.750750   -0.653963
    121          8           0        3.471115    6.077352   -1.077464
    122          8           0        1.131985    6.175887   -1.041345
    123          6           0        1.238200    7.350849   -1.946875
    124          1           0        2.102818   -1.140432   -3.712573
    125          1           0        6.722310   -3.528405   -0.252876
    126          1           0        6.119208    1.156086    3.885543
    127          1           0        0.538850    3.246412   -2.074336
    128          1           0        1.001906    1.192108   -3.945827
    129          1           0       -0.361413    1.241697   -1.285176
    130          1           0        0.349621   -0.324255   -1.728508
    131          1           0       -0.843749    0.365632   -2.786615
    132          1           0        2.641769    2.904809   -4.225327
    133          1           0        2.740630    4.351884   -3.156972
    134          1           0        0.083648    4.179911   -4.166137
    135          1           0        1.082438    3.575252   -5.439591
    136          1           0        3.002167   -2.483864   -5.064263
    137          1           0        3.664473   -4.049125   -4.731841
    138          1           0        4.673660   -2.895865   -5.636453
    139          1           0        5.584998   -5.175281   -4.594989
    140          1           0        7.405509   -5.497315   -4.425361
    141          1           0        6.756378   -3.974335   -5.098110
    142          1           0        8.021882   -2.763761    1.802871
    143          1           0        6.532539   -1.499167    4.047738
    144          1           0        7.188350   -4.575251    2.876578
    145          1           0        5.557437   -4.060007    2.319190
    146          1           0        6.112868   -3.561874    3.835438
    147          1           0        9.049616   -1.636920    3.916902
    148          1           0        8.416258   -0.067009    4.374315
    149          1           0        9.629319   -1.067962    1.902733
    150          1           0        9.983790    0.481691    2.749942
    151          1           0        8.514908    0.286255    1.692352
    152          1           0        4.978549    4.611919    4.285938
    153          1           0        5.542570    2.985659    4.789280
    154          1           0        3.767337    3.332552    4.768043
    155          1           0        1.142559    4.358996    0.483018
    156          1           0        0.636100    8.150558   -1.504557
    157          1           0        0.935118    6.986137   -2.946312
    158          1           0        2.204523    7.834478   -2.029162
 ---------------------------------------------------------------------

 SCF Done:  E(RCAM-B3LYP) =  -4069.81155758     A.U. after   19 cycles

 Excitation energies and oscillator strengths:

 Excited State   1:      Singlet-A      1.6456 eV  753.45 nm  f=0.0010  <S**2>=0.000
     309 -> 315        0.11602
     310 -> 316       -0.11898
     311 -> 313        0.47732
     312 -> 314        0.49526
 This state for optimization and/or second-order correction.
 Total Energy, E(TD-HF/TD-DFT) =  -4069.75108437
 Copying the excited state density for this state as the 1-particle RhoCI density.

 Excited State   2:      Singlet-A      1.7049 eV  727.20 nm  f=0.6923  <S**2>=0.000
     309 -> 315        0.13153
     310 -> 316        0.12528
     311 -> 313        0.49248
     312 -> 314       -0.47472

 Excited State   3:      Singlet-A      2.1796 eV  568.83 nm  f=0.0318  <S**2>=0.000
     309 -> 313        0.28656
     310 -> 314        0.57805
     311 -> 315       -0.11820
     312 -> 316        0.24019

 Excited State   4:      Singlet-A      2.1959 eV  564.60 nm  f=0.1484  <S**2>=0.000
     309 -> 313        0.57307
     310 -> 314       -0.28209
     311 -> 315       -0.25254
     312 -> 316       -0.12576

 Excited State   5:      Singlet-A      2.2862 eV  542.31 nm  f=0.0000  <S**2>=0.000
     312 -> 313        0.70676

 The electronic state is 1-A.
 Alpha  occ. eigenvalues --  -46.88028 -46.87385 -19.26483 -19.25857 -19.19238
 Alpha  occ. eigenvalues --  -19.19021 -19.18728 -19.18493 -19.18323 -19.17644
 Alpha  occ. eigenvalues --  -14.42693 -14.42218 -14.41663 -14.41086 -14.39631
 Alpha  occ. eigenvalues --  -14.39081 -14.38805 -14.38311 -10.39294 -10.38637
 Alpha  occ. eigenvalues --  -10.35657 -10.35177 -10.34549 -10.33804 -10.31859
 Alpha  occ. eigenvalues --  -10.31643 -10.31401 -10.31173 -10.31003 -10.30789
 Alpha  occ. eigenvalues --  -10.30718 -10.30710 -10.30419 -10.30114 -10.30107
 Alpha  occ. eigenvalues --  -10.30065 -10.29912 -10.29838 -10.29617 -10.29477
 Alpha  occ. eigenvalues --  -10.29191 -10.29126 -10.29068 -10.28963 -10.28594
 Alpha  occ. eigenvalues --  -10.28457 -10.28400 -10.28324 -10.28100 -10.27996
 Alpha  occ. eigenvalues --  -10.27966 -10.27842 -10.27803 -10.27756 -10.27716
 Alpha  occ. eigenvalues --  -10.27659 -10.27636 -10.27602 -10.27412 -10.27354
 Alpha  occ. eigenvalues --  -10.27323 -10.27320 -10.27199 -10.27166 -10.27164
 Alpha  occ. eigenvalues --  -10.27158 -10.26650 -10.26508 -10.26470 -10.26419
 Alpha  occ. eigenvalues --  -10.26312 -10.26258 -10.26224 -10.25966 -10.25955
 Alpha  occ. eigenvalues --  -10.25683 -10.25679 -10.25582 -10.25570 -10.25206
 Alpha  occ. eigenvalues --  -10.25031 -10.24993 -10.24803 -10.24569 -10.24563
 Alpha  occ. eigenvalues --  -10.24412  -3.16770  -3.16136  -1.91651  -1.91238
 Alpha  occ. eigenvalues --   -1.91079  -1.91018  -1.90606  -1.90443  -1.16833
 Alpha  occ. eigenvalues --   -1.16170  -1.08776  -1.08231  -1.07420  -1.06851
 Alpha  occ. eigenvalues --   -1.06749  -1.06508  -1.04824  -1.04203  -1.03979
 Alpha  occ. eigenvalues --   -1.03450  -1.03384  -1.02767  -1.02627  -1.01831
 Alpha  occ. eigenvalues --   -0.92187  -0.91635  -0.89703  -0.89485  -0.89239
 Alpha  occ. eigenvalues --   -0.88839  -0.88466  -0.88054  -0.87984  -0.87919
 Alpha  occ. eigenvalues --   -0.87511  -0.87506  -0.87412  -0.86897  -0.85264
 Alpha  occ. eigenvalues --   -0.84719  -0.84100  -0.83638  -0.83183  -0.82897
 Alpha  occ. eigenvalues --   -0.82729  -0.82372  -0.81792  -0.81255  -0.80817
 Alpha  occ. eigenvalues --   -0.80136  -0.79018  -0.78389  -0.77449  -0.77167
 Alpha  occ. eigenvalues --   -0.76886  -0.76602  -0.76150  -0.75522  -0.75076
 Alpha  occ. eigenvalues --   -0.74548  -0.72979  -0.72425  -0.71885  -0.71291
 Alpha  occ. eigenvalues --   -0.70066  -0.69546  -0.69134  -0.68552  -0.67857
 Alpha  occ. eigenvalues --   -0.67527  -0.67320  -0.66949  -0.65560  -0.65065
 Alpha  occ. eigenvalues --   -0.64950  -0.64843  -0.64484  -0.64454  -0.64340
 Alpha  occ. eigenvalues --   -0.63951  -0.62493  -0.61908  -0.60657  -0.60102
 Alpha  occ. eigenvalues --   -0.60070  -0.59483  -0.59197  -0.58710  -0.58699
 Alpha  occ. eigenvalues --   -0.58117  -0.57779  -0.57502  -0.57155  -0.56932
 Alpha  occ. eigenvalues --   -0.56518  -0.56202  -0.55933  -0.55738  -0.55528
 Alpha  occ. eigenvalues --   -0.55512  -0.55173  -0.54958  -0.54705  -0.54192
 Alpha  occ. eigenvalues --   -0.54169  -0.53611  -0.53513  -0.53473  -0.53129
 Alpha  occ. eigenvalues --   -0.53011  -0.52970  -0.52854  -0.52593  -0.52588
 Alpha  occ. eigenvalues --   -0.52437  -0.52184  -0.52072  -0.51897  -0.51601
 Alpha  occ. eigenvalues --   -0.51393  -0.51386  -0.50893  -0.50819  -0.50288
 Alpha  occ. eigenvalues --   -0.50232  -0.50138  -0.49764  -0.49735  -0.49636
 Alpha  occ. eigenvalues --   -0.49432  -0.49332  -0.49225  -0.48894  -0.48799
 Alpha  occ. eigenvalues --   -0.48784  -0.48664  -0.48622  -0.48252  -0.48143
 Alpha  occ. eigenvalues --   -0.48061  -0.47920  -0.47509  -0.47324  -0.47012
 Alpha  occ. eigenvalues --   -0.46877  -0.46834  -0.46560  -0.46447  -0.46349
 Alpha  occ. eigenvalues --   -0.46282  -0.46018  -0.46008  -0.45794  -0.45493
 Alpha  occ. eigenvalues --   -0.45378  -0.44959  -0.44786  -0.44732  -0.44355
 Alpha  occ. eigenvalues --   -0.44332  -0.44222  -0.44214  -0.44202  -0.43849
 Alpha  occ. eigenvalues --   -0.43834  -0.43689  -0.43641  -0.43623  -0.43239
 Alpha  occ. eigenvalues --   -0.43230  -0.43092  -0.42889  -0.42826  -0.42625
 Alpha  occ. eigenvalues --   -0.42491  -0.42325  -0.42214  -0.41911  -0.41799
 Alpha  occ. eigenvalues --   -0.41706  -0.41359  -0.41335  -0.41181  -0.41128
 Alpha  occ. eigenvalues --   -0.41074  -0.40757  -0.40722  -0.40574  -0.40489
 Alpha  occ. eigenvalues --   -0.40443  -0.40227  -0.39943  -0.39598  -0.39221
 Alpha  occ. eigenvalues --   -0.38671  -0.38118  -0.38075  -0.37536  -0.37519
 Alpha  occ. eigenvalues --   -0.37399  -0.37013  -0.36919  -0.36908  -0.36400
 Alpha  occ. eigenvalues --   -0.36392  -0.35909  -0.34505  -0.33984  -0.33968
 Alpha  occ. eigenvalues --   -0.33458  -0.33403  -0.32889  -0.31550  -0.31257
 Alpha  occ. eigenvalues --   -0.31051  -0.30677  -0.30183  -0.29668  -0.29533
 Alpha  occ. eigenvalues --   -0.29519  -0.29066  -0.28910  -0.24306  -0.23741
 Alpha  occ. eigenvalues --   -0.21348  -0.20843
 Alpha virt. eigenvalues --   -0.08991  -0.08511  -0.01970  -0.01416  -0.00284
 Alpha virt. eigenvalues --    0.00228   0.02014   0.02486   0.02644   0.03506
 Alpha virt. eigenvalues --    0.04408   0.04836   0.04967   0.05550   0.05649

 Mulliken charges:
               1
     1  Mg   0.834556
     2  C   -0.003809
     3  C   -0.095444
     4  C   -0.045071
     5  C   -0.063281
     6  N   -0.256701
     7  C   -0.054079
     8  C   -0.012977
     9  C   -0.086843
    10  C    0.045077
    11  C    0.104640
    12  C    0.051045
    13  C   -0.071696
    14  H    0.035349
    15  N   -0.433354
    16  C    0.167449
    17  C   -0.178496
    18  C   -0.004257
    19  C    0.148801
    20  C    0.110313
    21  C    0.012349
    22  O   -0.248629
    23  C    0.062901
    24  N   -0.340765
    25  C    0.041041
    26  C   -0.028281
    27  C   -0.024197
    28  C    0.075105
    29  C    0.075981
    30  C    0.034921
    31  C   -0.004536
    32  N   -0.310963
    33  C    0.080920
    34  C   -0.168641
    35  C    0.009359
    36  C    0.082495
    37  C    0.126908
    38  C    0.047080
    39  O   -0.185919
    40  C   -0.005944
    41  C    0.213890
    42  O   -0.257997
    43  O   -0.304666
    44  C    0.156269
    45  H   -0.017892
    46  H   -0.016262
    47  H   -0.040542
    48  H    0.001931
    49  H   -0.004968
    50  H    0.026012
    51  H    0.017189
    52  H    0.016927
    53  H    0.009723
    54  H    0.042531
    55  H    0.019754
    56  H    0.017389
    57  H    0.005486
    58  H    0.027559
    59  H    0.037284
    60  H    0.037618
    61  H    0.036414
    62  H    0.029290
    63  H    0.017099
    64  H    0.009935
    65  H    0.023682
    66  H    0.012545
    67  H    0.005107
    68  H    0.006774
    69  H    0.005095
    70  H    0.009183
    71  H    0.018458
    72  H    0.028942
    73  H    0.049565
    74  H    0.009526
    75  H    0.046429
    76  H    0.035636
    77  H    0.044178
    78  H    0.045010
    79  H    0.055794
    80  Mg   0.837018
    81  C   -0.016973
    82  C   -0.087800
    83  C   -0.045672
    84  C   -0.065951
    85  N   -0.254510
    86  C   -0.048782
    87  C   -0.017466
    88  C   -0.092403
    89  C    0.045240
    90  C    0.105003
    91  C    0.062714
    92  C   -0.077163
    93  H    0.032673
    94  N   -0.423375
    95  C    0.162668
    96  C   -0.175236
    97  C   -0.008217
    98  C    0.151876
    99  C    0.099946
   100  C    0.015269
   101  O   -0.253711
   102  C    0.061390
   103  N   -0.350183
   104  C    0.037232
   105  C   -0.019590
   106  C   -0.034739
   107  C    0.089316
   108  C    0.073844
   109  C    0.034892
   110  C   -0.007553
   111  N   -0.324435
   112  C    0.079110
   113  C   -0.163609
   114  C    0.003523
   115  C    0.095454
   116  C    0.131427
   117  C    0.043513
   118  O   -0.185877
   119  C   -0.000304
   120  C    0.209408
   121  O   -0.253306
   122  O   -0.300449
   123  C    0.153101
   124  H   -0.021682
   125  H   -0.016227
   126  H   -0.041136
   127  H    0.010328
   128  H   -0.007106
   129  H    0.036110
   130  H    0.013226
   131  H    0.017295
   132  H    0.012530
   133  H    0.037620
   134  H    0.021881
   135  H    0.017372
   136  H    0.006848
   137  H    0.024584
   138  H    0.038798
   139  H    0.037591
   140  H    0.035756
   141  H    0.033356
   142  H    0.013894
   143  H    0.011691
   144  H    0.024583
   145  H    0.012169
   146  H    0.004685
   147  H    0.005697
   148  H    0.003335
   149  H    0.010704
   150  H    0.017479
   151  H    0.030474
   152  H    0.045986
   153  H    0.007551
   154  H    0.047661
   155  H    0.048983
   156  H    0.042946
   157  H    0.047220
   158  H    0.052178
 Sum of Mulliken charges =  -0.00000

 Dipole moment (field-independent basis, Debye):
    X=             -4.7052    Y=             -4.3949    Z=             -5.4823  Tot=              8.4563
 Quadrupole moment (field-independent basis, Debye-Ang):
   XX=           -509.9116   YY=           -562.9507   ZZ=           -449.7424
   XY=              2.3812   XZ=             32.7396   YZ=            -25.2232

 Normal termination of Gaussian 16 at Fri Sep 10 03:29:26 2021.
