 Gaussian 16, Revision A.03,
 Gaussian 16:  ES64L-G16RevA.03 25-Dec-2016

 -----------------------------------
 #p cam-b3lyp/Def2SVP td=(nstates=5)
 -----------------------------------

 --------------------------------
 TDDFT excited states in gaussian
 --------------------------------
 Symbolic Z-matrix:
 Charge =  0 Multiplicity = 1

                         Standard orientation:
 ---------------------------------------------------------------------
 Center     Atomic      Atomic             Coordinates (Angstroms)
 Number     Number       Type             X           Y           Z
 ---------------------------------------------------------------------
      1         12           0       15.961864    0.614673    0.101859
      2          6           0       16.133203   -2.955887   -0.082416
      3          6           0       16.828001    0.677878   -3.197970
      4          6           0       16.260957    3.761781    0.352616
      5          6           0       16.230469    0.301561    3.562419
      6          7           0       16.396966   -1.000485   -1.348173
      7          6           0       16.369363   -2.328938   -1.307900
      8          6           0       16.540286   -2.993135   -2.706828
      9          6           0       17.301178   -1.809335   -3.456268
     10          6           0       16.785116   -0.635506   -2.642800
     11          6           0       18.818551   -1.875068   -3.315697
     12          6           0       15.165723   -3.311139   -3.385931
     13          6           0       15.235720   -4.247795   -4.595530
     14          1           0       14.151272   -5.193401   -4.812673
     15          7           0       15.989665    2.014111   -1.292290
     16          6           0       16.353911    1.859382   -2.587925
     17          6           0       16.203879    3.190065   -3.215183
     18          6           0       15.904996    4.171093   -2.135207
     19          6           0       16.067913    3.348849   -0.963562
     20          6           0       16.296009    3.418333   -4.692734
     21          6           0       15.542035    5.622294   -2.155382
     22          8           0       15.551875    6.340638   -1.097810
     23          6           0       15.256632    6.209764   -3.476921
     24          7           0       16.430533    1.873739    1.699589
     25          6           0       16.436114    3.203084    1.551959
     26          6           0       16.517505    3.899383    2.878037
     27          6           0       16.320946    2.765816    3.985351
     28          6           0       16.237676    1.534272    3.050132
     29          6           0       17.820370    4.662367    3.154459
     30          6           0       15.189434    2.983253    5.021121
     31          6           0       13.843914    2.906521    4.334983
     32          7           0       15.971887   -1.019008    1.530856
     33          6           0       16.117411   -0.921247    2.922236
     34          6           0       16.171348   -2.297473    3.448695
     35          6           0       16.069447   -3.105481    2.317949
     36          6           0       15.985271   -2.285960    1.156230
     37          6           0       16.357525   -2.661727    4.811446
     38          6           0       16.036884   -4.470617    1.818750
     39          8           0       15.979486   -5.584231    2.342257
     40          6           0       16.199520   -4.429070    0.235193
     41          6           0       15.143050   -5.323627   -0.353832
     42          8           0       13.933321   -5.031198   -0.262135
     43          8           0       15.726683   -6.248810   -1.130974
     44          6           0       14.731641   -7.151038   -1.769745
     45          1           0       17.321260    0.828304   -4.160264
     46          1           0       16.258587    4.844382    0.495470
     47          1           0       16.228378    0.125981    4.639740
     48          1           0       17.156032   -3.892728   -2.710655
     49          1           0       16.986936   -1.717339   -4.495744
     50          1           0       19.120375   -2.653058   -2.614588
     51          1           0       19.119595   -0.893817   -2.948256
     52          1           0       19.293328   -1.988552   -4.290625
     53          1           0       14.787207   -2.410904   -3.870042
     54          1           0       14.460021   -3.713818   -2.658498
     55          1           0       16.200281   -4.752978   -4.653150
     56          1           0       15.193183   -3.641149   -5.500169
     57          1           0       16.687812    2.543139   -5.209524
     58          1           0       17.052024    4.187459   -4.849559
     59          1           0       15.346467    3.744149   -5.117640
     60          1           0       16.130210    6.093476   -4.118706
     61          1           0       14.929072    7.231361   -3.287465
     62          1           0       14.452358    5.644298   -3.948452
     63          1           0       15.725169    4.639777    2.980238
     64          1           0       17.215369    2.628656    4.593519
     65          1           0       17.669827    5.718075    3.381446
     66          1           0       18.473782    4.537215    2.291510
     67          1           0       18.433624    4.245450    3.952906
     68          1           0       15.267083    3.975222    5.464871
     69          1           0       15.202702    2.255121    5.832231
     70          1           0       13.714566    3.913345    3.939501
     71          1           0       13.062088    2.667058    5.056520
     72          1           0       13.868533    2.223491    3.485659
     73          1           0       15.652673   -3.468911    5.010461
     74          1           0       16.186695   -1.814128    5.474769
     75          1           0       17.401006   -2.975982    4.795719
     76          1           0       17.205826   -4.783408    0.014026
     77          1           0       15.003871   -8.171476   -1.499872
     78          1           0       14.716303   -6.894833   -2.829240
     79          1           0       13.714343   -7.099561   -1.380140
     80         12           0      -15.797071    0.888147    0.190396
     81          6           0      -16.897642   -2.527622    0.172102
     82          6           0      -16.189484    0.876388   -3.197886
     83          6           0      -14.408728    3.740314    0.119311
     84          6           0      -14.427884    0.284746    3.337935
     85          7           0      -16.464426   -0.682784   -1.216400
     86          6           0      -16.915996   -1.922665   -1.101924
     87          6           0      -17.490270   -2.521723   -2.413756
     88          6           0      -16.693609   -1.605967   -3.465234
     89          6           0      -16.460732   -0.375711   -2.590634
     90          6           0      -15.340713   -2.176842   -3.856522
     91          6           0      -19.041428   -2.318530   -2.534772
     92          6           0      -19.714281   -3.143701   -3.633914
     93          1           0      -21.058973   -3.659491   -3.392567
     94          7           0      -15.812145    2.289132   -1.215152
     95          6           0      -16.009271    2.112106   -2.538433
     96          6           0      -15.904213    3.449011   -3.143243
     97          6           0      -15.465741    4.406438   -2.091681
     98          6           0      -15.185667    3.492035   -1.002870
     99          6           0      -16.283600    3.729530   -4.568309
    100          6           0      -15.310399    5.896988   -2.073576
    101          8           0      -14.687867    6.497662   -1.127815
    102          6           0      -15.826970    6.624197   -3.242255
    103          7           0      -14.412191    1.813575    1.434593
    104          6           0      -14.014237    3.077541    1.206704
    105          6           0      -13.233463    3.623271    2.378443
    106          6           0      -13.397375    2.541727    3.545058
    107          6           0      -14.205918    1.468582    2.783470
    108          6           0      -11.747612    3.878710    2.126726
    109          6           0      -13.944887    3.052137    4.906080
    110          6           0      -15.386664    3.480651    4.754394
    111          7           0      -15.825850   -0.737299    1.613481
    112          6           0      -15.163875   -0.791797    2.859642
    113          6           0      -15.388188   -2.143033    3.413048
    114          6           0      -16.151825   -2.793605    2.432182
    115          6           0      -16.369762   -1.916801    1.335279
    116          6           0      -14.870522   -2.634004    4.644756
    117          6           0      -16.814119   -4.026217    2.070585
    118          8           0      -17.040827   -5.091058    2.643692
    119          6           0      -17.219355   -3.950670    0.535508
    120          6           0      -18.649448   -4.399676    0.409993
    121          8           0      -19.568005   -3.733799    0.919376
    122          8           0      -18.716683   -5.415805   -0.469396
    123          6           0      -20.116892   -5.888472   -0.636182
    124          1           0      -16.060288    0.911063   -4.280007
    125          1           0      -13.998319    4.749955    0.194669
    126          1           0      -14.116659    0.050386    4.358173
    127          1           0      -17.254702   -3.566485   -2.577309
    128          1           0      -17.315622   -1.353823   -4.320158
    129          1           0      -15.086307   -3.047765   -3.270934
    130          1           0      -14.625583   -1.383113   -3.684422
    131          1           0      -15.313493   -2.379279   -4.931049
    132          1           0      -19.241812   -1.306748   -2.910110
    133          1           0      -19.524600   -2.505530   -1.595518
    134          1           0      -19.059810   -3.938644   -4.011643
    135          1           0      -19.879696   -2.498499   -4.500157
    136          1           0      -16.411284    2.802361   -5.140550
    137          1           0      -15.424579    4.221826   -5.036923
    138          1           0      -17.154346    4.383404   -4.651479
    139          1           0      -15.332308    6.262217   -4.140451
    140          1           0      -15.705283    7.682851   -3.004927
    141          1           0      -16.892214    6.393634   -3.354996
    142          1           0      -13.647168    4.566619    2.713147
    143          1           0      -12.435014    2.080211    3.810960
    144          1           0      -11.444058    4.923375    2.328256
    145          1           0      -11.523324    3.608229    1.103456
    146          1           0      -11.067652    3.240694    2.688671
    147          1           0      -13.390612    3.936611    5.229568
    148          1           0      -13.874308    2.318770    5.702443
    149          1           0      -15.301614    4.499503    4.364784
    150          1           0      -15.893595    3.467274    5.717140
    151          1           0      -15.898266    2.878744    3.994374
    152          1           0      -15.675174   -3.171721    5.128395
    153          1           0      -14.499291   -1.825148    5.270612
    154          1           0      -14.062651   -3.271883    4.276359
    155          1           0      -16.536912   -4.598711   -0.015745
    156          1           0      -20.119702   -6.961447   -0.420739
    157          1           0      -20.417559   -5.578411   -1.654626
    158          1           0      -20.854913   -5.528788    0.071209
 ---------------------------------------------------------------------

 SCF Done:  E(RCAM-B3LYP) =  -4069.81176074     A.U. after   19 cycles

 Excitation energies and oscillator strengths:

 Excited State   1:      Singlet-A      1.6753 eV  740.07 nm  f=0.2124  <S**2>=0.000
     310 -> 316        0.16862
     311 -> 314       -0.16214
     312 -> 313        0.66662
     310 <- 316        0.10166
 This state for optimization and/or second-order correction.
 Total Energy, E(TD-HF/TD-DFT) =  -4069.75019464
 Copying the excited state density for this state as the 1-particle RhoCI density.

 Excited State   2:      Singlet-A      1.6801 eV  737.95 nm  f=0.5650  <S**2>=0.000
     309 -> 315        0.17064
     311 -> 314        0.66625
     312 -> 313        0.16209
     309 <- 315        0.10216

 Excited State   3:      Singlet-A      2.1861 eV  567.16 nm  f=0.0968  <S**2>=0.000
     310 -> 313        0.64217
     312 -> 316       -0.27297

 Excited State   4:      Singlet-A      2.1925 eV  565.48 nm  f=0.1037  <S**2>=0.000
     309 -> 314        0.64039
     311 -> 315       -0.27817

 Excited State   5:      Singlet-A      3.0643 eV  404.61 nm  f=0.0000  <S**2>=0.000
     311 -> 313        0.70711

 The electronic state is 1-A.
 Alpha  occ. eigenvalues --  -46.87788 -46.87660 -19.26350 -19.26275 -19.19161
 Alpha  occ. eigenvalues --  -19.19011 -19.18806 -19.18715 -19.18160 -19.18051
 Alpha  occ. eigenvalues --  -14.42497 -14.42441 -14.41441 -14.41359 -14.39394
 Alpha  occ. eigenvalues --  -14.39352 -14.38599 -14.38578 -10.39091 -10.39070
 Alpha  occ. eigenvalues --  -10.35440 -10.35392 -10.34380 -10.34228 -10.31757
 Alpha  occ. eigenvalues --  -10.31670 -10.31396 -10.31309 -10.31024 -10.30900
 Alpha  occ. eigenvalues --  -10.30561 -10.30499 -10.30397 -10.30360 -10.30198
 Alpha  occ. eigenvalues --  -10.30140 -10.29912 -10.29893 -10.29622 -10.29437
 Alpha  occ. eigenvalues --  -10.29400 -10.29246 -10.28741 -10.28720 -10.28656
 Alpha  occ. eigenvalues --  -10.28531 -10.28405 -10.28356 -10.28141 -10.28108
 Alpha  occ. eigenvalues --  -10.28001 -10.27784 -10.27719 -10.27669 -10.27576
 Alpha  occ. eigenvalues --  -10.27515 -10.27492 -10.27484 -10.27473 -10.27469
 Alpha  occ. eigenvalues --  -10.27465 -10.27440 -10.27395 -10.27373 -10.27149
 Alpha  occ. eigenvalues --  -10.27050 -10.26696 -10.26694 -10.26417 -10.26402
 Alpha  occ. eigenvalues --  -10.26226 -10.26174 -10.26134 -10.26026 -10.26010
 Alpha  occ. eigenvalues --  -10.25933 -10.25848 -10.25834 -10.25427 -10.25393
 Alpha  occ. eigenvalues --  -10.24872 -10.24824 -10.24779 -10.24729 -10.24689
 Alpha  occ. eigenvalues --  -10.24677  -3.16530  -3.16410  -1.91412  -1.91292
 Alpha  occ. eigenvalues --   -1.90999  -1.90881  -1.90841  -1.90718  -1.16644
 Alpha  occ. eigenvalues --   -1.16624  -1.08658  -1.08618  -1.07208  -1.06967
 Alpha  occ. eigenvalues --   -1.06946  -1.06633  -1.04572  -1.04495  -1.03752
 Alpha  occ. eigenvalues --   -1.03663  -1.03225  -1.03038  -1.02402  -1.02111
 Alpha  occ. eigenvalues --   -0.91987  -0.91963  -0.89511  -0.89493  -0.89179
 Alpha  occ. eigenvalues --   -0.89152  -0.88278  -0.88219  -0.87861  -0.87793
 Alpha  occ. eigenvalues --   -0.87684  -0.87664  -0.87265  -0.87121  -0.85000
 Alpha  occ. eigenvalues --   -0.84974  -0.83927  -0.83874  -0.82959  -0.82932
 Alpha  occ. eigenvalues --   -0.82653  -0.82640  -0.81596  -0.81577  -0.80587
 Alpha  occ. eigenvalues --   -0.80443  -0.78789  -0.78636  -0.77210  -0.77144
 Alpha  occ. eigenvalues --   -0.76926  -0.76898  -0.75914  -0.75839  -0.74889
 Alpha  occ. eigenvalues --   -0.74801  -0.72765  -0.72699  -0.71663  -0.71580
 Alpha  occ. eigenvalues --   -0.69898  -0.69756  -0.68864  -0.68828  -0.67632
 Alpha  occ. eigenvalues --   -0.67601  -0.67211  -0.67201  -0.65278  -0.65272
 Alpha  occ. eigenvalues --   -0.64845  -0.64770  -0.64654  -0.64612  -0.64260
 Alpha  occ. eigenvalues --   -0.64202  -0.62288  -0.62278  -0.60433  -0.60340
 Alpha  occ. eigenvalues --   -0.59797  -0.59796  -0.58992  -0.58978  -0.58495
 Alpha  occ. eigenvalues --   -0.58425  -0.57575  -0.57554  -0.57300  -0.57236
 Alpha  occ. eigenvalues --   -0.56301  -0.56204  -0.55969  -0.55887  -0.55512
 Alpha  occ. eigenvalues --   -0.55452  -0.55330  -0.55246  -0.54514  -0.54487
 Alpha  occ. eigenvalues --   -0.53913  -0.53886  -0.53290  -0.53227  -0.53213
 Alpha  occ. eigenvalues --   -0.53142  -0.52906  -0.52902  -0.52748  -0.52669
 Alpha  occ. eigenvalues --   -0.52429  -0.52399  -0.51906  -0.51883  -0.51659
 Alpha  occ. eigenvalues --   -0.51608  -0.51201  -0.51187  -0.50564  -0.50476
 Alpha  occ. eigenvalues --   -0.50022  -0.49980  -0.49910  -0.49866  -0.49506
 Alpha  occ. eigenvalues --   -0.49488  -0.49206  -0.49203  -0.49104  -0.49087
 Alpha  occ. eigenvalues --   -0.48584  -0.48558  -0.48452  -0.48437  -0.48374
 Alpha  occ. eigenvalues --   -0.48339  -0.47686  -0.47595  -0.47288  -0.47118
 Alpha  occ. eigenvalues --   -0.46788  -0.46709  -0.46554  -0.46547  -0.46350
 Alpha  occ. eigenvalues --   -0.46270  -0.46153  -0.46084  -0.45822  -0.45813
 Alpha  occ. eigenvalues --   -0.45207  -0.45192  -0.44569  -0.44514  -0.44498
 Alpha  occ. eigenvalues --   -0.44476  -0.44136  -0.44128  -0.44080  -0.44077
 Alpha  occ. eigenvalues --   -0.44011  -0.43940  -0.43553  -0.43486  -0.43386
 Alpha  occ. eigenvalues --   -0.43377  -0.43018  -0.42930  -0.42901  -0.42690
 Alpha  occ. eigenvalues --   -0.42646  -0.42552  -0.42000  -0.41963  -0.41695
 Alpha  occ. eigenvalues --   -0.41669  -0.41525  -0.41459  -0.41132  -0.40989
 Alpha  occ. eigenvalues --   -0.40860  -0.40815  -0.40723  -0.40699  -0.40562
 Alpha  occ. eigenvalues --   -0.40492  -0.40228  -0.40226  -0.39432  -0.39424
 Alpha  occ. eigenvalues --   -0.38460  -0.38349  -0.37740  -0.37655  -0.37311
 Alpha  occ. eigenvalues --   -0.37265  -0.37255  -0.37200  -0.36771  -0.36704
 Alpha  occ. eigenvalues --   -0.36216  -0.36183  -0.34277  -0.34253  -0.33862
 Alpha  occ. eigenvalues --   -0.33761  -0.33177  -0.33175  -0.31336  -0.31274
 Alpha  occ. eigenvalues --   -0.31027  -0.30973  -0.30020  -0.29955  -0.29440
 Alpha  occ. eigenvalues --   -0.29327  -0.29313  -0.29211  -0.24072  -0.24036
 Alpha  occ. eigenvalues --   -0.21119  -0.21117
 Alpha virt. eigenvalues --   -0.08792  -0.08765  -0.01741  -0.01683  -0.00049
 Alpha virt. eigenvalues --   -0.00029   0.02208   0.02209   0.03131   0.03228
 Alpha virt. eigenvalues --    0.04726   0.04729   0.05107   0.05165   0.06181

 Mulliken charges:
               1
     1  Mg   0.838736
     2  C   -0.002969
     3  C   -0.094124
     4  C   -0.045887
     5  C   -0.063952
     6  N   -0.256779
     7  C   -0.052455
     8  C   -0.014016
     9  C   -0.086995
    10  C    0.046318
    11  C    0.104811
    12  C    0.053472
    13  C   -0.071817
    14  H    0.036134
    15  N   -0.433148
    16  C    0.168436
    17  C   -0.177166
    18  C   -0.003997
    19  C    0.148721
    20  C    0.110186
    21  C    0.012283
    22  O   -0.249619
    23  C    0.062468
    24  N   -0.341162
    25  C    0.041261
    26  C   -0.028177
    27  C   -0.023983
    28  C    0.074838
    29  C    0.076181
    30  C    0.035141
    31  C   -0.004510
    32  N   -0.310472
    33  C    0.080420
    34  C   -0.169710
    35  C    0.008373
    36  C    0.083003
    37  C    0.127309
    38  C    0.046106
    39  O   -0.188429
    40  C   -0.005335
    41  C    0.212877
    42  O   -0.257095
    43  O   -0.304797
    44  C    0.157680
    45  H   -0.017613
    46  H   -0.016837
    47  H   -0.041488
    48  H    0.000935
    49  H   -0.004039
    50  H    0.025475
    51  H    0.016449
    52  H    0.016649
    53  H    0.011204
    54  H    0.044132
    55  H    0.017870
    56  H    0.017943
    57  H    0.005866
    58  H    0.026815
    59  H    0.039547
    60  H    0.037340
    61  H    0.035653
    62  H    0.031506
    63  H    0.016558
    64  H    0.009460
    65  H    0.023210
    66  H    0.012539
    67  H    0.004749
    68  H    0.006365
    69  H    0.004733
    70  H    0.008781
    71  H    0.018153
    72  H    0.028984
    73  H    0.047582
    74  H    0.009116
    75  H    0.046007
    76  H    0.035147
    77  H    0.042953
    78  H    0.046395
    79  H    0.053701
    80  Mg   0.837892
    81  C   -0.016859
    82  C   -0.087806
    83  C   -0.045517
    84  C   -0.064871
    85  N   -0.254566
    86  C   -0.049853
    87  C   -0.015072
    88  C   -0.090515
    89  C    0.045768
    90  C    0.114374
    91  C    0.062531
    92  C   -0.077902
    93  H    0.034901
    94  N   -0.423508
    95  C    0.162924
    96  C   -0.174633
    97  C   -0.007809
    98  C    0.152122
    99  C    0.099371
   100  C    0.015563
   101  O   -0.253164
   102  C    0.061194
   103  N   -0.350082
   104  C    0.037538
   105  C   -0.019844
   106  C   -0.034831
   107  C    0.088949
   108  C    0.073629
   109  C    0.034708
   110  C   -0.007666
   111  N   -0.324123
   112  C    0.078458
   113  C   -0.163114
   114  C    0.002257
   115  C    0.096224
   116  C    0.131490
   117  C    0.042390
   118  O   -0.187836
   119  C    0.000925
   120  C    0.211257
   121  O   -0.251017
   122  O   -0.305619
   123  C    0.152012
   124  H   -0.019678
   125  H   -0.015551
   126  H   -0.040400
   127  H   -0.000643
   128  H   -0.004337
   129  H    0.022480
   130  H    0.014440
   131  H    0.016265
   132  H    0.013915
   133  H    0.037677
   134  H    0.020790
   135  H    0.019582
   136  H    0.008749
   137  H    0.026131
   138  H    0.039784
   139  H    0.038241
   140  H    0.036396
   141  H    0.033891
   142  H    0.014399
   143  H    0.012493
   144  H    0.025163
   145  H    0.011642
   146  H    0.005752
   147  H    0.006303
   148  H    0.003690
   149  H    0.010926
   150  H    0.017943
   151  H    0.030071
   152  H    0.046019
   153  H    0.008546
   154  H    0.047007
   155  H    0.035045
   156  H    0.043929
   157  H    0.049487
   158  H    0.053584
 Sum of Mulliken charges =  -0.00000

 Dipole moment (field-independent basis, Debye):
    X=              2.9632    Y=              2.7653    Z=             -8.0012  Tot=              8.9692
 Quadrupole moment (field-independent basis, Debye-Ang):
   XX=           -477.5938   YY=           -559.0113   ZZ=           -445.2984
   XY=              2.9852   XZ=             26.8595   YZ=             33.3527

 Normal termination of Gaussian 16 at Sun Sep 12 17:40:30 2021.
