 Gaussian 16, Revision A.03,
 Gaussian 16:  ES64L-G16RevA.03 25-Dec-2016

 -----------------------------------
 #p cam-b3lyp/Def2SVP td=(nstates=5)
 -----------------------------------

 --------------------------------
 TDDFT excited states in gaussian
 --------------------------------
 Symbolic Z-matrix:
 Charge =  0 Multiplicity = 1

                         Standard orientation:
 ---------------------------------------------------------------------
 Center     Atomic      Atomic             Coordinates (Angstroms)
 Number     Number       Type             X           Y           Z
 ---------------------------------------------------------------------
      1         12           0       15.792174   -0.739799    0.186889
      2          6           0       16.019903    2.539960   -1.228572
      3          6           0       16.618584    0.659529    3.187221
      4          6           0       16.042503   -3.674078    1.363311
      5          6           0       16.106250   -1.997309   -3.048182
      6          7           0       16.236760    1.346836    0.777602
      7          6           0       16.231426    2.519672    0.151824
      8          6           0       16.396884    3.733978    1.113831
      9          6           0       17.129454    2.998458    2.323934
     10          6           0       16.603734    1.590535    2.106463
     11          6           0       18.649239    2.980536    2.195732
     12          6           0       15.019890    4.333371    1.556942
     13          6           0       15.091121    5.708783    2.226661
     14          1           0       14.019872    6.662832    1.982605
     15          7           0       15.780739   -1.375500    2.057345
     16          6           0       16.132327   -0.665409    3.156182
     17          6           0       15.953174   -1.578092    4.305788
     18          6           0       15.650863   -2.933569    3.767843
     19          6           0       15.840911   -2.718185    2.356152
     20          6           0       16.024296   -1.127897    5.732679
     21          6           0       15.263933   -4.221599    4.423125
     22          8           0       15.274330   -5.334681    3.794225
     23          6           0       14.953526   -4.158921    5.862833
     24          7           0       16.258740   -2.581479   -0.678077
     25          6           0       16.240788   -3.707268    0.043906
     26          6           0       16.326217   -4.920419   -0.834106
     27          6           0       16.161218   -4.394086   -2.332606
     28          6           0       16.087254   -2.874711   -2.042264
     29          6           0       17.619527   -5.739203   -0.720293
     30          6           0       15.038457   -5.037754   -3.184379
     31          6           0       13.686461   -4.651722   -2.627439
     32          7           0       15.845673    0.089987   -1.818014
     33          6           0       16.005804   -0.616394   -3.018871
     34          6           0       16.088452    0.382744   -4.100057
     35          6           0       15.986630    1.609519   -3.446988
     36          6           0       15.875467    1.391422   -2.044002
     37          6           0       16.296471    0.102697   -5.479453
     38          6           0       15.970642    3.054652   -3.605709
     39          8           0       15.937635    3.820830   -4.569750
     40          6           0       16.114081    3.718536   -2.165393
     41          6           0       15.065626    4.791586   -2.053072
     42          8           0       13.852415    4.500371   -2.026999
     43          8           0       15.655248    5.959933   -1.756672
     44          6           0       14.667754    7.061346   -1.602087
     45          1           0       17.098044    0.947025    4.124987
     46          1           0       16.024040   -4.707575    1.715418
     47          1           0       16.119614   -2.317983   -4.091467
     48          1           0       17.027218    4.535948    0.729192
     49          1           0       16.801634    3.380253    3.290624
     50          1           0       18.971947    3.363729    1.227774
     51          1           0       18.938412    1.935315    2.307021
     52          1           0       19.114402    3.510308    3.027442
     53          1           0       14.621032    3.745076    2.383308
     54          1           0       14.329427    4.378158    0.713983
     55          1           0       16.063102    6.177864    2.071342
     56          1           0       15.028083    5.566975    3.305603
     57          1           0       16.424346   -0.118045    5.814549
     58          1           0       16.765710   -1.754735    6.227744
     59          1           0       15.064642   -1.222281    6.241096
     60          1           0       15.821345   -3.778258    6.401847
     61          1           0       14.611484   -5.155334    6.140356
     62          1           0       14.153189   -3.435310    6.020302
     63          1           0       15.523088   -5.621698   -0.611359
     64          1           0       17.064808   -4.549553   -2.922546
     65          1           0       17.454345   -6.784521   -0.458131
     66          1           0       18.264788   -5.250363    0.009067
     67          1           0       18.248816   -5.725729   -1.609804
     68          1           0       15.104997   -6.124313   -3.140679
     69          1           0       15.073135   -4.745302   -4.233913
     70          1           0       13.536005   -5.377234   -1.828797
     71          1           0       12.917143   -4.749855   -3.394075
     72          1           0       13.712367   -3.663020   -2.168874
     73          1           0       15.607327    0.744429   -6.028296
     74          1           0       16.119513   -0.949553   -5.700948
     75          1           0       17.344713    0.381345   -5.586230
     76          1           0       17.123415    4.124615   -2.106515
     77          1           0       14.959819    7.853431   -2.291676
     78          1           0       14.635850    7.302027   -0.539326
     79          1           0       13.654364    6.852028   -1.946421
     80         12           0      -15.961417   -0.722490   -0.330965
     81          6           0      -15.770417    2.710363    0.697662
     82          6           0      -15.137599   -1.571395    2.868298
     83          6           0      -15.679722   -3.728515   -1.306611
     84          6           0      -15.639103    0.389221   -3.618200
     85          7           0      -15.534547    0.501262    1.461367
     86          6           0      -15.552467    1.794316    1.747790
     87          6           0      -15.403720    2.120675    3.258068
     88          6           0      -14.652253    0.779112    3.721106
     89          6           0      -15.162594   -0.172220    2.640739
     90          6           0      -13.139529    0.866055    3.605201
     91          6           0      -16.790534    2.278837    3.974827
     92          6           0      -16.725164    2.899116    5.372228
     93          1           0      -17.813442    3.775650    5.796273
     94          7           0      -15.963345   -2.414728    0.705802
     95          6           0      -15.622032   -2.575570    2.001528
     96          6           0      -15.772124   -4.011913    2.281803
     97          6           0      -16.071164   -4.710746    1.002373
     98          6           0      -15.891865   -3.624198    0.060384
     99          6           0      -15.709642   -4.581078    3.669455
    100          6           0      -16.442872   -6.126144    0.678826
    101          8           0      -16.424112   -6.569160   -0.523760
    102          6           0      -16.739075   -7.003559    1.820707
    103          7           0      -15.486079   -1.569599   -2.169124
    104          6           0      -15.484308   -2.903829   -2.335697
    105          6           0      -15.385943   -3.270951   -3.797184
    106          6           0      -15.566383   -1.898461   -4.598007
    107          6           0      -15.652471   -0.919638   -3.406413
    108          6           0      -14.082698   -3.943604   -4.227863
    109          6           0      -16.685739   -1.853371   -5.673962
    110          6           0      -18.041965   -1.939689   -5.011710
    111          7           0      -15.928414    1.193623   -1.328702
    112          6           0      -15.757749    1.433328   -2.709819
    113          6           0      -15.689728    2.897726   -2.892396
    114          6           0      -15.803356    3.411743   -1.591873
    115          6           0      -15.912750    2.342533   -0.662192
    116          6           0      -15.493729    3.573569   -4.129709
    117          6           0      -15.844943    4.615426   -0.793046
    118          8           0      -15.882191    5.820361   -1.038976
    119          6           0      -15.698359    4.211653    0.737271
    120          6           0      -16.757958    4.943692    1.514353
    121          8           0      -17.962416    4.695355    1.329360
    122          8           0      -16.172826    5.654428    2.495601
    123          6           0      -17.184105    6.389426    3.301160
    124          1           0      -14.664262   -1.940623    3.778528
    125          1           0      -15.685598   -4.744350   -1.708510
    126          1           0      -15.637819    0.818082   -4.622573
    127          1           0      -14.789351    2.985631    3.477534
    128          1           0      -14.988800    0.456708    4.703015
    129          1           0      -12.824499    1.776572    3.117494
    130          1           0      -12.838801    0.002952    3.025843
    131          1           0      -12.678411    0.743893    4.589466
    132          1           0      -17.177826    1.283748    4.228889
    133          1           0      -17.473875    2.835900    3.363811
    134          1           0      -15.754031    3.369124    5.569555
    135          1           0      -16.789790    2.096895    6.111351
    136          1           0      -15.312961   -3.851332    4.386059
    137          1           0      -14.961205   -5.380742    3.653668
    138          1           0      -16.664592   -4.997231    3.997414
    139          1           0      -15.874997   -7.042728    2.479720
    140          1           0      -17.070235   -7.948280    1.385135
    141          1           0      -17.556718   -6.560068    2.399838
    142          1           0      -16.181150   -3.949845   -4.079754
    143          1           0      -14.658627   -1.631628   -5.158917
    144          1           0      -14.237399   -4.930092   -4.704298
    145          1           0      -13.443513   -4.036555   -3.359913
    146          1           0      -13.464840   -3.360217   -4.908383
    147          1           0      -16.608585   -2.718427   -6.337202
    148          1           0      -16.650595   -0.965828   -6.296879
    149          1           0      -18.176477   -3.015422   -4.864056
    150          1           0      -18.812634   -1.531173   -5.662265
    151          1           0      -18.026855   -1.470362   -4.021177
    152          1           0      -16.184371    4.406240   -4.142463
    153          1           0      -15.655476    2.908899   -4.975767
    154          1           0      -14.444165    3.862889   -4.029794
    155          1           0      -14.692530    4.489592    1.054515
    156          1           0      -16.899430    7.446009    3.284325
    157          1           0      -17.202218    5.888280    4.287200
    158          1           0      -18.195227    6.436624    2.914064
 ---------------------------------------------------------------------

 SCF Done:  E(RCAM-B3LYP) =  -4069.81176528     A.U. after   19 cycles

 Excitation energies and oscillator strengths:

 Excited State   1:      Singlet-A      1.6754 eV  740.02 nm  f=0.2834  <S**2>=0.000
     310 -> 316        0.17047
     311 -> 314       -0.12900
     312 -> 313        0.67381
     310 <- 316        0.10277
 This state for optimization and/or second-order correction.
 Total Energy, E(TD-HF/TD-DFT) =  -4069.75019502
 Copying the excited state density for this state as the 1-particle RhoCI density.

 Excited State   2:      Singlet-A      1.6800 eV  738.01 nm  f=0.4934  <S**2>=0.000
     309 -> 315        0.17243
     311 -> 314        0.67345
     312 -> 313        0.12897
     309 <- 315        0.10325

 Excited State   3:      Singlet-A      2.1861 eV  567.15 nm  f=0.0985  <S**2>=0.000
     310 -> 313        0.64228
     312 -> 316       -0.27304

 Excited State   4:      Singlet-A      2.1925 eV  565.49 nm  f=0.1021  <S**2>=0.000
     309 -> 314        0.64051
     311 -> 315       -0.27819

 Excited State   5:      Singlet-A      3.0657 eV  404.42 nm  f=0.0000  <S**2>=0.000
     311 -> 313        0.70711

 The electronic state is 1-A.
 Alpha  occ. eigenvalues --  -46.87796 -46.87661 -19.26352 -19.26279 -19.19163
 Alpha  occ. eigenvalues --  -19.19015 -19.18817 -19.18714 -19.18167 -19.18052
 Alpha  occ. eigenvalues --  -14.42498 -14.42449 -14.41449 -14.41359 -14.39402
 Alpha  occ. eigenvalues --  -14.39352 -14.38600 -14.38586 -10.39092 -10.39075
 Alpha  occ. eigenvalues --  -10.35450 -10.35392 -10.34387 -10.34229 -10.31760
 Alpha  occ. eigenvalues --  -10.31672 -10.31404 -10.31309 -10.31024 -10.30908
 Alpha  occ. eigenvalues --  -10.30569 -10.30507 -10.30398 -10.30361 -10.30207
 Alpha  occ. eigenvalues --  -10.30140 -10.29920 -10.29894 -10.29630 -10.29437
 Alpha  occ. eigenvalues --  -10.29401 -10.29254 -10.28747 -10.28721 -10.28658
 Alpha  occ. eigenvalues --  -10.28534 -10.28405 -10.28364 -10.28142 -10.28115
 Alpha  occ. eigenvalues --  -10.28001 -10.27792 -10.27726 -10.27670 -10.27584
 Alpha  occ. eigenvalues --  -10.27516 -10.27501 -10.27484 -10.27483 -10.27468
 Alpha  occ. eigenvalues --  -10.27465 -10.27450 -10.27402 -10.27374 -10.27155
 Alpha  occ. eigenvalues --  -10.27051 -10.26702 -10.26696 -10.26416 -10.26414
 Alpha  occ. eigenvalues --  -10.26232 -10.26184 -10.26135 -10.26026 -10.26019
 Alpha  occ. eigenvalues --  -10.25934 -10.25849 -10.25841 -10.25436 -10.25394
 Alpha  occ. eigenvalues --  -10.24873 -10.24832 -10.24787 -10.24730 -10.24690
 Alpha  occ. eigenvalues --  -10.24688  -3.16539  -3.16411  -1.91420  -1.91293
 Alpha  occ. eigenvalues --   -1.91007  -1.90881  -1.90849  -1.90718  -1.16646
 Alpha  occ. eigenvalues --   -1.16628  -1.08659  -1.08625  -1.07218  -1.06967
 Alpha  occ. eigenvalues --   -1.06947  -1.06638  -1.04580  -1.04496  -1.03760
 Alpha  occ. eigenvalues --   -1.03663  -1.03233  -1.03039  -1.02410  -1.02111
 Alpha  occ. eigenvalues --   -0.91988  -0.91971  -0.89519  -0.89494  -0.89186
 Alpha  occ. eigenvalues --   -0.89153  -0.88287  -0.88219  -0.87869  -0.87793
 Alpha  occ. eigenvalues --   -0.87684  -0.87672  -0.87275  -0.87121  -0.85001
 Alpha  occ. eigenvalues --   -0.84980  -0.83936  -0.83875  -0.82969  -0.82932
 Alpha  occ. eigenvalues --   -0.82654  -0.82647  -0.81598  -0.81583  -0.80595
 Alpha  occ. eigenvalues --   -0.80444  -0.78797  -0.78636  -0.77217  -0.77145
 Alpha  occ. eigenvalues --   -0.76932  -0.76899  -0.75921  -0.75840  -0.74897
 Alpha  occ. eigenvalues --   -0.74802  -0.72773  -0.72699  -0.71671  -0.71581
 Alpha  occ. eigenvalues --   -0.69907  -0.69756  -0.68872  -0.68828  -0.67640
 Alpha  occ. eigenvalues --   -0.67602  -0.67218  -0.67201  -0.65284  -0.65273
 Alpha  occ. eigenvalues --   -0.64852  -0.64771  -0.64655  -0.64619  -0.64269
 Alpha  occ. eigenvalues --   -0.64203  -0.62294  -0.62280  -0.60442  -0.60340
 Alpha  occ. eigenvalues --   -0.59803  -0.59798  -0.58993  -0.58986  -0.58503
 Alpha  occ. eigenvalues --   -0.58426  -0.57582  -0.57555  -0.57308  -0.57236
 Alpha  occ. eigenvalues --   -0.56309  -0.56205  -0.55975  -0.55888  -0.55520
 Alpha  occ. eigenvalues --   -0.55453  -0.55338  -0.55247  -0.54521  -0.54488
 Alpha  occ. eigenvalues --   -0.53914  -0.53893  -0.53298  -0.53228  -0.53221
 Alpha  occ. eigenvalues --   -0.53143  -0.52913  -0.52903  -0.52756  -0.52669
 Alpha  occ. eigenvalues --   -0.52438  -0.52400  -0.51913  -0.51884  -0.51660
 Alpha  occ. eigenvalues --   -0.51615  -0.51202  -0.51194  -0.50574  -0.50476
 Alpha  occ. eigenvalues --   -0.50031  -0.49980  -0.49919  -0.49866  -0.49514
 Alpha  occ. eigenvalues --   -0.49488  -0.49213  -0.49203  -0.49105  -0.49094
 Alpha  occ. eigenvalues --   -0.48591  -0.48559  -0.48461  -0.48445  -0.48375
 Alpha  occ. eigenvalues --   -0.48339  -0.47694  -0.47595  -0.47296  -0.47118
 Alpha  occ. eigenvalues --   -0.46796  -0.46709  -0.46555  -0.46553  -0.46358
 Alpha  occ. eigenvalues --   -0.46271  -0.46161  -0.46085  -0.45823  -0.45819
 Alpha  occ. eigenvalues --   -0.45208  -0.45201  -0.44576  -0.44515  -0.44507
 Alpha  occ. eigenvalues --   -0.44477  -0.44144  -0.44128  -0.44087  -0.44078
 Alpha  occ. eigenvalues --   -0.44018  -0.43940  -0.43554  -0.43492  -0.43386
 Alpha  occ. eigenvalues --   -0.43384  -0.43026  -0.42932  -0.42902  -0.42696
 Alpha  occ. eigenvalues --   -0.42653  -0.42553  -0.42008  -0.41964  -0.41703
 Alpha  occ. eigenvalues --   -0.41670  -0.41532  -0.41460  -0.41140  -0.40990
 Alpha  occ. eigenvalues --   -0.40868  -0.40824  -0.40723  -0.40699  -0.40571
 Alpha  occ. eigenvalues --   -0.40493  -0.40232  -0.40229  -0.39441  -0.39424
 Alpha  occ. eigenvalues --   -0.38468  -0.38350  -0.37746  -0.37656  -0.37320
 Alpha  occ. eigenvalues --   -0.37266  -0.37262  -0.37201  -0.36773  -0.36710
 Alpha  occ. eigenvalues --   -0.36217  -0.36190  -0.34285  -0.34254  -0.33864
 Alpha  occ. eigenvalues --   -0.33767  -0.33185  -0.33176  -0.31346  -0.31273
 Alpha  occ. eigenvalues --   -0.31035  -0.30973  -0.30026  -0.29956  -0.29449
 Alpha  occ. eigenvalues --   -0.29327  -0.29321  -0.29212  -0.24080  -0.24036
 Alpha  occ. eigenvalues --   -0.21127  -0.21117
 Alpha virt. eigenvalues --   -0.08792  -0.08774  -0.01749  -0.01684  -0.00058
 Alpha virt. eigenvalues --   -0.00029   0.02202   0.02207   0.03124   0.03227
 Alpha virt. eigenvalues --    0.04720   0.04729   0.05102   0.05163   0.06180

 Mulliken charges:
               1
     1  Mg   0.838764
     2  C   -0.002948
     3  C   -0.094121
     4  C   -0.045886
     5  C   -0.063967
     6  N   -0.256791
     7  C   -0.052456
     8  C   -0.014021
     9  C   -0.086996
    10  C    0.046332
    11  C    0.104811
    12  C    0.053464
    13  C   -0.071819
    14  H    0.036177
    15  N   -0.433136
    16  C    0.168402
    17  C   -0.177150
    18  C   -0.004031
    19  C    0.148709
    20  C    0.110177
    21  C    0.012265
    22  O   -0.249646
    23  C    0.062483
    24  N   -0.341147
    25  C    0.041233
    26  C   -0.028187
    27  C   -0.023975
    28  C    0.074850
    29  C    0.076181
    30  C    0.035136
    31  C   -0.004501
    32  N   -0.310483
    33  C    0.080431
    34  C   -0.169715
    35  C    0.008378
    36  C    0.082989
    37  C    0.127309
    38  C    0.046127
    39  O   -0.188398
    40  C   -0.005326
    41  C    0.212879
    42  O   -0.257096
    43  O   -0.304797
    44  C    0.157682
    45  H   -0.017605
    46  H   -0.016858
    47  H   -0.041486
    48  H    0.000958
    49  H   -0.004032
    50  H    0.025482
    51  H    0.016438
    52  H    0.016663
    53  H    0.011193
    54  H    0.044133
    55  H    0.017880
    56  H    0.017941
    57  H    0.005882
    58  H    0.026811
    59  H    0.039522
    60  H    0.037348
    61  H    0.035609
    62  H    0.031484
    63  H    0.016535
    64  H    0.009465
    65  H    0.023193
    66  H    0.012546
    67  H    0.004755
    68  H    0.006354
    69  H    0.004741
    70  H    0.008758
    71  H    0.018145
    72  H    0.028989
    73  H    0.047593
    74  H    0.009109
    75  H    0.046018
    76  H    0.035161
    77  H    0.042975
    78  H    0.046403
    79  H    0.053711
    80  Mg   0.837908
    81  C   -0.016826
    82  C   -0.087791
    83  C   -0.045501
    84  C   -0.064835
    85  N   -0.254569
    86  C   -0.049862
    87  C   -0.015107
    88  C   -0.090503
    89  C    0.045754
    90  C    0.114377
    91  C    0.062550
    92  C   -0.077899
    93  H    0.034882
    94  N   -0.423503
    95  C    0.162905
    96  C   -0.174621
    97  C   -0.007803
    98  C    0.152129
    99  C    0.099362
   100  C    0.015584
   101  O   -0.253159
   102  C    0.061186
   103  N   -0.350056
   104  C    0.037520
   105  C   -0.019850
   106  C   -0.034835
   107  C    0.088899
   108  C    0.073636
   109  C    0.034746
   110  C   -0.007687
   111  N   -0.324111
   112  C    0.078446
   113  C   -0.163117
   114  C    0.002246
   115  C    0.096191
   116  C    0.131491
   117  C    0.042396
   118  O   -0.187861
   119  C    0.000923
   120  C    0.211254
   121  O   -0.251024
   122  O   -0.305631
   123  C    0.152038
   124  H   -0.019658
   125  H   -0.015545
   126  H   -0.040413
   127  H   -0.000652
   128  H   -0.004345
   129  H    0.022482
   130  H    0.014456
   131  H    0.016266
   132  H    0.013916
   133  H    0.037676
   134  H    0.020782
   135  H    0.019585
   136  H    0.008753
   137  H    0.026163
   138  H    0.039788
   139  H    0.038262
   140  H    0.036412
   141  H    0.033886
   142  H    0.014403
   143  H    0.012482
   144  H    0.025164
   145  H    0.011660
   146  H    0.005739
   147  H    0.006293
   148  H    0.003672
   149  H    0.010934
   150  H    0.017937
   151  H    0.030080
   152  H    0.046005
   153  H    0.008535
   154  H    0.047001
   155  H    0.035046
   156  H    0.043909
   157  H    0.049478
   158  H    0.053577
 Sum of Mulliken charges =  -0.00000

 Dipole moment (field-independent basis, Debye):
    X=              3.8768    Y=             -2.2740    Z=              7.4066  Tot=              8.6637
 Quadrupole moment (field-independent basis, Debye-Ang):
   XX=           -516.6141   YY=           -539.5218   ZZ=           -459.3514
   XY=             45.1771   XZ=             13.5997   YZ=             37.1390

 Normal termination of Gaussian 16 at Sun Sep 12 18:29:20 2021.
