 Gaussian 16, Revision A.03,
 Gaussian 16:  ES64L-G16RevA.03 25-Dec-2016

 -----------------------------------
 #p cam-b3lyp/Def2SVP td=(nstates=5)
 -----------------------------------

 --------------------------------
 TDDFT excited states in gaussian
 --------------------------------
 Symbolic Z-matrix:
 Charge =  0 Multiplicity = 1

                         Standard orientation:
 ---------------------------------------------------------------------
 Center     Atomic      Atomic             Coordinates (Angstroms)
 Number     Number       Type             X           Y           Z
 ---------------------------------------------------------------------
      1         12           0        4.720686    0.312776    0.843226
      2          6           0        5.074599   -2.729077   -1.009905
      3          6           0        6.062214    1.931621   -1.844284
      4          6           0        4.840374    2.936273    2.620741
      5          6           0        4.487493   -1.640119    3.720288
      6          7           0        5.436433   -0.415624   -1.120899
      7          6           0        5.461741   -1.596846   -1.730197
      8          6           0        5.867008   -1.508802   -3.231990
      9          6           0        6.677561   -0.136375   -3.193946
     10          6           0        5.995523    0.515630   -2.004140
     11          6           0        8.158803   -0.312233   -2.875360
     12          6           0        4.623507   -1.413684   -4.178768
     13          6           0        4.913033   -1.652108   -5.663585
     14          1           0        3.915425   -2.338864   -6.470116
     15          7           0        4.892901    2.209438    0.317999
     16          6           0        5.451424    2.687108   -0.820056
     17          6           0        5.337424    4.159446   -0.743200
     18          6           0        4.838996    4.506872    0.616564
     19          6           0        4.862718    3.216413    1.256509
     20          6           0        5.637156    5.069166   -1.894860
     21          6           0        4.419428    5.798826    1.243422
     22          8           0        4.240909    5.916881    2.503885
     23          6           0        4.307229    6.960212    0.342513
     24          7           0        4.891684    0.628164    2.899661
     25          6           0        4.860474    1.862705    3.413391
     26          6           0        4.713865    1.829516    4.905820
     27          6           0        4.405670    0.309582    5.286042
     28          6           0        4.516140   -0.314242    3.872921
     29          6           0        5.926540    2.320561    5.708506
     30          6           0        3.124802    0.037727    6.114228
     31          6           0        1.900405    0.346442    5.281975
     32          7           0        4.591004   -1.806979    1.291408
     33          6           0        4.524465   -2.397675    2.561575
     34          6           0        4.560455   -3.858035    2.361269
     35          6           0        4.662803   -4.016192    0.980561
     36          6           0        4.715527   -2.735526    0.359750
     37          6           0        4.558679   -4.840639    3.390307
     38          6           0        4.764701   -4.969030   -0.112862
     39          8           0        4.679556   -6.194414   -0.206014
     40          6           0        5.158015   -4.173927   -1.435338
     41          6           0        4.240859   -4.637480   -2.534089
     42          8           0        3.019189   -4.385530   -2.496562
     43          8           0        4.973322   -5.091639   -3.562573
     44          6           0        4.124560   -5.539945   -4.698698
     45          1           0        6.685400    2.511224   -2.528126
     46          1           0        4.769174    3.814946    3.265180
     47          1           0        4.333657   -2.313589    4.565406
     48          1           0        6.515572   -2.314799   -3.575731
     49          1           0        6.516942    0.456204   -4.094375
     50          1           0        8.387482   -1.341523   -2.599338
     51          1           0        8.358588    0.359263   -2.040092
     52          1           0        8.777230    0.043100   -3.700020
     53          1           0        4.281541   -0.379562   -4.220148
     54          1           0        3.836317   -2.093665   -3.851226
     55          1           0        5.896810   -2.098554   -5.811161
     56          1           0        4.978215   -0.683198   -6.158726
     57          1           0        6.139340    4.539509   -2.703451
     58          1           0        6.373422    5.792851   -1.545714
     59          1           0        4.747566    5.590970   -2.247963
     60          1           0        5.270469    7.139058   -0.135748
     61          1           0        3.910531    7.773825    0.948742
     62          1           0        3.607344    6.719600   -0.458246
     63          1           0        3.883280    2.454583    5.231159
     64          1           0        5.205356   -0.133704    5.879907
     65          1           0        5.697673    3.140028    6.390267
     66          1           0        6.705392    2.605700    5.001840
     67          1           0        6.432587    1.549960    6.289460
     68          1           0        3.092104    0.689214    6.986834
     69          1           0        3.049906   -0.991405    6.465695
     70          1           0        1.786796    1.422794    5.406035
     71          1           0        1.031686   -0.185308    5.671563
     72          1           0        2.080579    0.157657    4.223493
     73          1           0        3.868393   -5.619694    3.066969
     74          1           0        4.254336   -4.413197    4.345436
     75          1           0        5.605811   -5.142820    3.382769
     76          1           0        6.200602   -4.410816   -1.645139
     77          1           0        4.398534   -6.572354   -4.916194
     78          1           0        4.254984   -4.803931   -5.492221
     79          1           0        3.059519   -5.649045   -4.491033
     80         12           0       -4.179757    0.672798   -0.446961
     81          6           0       -6.931998   -1.525068    0.241215
     82          6           0       -6.467205    2.946895   -1.556309
     83          6           0       -1.763479    2.450738   -1.480401
     84          6           0       -2.105591   -2.126816   -0.371424
     85          7           0       -6.385989    0.603872   -0.588567
     86          6           0       -7.327843   -0.259611   -0.239786
     87          6           0       -8.775332    0.291853   -0.340835
     88          6           0       -8.518725    1.442453   -1.431326
     89          6           0       -7.040599    1.712910   -1.158073
     90          6           0       -8.658312    0.955612   -2.864093
     91          6           0       -9.282938    0.890895    1.017655
     92          6           0      -10.787301    1.164937    1.077492
     93          1           0      -11.482354    0.959298    2.345191
     94          7           0       -4.112859    2.599161   -0.919439
     95          6           0       -5.140277    3.372936   -1.328047
     96          6           0       -4.568450    4.706826   -1.568696
     97          6           0       -3.089798    4.615800   -1.427188
     98          6           0       -2.926079    3.182688   -1.287619
     99          6           0       -5.414096    5.921733   -1.818306
    100          6           0       -2.001885    5.646633   -1.431273
    101          8           0       -0.766219    5.321115   -1.531259
    102          6           0       -2.430920    7.052664   -1.408881
    103          7           0       -2.253634    0.206209   -1.075217
    104          6           0       -1.386488    1.173290   -1.422685
    105          6           0        0.012169    0.623915   -1.572070
    106          6           0       -0.052622   -0.873583   -1.014491
    107          6           0       -1.563744   -0.964510   -0.708486
    108          6           0        0.574545    0.613599   -2.993343
    109          6           0        0.952797   -1.250799    0.107790
    110          6           0        0.620184   -0.495048    1.374117
    111          7           0       -4.405231   -1.416938    0.053251
    112          6           0       -3.413843   -2.420634   -0.008747
    113          6           0       -4.071703   -3.702992    0.315617
    114          6           0       -5.415499   -3.356963    0.522939
    115          6           0       -5.587190   -1.960827    0.320860
    116          6           0       -3.440998   -4.978820    0.339643
    117          6           0       -6.729851   -3.856963    0.856373
    118          8           0       -7.180323   -4.943947    1.215909
    119          6           0       -7.794511   -2.713280    0.565002
    120          6           0       -8.706480   -2.613048    1.756963
    121          8           0       -8.267823   -2.238263    2.858659
    122          8           0       -9.980290   -2.765164    1.351210
    123          6           0      -10.923464   -2.662611    2.496521
    124          1           0       -7.077897    3.639709   -2.135928
    125          1           0       -0.874601    3.034715   -1.730102
    126          1           0       -1.508542   -3.030436   -0.231179
    127          1           0       -9.506301   -0.416229   -0.712407
    128          1           0       -9.113704    2.327066   -1.219626
    129          1           0       -8.791386   -0.114844   -2.914716
    130          1           0       -7.744089    1.247280   -3.364268
    131          1           0       -9.463860    1.496297   -3.369149
    132          1           0       -8.901162    1.914612    1.122459
    133          1           0       -8.996606    0.265261    1.840594
    134          1           0      -11.328363    0.675234    0.258714
    135          1           0      -10.952717    2.231639    0.907845
    136          1           0       -6.455739    5.650271   -2.029718
    137          1           0       -5.056889    6.374096   -2.749771
    138          1           0       -5.339472    6.658946   -1.016056
    139          1           0       -3.062604    7.251261   -2.271428
    140          1           0       -1.512610    7.637106   -1.325202
    141          1           0       -3.051294    7.215030   -0.520409
    142          1           0        0.716147    1.190917   -0.975391
    143          1           0        0.153138   -1.611508   -1.803769
    144          1           0        1.527607    1.167220   -3.089654
    145          1           0       -0.172787    1.024399   -3.659128
    146          1           0        0.742315   -0.375353   -3.416451
    147          1           0        1.965334   -0.952404   -0.174869
    148          1           0        0.979015   -2.313422    0.324941
    149          1           0        1.102746    0.474249    1.216979
    150          1           0        1.031327   -1.004347    2.243376
    151          1           0       -0.458490   -0.317099    1.454424
    152          1           0       -3.799818   -5.486885    1.224860
    153          1           0       -2.356932   -4.886375    0.345290
    154          1           0       -3.812365   -5.397689   -0.599451
    155          1           0       -8.334167   -2.991222   -0.341139
    156          1           0      -11.522540   -3.578462    2.500044
    157          1           0      -11.463732   -1.707849    2.354045
    158          1           0      -10.503050   -2.681037    3.495198
 ---------------------------------------------------------------------

 SCF Done:  E(RCAM-B3LYP) =  -4069.81488980     A.U. after   19 cycles

 Excitation energies and oscillator strengths:

 Excited State   1:      Singlet-A      1.6401 eV  755.94 nm  f=0.0023  <S**2>=0.000
     309 -> 315       -0.11341
     310 -> 316        0.11877
     311 -> 313       -0.47247
     312 -> 314        0.49989
 This state for optimization and/or second-order correction.
 Total Energy, E(TD-HF/TD-DFT) =  -4069.75461613
 Copying the excited state density for this state as the 1-particle RhoCI density.

 Excited State   2:      Singlet-A      1.7042 eV  727.51 nm  f=0.6854  <S**2>=0.000
     309 -> 315        0.13257
     310 -> 316        0.12353
     311 -> 313        0.49739
     312 -> 314        0.46991

 Excited State   3:      Singlet-A      2.1819 eV  568.24 nm  f=0.1091  <S**2>=0.000
     310 -> 314        0.63993
     312 -> 316       -0.26796

 Excited State   4:      Singlet-A      2.1985 eV  563.95 nm  f=0.0923  <S**2>=0.000
     309 -> 313        0.63572
     311 -> 315       -0.27843

 Excited State   5:      Singlet-A      2.3457 eV  528.56 nm  f=0.0002  <S**2>=0.000
     312 -> 313        0.70482

 The electronic state is 1-A.
 Alpha  occ. eigenvalues --  -46.87905 -46.87408 -19.26512 -19.26187 -19.19330
 Alpha  occ. eigenvalues --  -19.18988 -19.18652 -19.18598 -19.18252 -19.17833
 Alpha  occ. eigenvalues --  -14.42534 -14.42253 -14.41482 -14.41080 -14.39447
 Alpha  occ. eigenvalues --  -14.39113 -14.38672 -14.38340 -10.39348 -10.38912
 Alpha  occ. eigenvalues --  -10.35280 -10.35274 -10.34486 -10.34009 -10.31871
 Alpha  occ. eigenvalues --  -10.31616 -10.31514 -10.31056 -10.30968 -10.30819
 Alpha  occ. eigenvalues --  -10.30652 -10.30550 -10.30185 -10.30134 -10.30092
 Alpha  occ. eigenvalues --  -10.29968 -10.29830 -10.29644 -10.29598 -10.29265
 Alpha  occ. eigenvalues --  -10.29184 -10.29150 -10.28860 -10.28676 -10.28537
 Alpha  occ. eigenvalues --  -10.28518 -10.28417 -10.28207 -10.28183 -10.27948
 Alpha  occ. eigenvalues --  -10.27820 -10.27780 -10.27754 -10.27566 -10.27485
 Alpha  occ. eigenvalues --  -10.27447 -10.27425 -10.27411 -10.27326 -10.27302
 Alpha  occ. eigenvalues --  -10.27289 -10.27243 -10.27236 -10.27053 -10.26970
 Alpha  occ. eigenvalues --  -10.26887 -10.26843 -10.26532 -10.26353 -10.26299
 Alpha  occ. eigenvalues --  -10.26076 -10.26053 -10.26051 -10.25880 -10.25851
 Alpha  occ. eigenvalues --  -10.25631 -10.25572 -10.25430 -10.25396 -10.25090
 Alpha  occ. eigenvalues --  -10.24890 -10.24813 -10.24627 -10.24540 -10.24524
 Alpha  occ. eigenvalues --  -10.24442  -3.16614  -3.16158  -1.91499  -1.91082
 Alpha  occ. eigenvalues --   -1.91041  -1.90923  -1.90629  -1.90466  -1.16866
 Alpha  occ. eigenvalues --   -1.16478  -1.08730  -1.08442  -1.07042  -1.06917
 Alpha  occ. eigenvalues --   -1.06857  -1.06771  -1.04654  -1.04259  -1.03796
 Alpha  occ. eigenvalues --   -1.03408  -1.03278  -1.02766  -1.02457  -1.01850
 Alpha  occ. eigenvalues --   -0.92054  -0.91746  -0.89511  -0.89284  -0.89164
 Alpha  occ. eigenvalues --   -0.88944  -0.88270  -0.87924  -0.87885  -0.87727
 Alpha  occ. eigenvalues --   -0.87499  -0.87422  -0.87181  -0.86931  -0.85048
 Alpha  occ. eigenvalues --   -0.84790  -0.83916  -0.83579  -0.82855  -0.82761
 Alpha  occ. eigenvalues --   -0.82622  -0.82451  -0.81687  -0.81374  -0.80636
 Alpha  occ. eigenvalues --   -0.80222  -0.78763  -0.78404  -0.77237  -0.77004
 Alpha  occ. eigenvalues --   -0.76908  -0.76660  -0.75994  -0.75622  -0.74898
 Alpha  occ. eigenvalues --   -0.74526  -0.72806  -0.72422  -0.71718  -0.71330
 Alpha  occ. eigenvalues --   -0.69858  -0.69391  -0.68915  -0.68616  -0.67672
 Alpha  occ. eigenvalues --   -0.67364  -0.67245  -0.67026  -0.65377  -0.65062
 Alpha  occ. eigenvalues --   -0.64925  -0.64669  -0.64506  -0.64415  -0.64263
 Alpha  occ. eigenvalues --   -0.63881  -0.62418  -0.62042  -0.60388  -0.60115
 Alpha  occ. eigenvalues --   -0.59885  -0.59580  -0.59035  -0.58728  -0.58550
 Alpha  occ. eigenvalues --   -0.58170  -0.57718  -0.57332  -0.57309  -0.56967
 Alpha  occ. eigenvalues --   -0.56347  -0.56102  -0.55948  -0.55686  -0.55483
 Alpha  occ. eigenvalues --   -0.55383  -0.55261  -0.54966  -0.54594  -0.54217
 Alpha  occ. eigenvalues --   -0.53990  -0.53715  -0.53322  -0.53202  -0.53015
 Alpha  occ. eigenvalues --   -0.52995  -0.52910  -0.52685  -0.52643  -0.52517
 Alpha  occ. eigenvalues --   -0.52371  -0.52148  -0.51962  -0.51644  -0.51561
 Alpha  occ. eigenvalues --   -0.51472  -0.51249  -0.50966  -0.50394  -0.50312
 Alpha  occ. eigenvalues --   -0.49985  -0.49894  -0.49780  -0.49596  -0.49501
 Alpha  occ. eigenvalues --   -0.49310  -0.49234  -0.49150  -0.48997  -0.48878
 Alpha  occ. eigenvalues --   -0.48669  -0.48478  -0.48354  -0.48344  -0.48186
 Alpha  occ. eigenvalues --   -0.48088  -0.47694  -0.47364  -0.47285  -0.46883
 Alpha  occ. eigenvalues --   -0.46831  -0.46634  -0.46436  -0.46398  -0.46330
 Alpha  occ. eigenvalues --   -0.46204  -0.45997  -0.45913  -0.45796  -0.45558
 Alpha  occ. eigenvalues --   -0.45187  -0.44966  -0.44657  -0.44479  -0.44327
 Alpha  occ. eigenvalues --   -0.44215  -0.44171  -0.44096  -0.43971  -0.43933
 Alpha  occ. eigenvalues --   -0.43831  -0.43748  -0.43576  -0.43436  -0.43324
 Alpha  occ. eigenvalues --   -0.43158  -0.43055  -0.42865  -0.42736  -0.42654
 Alpha  occ. eigenvalues --   -0.42613  -0.42287  -0.42028  -0.41759  -0.41732
 Alpha  occ. eigenvalues --   -0.41561  -0.41432  -0.41247  -0.41179  -0.40900
 Alpha  occ. eigenvalues --   -0.40781  -0.40701  -0.40585  -0.40551  -0.40471
 Alpha  occ. eigenvalues --   -0.40297  -0.40124  -0.40067  -0.39388  -0.39056
 Alpha  occ. eigenvalues --   -0.38468  -0.38037  -0.37847  -0.37457  -0.37346
 Alpha  occ. eigenvalues --   -0.37322  -0.36992  -0.36941  -0.36887  -0.36561
 Alpha  occ. eigenvalues --   -0.36266  -0.35919  -0.34345  -0.34025  -0.33992
 Alpha  occ. eigenvalues --   -0.33674  -0.33243  -0.32914  -0.31219  -0.31158
 Alpha  occ. eigenvalues --   -0.31053  -0.30724  -0.30123  -0.29734  -0.29456
 Alpha  occ. eigenvalues --   -0.29347  -0.29109  -0.28959  -0.24148  -0.23774
 Alpha  occ. eigenvalues --   -0.21165  -0.20858
 Alpha virt. eigenvalues --   -0.08793  -0.08549  -0.01786  -0.01447  -0.00015
 Alpha virt. eigenvalues --    0.00154   0.02144   0.02413   0.02931   0.03626
 Alpha virt. eigenvalues --    0.04627   0.04818   0.04955   0.05351   0.05954

 Mulliken charges:
               1
     1  Mg   0.805317
     2  C   -0.004642
     3  C   -0.092419
     4  C   -0.043323
     5  C   -0.064035
     6  N   -0.255033
     7  C   -0.056167
     8  C   -0.012366
     9  C   -0.087422
    10  C    0.046100
    11  C    0.104703
    12  C    0.049118
    13  C   -0.071700
    14  H    0.035721
    15  N   -0.432675
    16  C    0.168893
    17  C   -0.174186
    18  C   -0.000748
    19  C    0.148726
    20  C    0.109433
    21  C    0.016991
    22  O   -0.249540
    23  C    0.058951
    24  N   -0.337214
    25  C    0.041792
    26  C   -0.028665
    27  C   -0.023983
    28  C    0.074153
    29  C    0.076318
    30  C    0.034931
    31  C   -0.007039
    32  N   -0.308759
    33  C    0.077788
    34  C   -0.172584
    35  C    0.007288
    36  C    0.076992
    37  C    0.127571
    38  C    0.043786
    39  O   -0.188807
    40  C   -0.005222
    41  C    0.214358
    42  O   -0.261888
    43  O   -0.303764
    44  C    0.157382
    45  H   -0.017355
    46  H   -0.016530
    47  H   -0.042548
    48  H    0.000875
    49  H   -0.003486
    50  H    0.025714
    51  H    0.017136
    52  H    0.017086
    53  H    0.012903
    54  H    0.042582
    55  H    0.018470
    56  H    0.018815
    57  H    0.005097
    58  H    0.026603
    59  H    0.045535
    60  H    0.035208
    61  H    0.035153
    62  H    0.041739
    63  H    0.017661
    64  H    0.009307
    65  H    0.023598
    66  H    0.012512
    67  H    0.004893
    68  H    0.006579
    69  H    0.004475
    70  H    0.008385
    71  H    0.019131
    72  H    0.030988
    73  H    0.046440
    74  H    0.009655
    75  H    0.046276
    76  H    0.035898
    77  H    0.043994
    78  H    0.046969
    79  H    0.052826
    80  Mg   0.837376
    81  C   -0.017573
    82  C   -0.088426
    83  C   -0.045205
    84  C   -0.065348
    85  N   -0.254654
    86  C   -0.049679
    87  C   -0.015124
    88  C   -0.090389
    89  C    0.045516
    90  C    0.114599
    91  C    0.062622
    92  C   -0.077574
    93  H    0.034335
    94  N   -0.423204
    95  C    0.162484
    96  C   -0.175416
    97  C   -0.008932
    98  C    0.152137
    99  C    0.099622
   100  C    0.015772
   101  O   -0.256629
   102  C    0.061709
   103  N   -0.349855
   104  C    0.036145
   105  C   -0.023706
   106  C   -0.038434
   107  C    0.087036
   108  C    0.070464
   109  C    0.019919
   110  C   -0.026298
   111  N   -0.324211
   112  C    0.078402
   113  C   -0.162048
   114  C    0.001899
   115  C    0.096604
   116  C    0.130807
   117  C    0.042540
   118  O   -0.187970
   119  C    0.000935
   120  C    0.211195
   121  O   -0.251286
   122  O   -0.305648
   123  C    0.152183
   124  H   -0.020700
   125  H   -0.017270
   126  H   -0.031532
   127  H   -0.000974
   128  H   -0.004892
   129  H    0.022263
   130  H    0.014281
   131  H    0.015530
   132  H    0.013890
   133  H    0.037575
   134  H    0.020596
   135  H    0.019318
   136  H    0.008380
   137  H    0.024789
   138  H    0.039084
   139  H    0.037775
   140  H    0.033659
   141  H    0.034842
   142  H    0.013950
   143  H    0.026996
   144  H    0.025253
   145  H    0.008631
   146  H    0.011992
   147  H    0.027906
   148  H    0.018572
   149  H    0.012955
   150  H    0.038720
   151  H    0.027362
   152  H    0.045217
   153  H    0.014197
   154  H    0.047326
   155  H    0.034660
   156  H    0.043643
   157  H    0.049251
   158  H    0.053351
 Sum of Mulliken charges =  -0.00000

 Dipole moment (field-independent basis, Debye):
    X=              1.1202    Y=              6.4831    Z=             -4.6527  Tot=              8.0581
 Quadrupole moment (field-independent basis, Debye-Ang):
   XX=           -453.9857   YY=           -541.8192   ZZ=           -481.3002
   XY=            -29.6230   XZ=              0.8148   YZ=             -8.7884

 Normal termination of Gaussian 16 at Thu Sep  9 13:03:06 2021.
