 Gaussian 16, Revision A.03,
 Gaussian 16:  ES64L-G16RevA.03 25-Dec-2016

 -----------------------------------
 #p cam-b3lyp/Def2SVP td=(nstates=5)
 -----------------------------------

 --------------------------------
 TDDFT excited states in gaussian
 --------------------------------
 Symbolic Z-matrix:
 Charge =  0 Multiplicity = 1

                         Standard orientation:
 ---------------------------------------------------------------------
 Center     Atomic      Atomic             Coordinates (Angstroms)
 Number     Number       Type             X           Y           Z
 ---------------------------------------------------------------------
      1         12           0       -4.244902   -0.105895   -0.069407
      2          6           0       -3.815158   -3.404573    1.252054
      3          6           0       -5.146172    0.874329    3.072239
      4          6           0       -5.066360    2.699842   -1.298093
      5          6           0       -4.418288   -1.555717   -3.233837
      6          7           0       -4.418264   -1.216322    1.837827
      7          6           0       -4.167115   -2.463782    2.222458
      8          6           0       -4.239494   -2.660724    3.766268
      9          6           0       -5.197029   -1.439280    4.131234
     10          6           0       -4.876737   -0.522349    2.963941
     11          6           0       -6.680049   -1.792922    4.085489
     12          6           0       -2.838705   -2.514860    4.450551
     13          6           0       -2.763648   -3.010429    5.897663
     14          1           0       -1.538071   -3.645862    6.357591
     15          7           0       -4.523329    1.643589    0.805027
     16          6           0       -4.870817    1.857071    2.096910
     17          6           0       -4.953814    3.324504    2.259497
     18          6           0       -4.812175    3.940457    0.910929
     19          6           0       -4.821328    2.769870    0.071273
     20          6           0       -5.099550    3.998064    3.589469
     21          6           0       -4.698778    5.359525    0.451017
     22          8           0       -4.817501    5.687426   -0.779007
     23          6           0       -4.531072    6.379349    1.502148
     24          7           0       -4.900813    0.477706   -1.963299
     25          6           0       -5.131606    1.764144   -2.247544
     26          6           0       -5.314145    1.973394   -3.721598
     27          6           0       -4.917313    0.591696   -4.416716
     28          6           0       -4.638505   -0.242275   -3.141950
     29          6           0       -6.723627    2.383853   -4.169811
     30          6           0       -3.826997    0.645295   -5.516152
     31          6           0       -2.495504    1.013718   -4.900937
     32          7           0       -3.963960   -2.091225   -0.900420
     33          6           0       -4.108290   -2.471671   -2.242472
     34          6           0       -3.924039   -3.933481   -2.299299
     35          6           0       -3.700307   -4.306460   -0.975412
     36          6           0       -3.768198   -3.154430   -0.140840
     37          6           0       -4.031031   -4.742231   -3.465022
     38          6           0       -3.444129   -5.413651   -0.068573
     39          8           0       -3.194351   -6.611456   -0.211285
     40          6           0       -3.629134   -4.891592    1.424429
     41          6           0       -2.443881   -5.364248    2.221347
     42          8           0       -1.299642   -4.924047    1.988311
     43          8           0       -2.872201   -6.071977    3.277853
     44          6           0       -1.746762   -6.545776    4.127002
     45          1           0       -5.668437    1.244096    3.956802
     46          1           0       -5.244557    3.663933   -1.778939
     47          1           0       -4.374642   -2.065954   -4.197790
     48          1           0       -4.695125   -3.598767    4.083915
     49          1           0       -4.914386   -0.967671    5.072202
     50          1           0       -6.838826   -2.793375    3.683239
     51          1           0       -7.137754   -1.045064    3.437641
     52          1           0       -7.139838   -1.662216    5.065431
     53          1           0       -2.622472   -1.457765    4.605002
     54          1           0       -2.067227   -3.009690    3.859543
     55          1           0       -3.630055   -3.620106    6.155616
     56          1           0       -2.833895   -2.146481    6.558615
     57          1           0       -5.344285    3.284381    4.375158
     58          1           0       -5.975889    4.642775    3.525536
     59          1           0       -4.223167    4.593348    3.846222
     60          1           0       -5.379757    6.335252    2.185038
     61          1           0       -4.377950    7.324494    0.982432
     62          1           0       -3.648454    6.134728    2.093838
     63          1           0       -4.656568    2.760045   -4.089291
     64          1           0       -5.769055    0.122341   -4.909580
     65          1           0       -6.750306    3.319905   -4.728203
     66          1           0       -7.356278    2.438540   -3.284344
     67          1           0       -7.249033    1.638110   -4.765825
     68          1           0       -4.065456    1.414960   -6.249432
     69          1           0       -3.708509   -0.297082   -6.051070
     70          1           0       -2.541813    2.101118   -4.853513
     71          1           0       -1.676517    0.685406   -5.541782
     72          1           0       -2.414359    0.646100   -3.877825
     73          1           0       -3.198249   -5.444349   -3.426647
     74          1           0       -3.997825   -4.137440   -4.370963
     75          1           0       -5.006881   -5.200175   -3.304210
     76          1           0       -4.563895   -5.314729    1.790897
     77          1           0       -1.840404   -7.628702    4.209083
     78          1           0       -1.786594   -5.963245    5.047586
     79          1           0       -0.748331   -6.457540    3.697248
     80         12           0        3.576045    1.248744   -0.462060
     81          6           0        6.209205   -1.185665   -0.323320
     82          6           0        5.124025    2.850935    2.120829
     83          6           0        1.046715    3.153588   -0.258422
     84          6           0        1.682311   -1.102789   -2.202688
     85          7           0        5.422804    0.794148    0.667134
     86          6           0        6.374506   -0.123843    0.590276
     87          6           0        7.609078    0.152756    1.489657
     88          6           0        6.902321    1.088023    2.587217
     89          6           0        5.762731    1.644956    1.736432
     90          6           0        6.298305    0.308253    3.743272
     91          6           0        8.744747    0.920543    0.726256
     92          6           0       10.095259    0.952021    1.445192
     93          1           0       11.313120    0.893682    0.641520
     94          7           0        3.372782    3.026215    0.396915
     95          6           0        4.100916    3.524529    1.418090
     96          6           0        3.545451    4.858303    1.694988
     97          6           0        2.324422    5.039726    0.863796
     98          6           0        2.185848    3.709780    0.305117
     99          6           0        4.213428    5.844252    2.608846
    100          6           0        1.422451    6.212183    0.622956
    101          8           0        0.283652    6.079132    0.050016
    102          6           0        1.870138    7.505113    1.160902
    103          7           0        1.570821    0.986259   -0.944239
    104          6           0        0.689436    1.992426   -0.807398
    105          6           0       -0.625519    1.659783   -1.471186
    106          6           0       -0.362949    0.314013   -2.294330
    107          6           0        1.097864    0.041042   -1.873700
    108          6           0       -1.813098    1.457137   -0.530452
    109          6           0       -0.703641    0.338016   -3.809588
    110          6           0        0.241596    1.267306   -4.536455
    111          7           0        3.923520   -0.706878   -1.312266
    112          6           0        2.985303   -1.527357   -1.976083
    113          6           0        3.659033   -2.808624   -2.270827
    114          6           0        4.945533   -2.651906   -1.733364
    115          6           0        5.058671   -1.371494   -1.127372
    116          6           0        3.064554   -3.933602   -2.908892
    117          6           0        6.230159   -3.282526   -1.531510
    118          8           0        6.749557   -4.334195   -1.902951
    119          6           0        7.064947   -2.409449   -0.498431
    120          6           0        8.448126   -2.222797   -1.059216
    121          8           0        8.624343   -1.568783   -2.102199
    122          8           0        9.350244   -2.658603   -0.161093
    123          6           0       10.737761   -2.484133   -0.667212
    124          1           0        5.401995    3.304752    3.072496
    125          1           0        0.177146    3.812727   -0.311956
    126          1           0        1.190972   -1.850397   -2.829053
    127          1           0        8.030632   -0.724858    1.964916
    128          1           0        7.563809    1.888022    2.909374
    129          1           0        6.340922   -0.757760    3.576114
    130          1           0        5.270510    0.639006    3.816053
    131          1           0        6.775535    0.598249    4.683737
    132          1           0        8.510246    1.992789    0.719875
    133          1           0        8.871457    0.527430   -0.263719
    134          1           0       10.141863    0.226893    2.266754
    135          1           0       10.204012    1.921686    1.937068
    136          1           0        5.003587    5.369879    3.203840
    137          1           0        3.465717    6.153164    3.347337
    138          1           0        4.575666    6.729173    2.081245
    139          1           0        2.005151    7.421430    2.236643
    140          1           0        1.138670    8.236210    0.811139
    141          1           0        2.853426    7.738600    0.737532
    142          1           0       -0.919429    2.441726   -2.160602
    143          1           0       -0.962779   -0.523288   -1.908372
    144          1           0       -2.664553    2.128100   -0.751598
    145          1           0       -1.471282    1.598981    0.486206
    146          1           0       -2.211420    0.444378   -0.501082
    147          1           0       -1.709859    0.734827   -3.965275
    148          1           0       -0.667778   -0.640878   -4.275923
    149          1           0       -0.211642    2.251002   -4.381474
    150          1           0        0.287729    1.016203   -5.594215
    151          1           0        1.227489    1.279446   -4.057383
    152          1           0        3.788439   -4.305849   -3.621575
    153          1           0        2.128372   -3.666427   -3.394642
    154          1           0        2.907641   -4.586713   -2.046281
    155          1           0        7.076994   -2.947250    0.450367
    156          1           0       11.219366   -3.465919   -0.624158
    157          1           0       11.180916   -1.678302   -0.052396
    158          1           0       10.861531   -2.233592   -1.714279
 ---------------------------------------------------------------------

 SCF Done:  E(RCAM-B3LYP) =  -4069.56677134     A.U. after   19 cycles

 Excitation energies and oscillator strengths:

 Excited State   1:      Singlet-A      1.6263 eV  762.39 nm  f=0.0037  <S**2>=0.000
     309 -> 315        0.10729
     310 -> 316       -0.11970
     311 -> 313        0.45794
     312 -> 314        0.51402
 This state for optimization and/or second-order correction.
 Total Energy, E(TD-HF/TD-DFT) =  -4069.50700746
 Copying the excited state density for this state as the 1-particle RhoCI density.

 Excited State   2:      Singlet-A      1.7116 eV  724.39 nm  f=0.6602  <S**2>=0.000
     309 -> 315        0.13710
     310 -> 316        0.12060
     311 -> 313        0.51021
     312 -> 314       -0.45482

 Excited State   3:      Singlet-A      2.0986 eV  590.80 nm  f=0.0062  <S**2>=0.000
     309 -> 313        0.14873
     312 -> 313        0.68587

 Excited State   4:      Singlet-A      2.1736 eV  570.41 nm  f=0.0712  <S**2>=0.000
     309 -> 313        0.39776
     310 -> 314        0.49877
     311 -> 315       -0.16619
     312 -> 313       -0.10626
     312 -> 316        0.20302

 Excited State   5:      Singlet-A      2.1865 eV  567.06 nm  f=0.1218  <S**2>=0.000
     309 -> 313        0.47929
     310 -> 314       -0.40567
     311 -> 315       -0.21296
     312 -> 313       -0.12430
     312 -> 316       -0.17689

 The electronic state is 1-A.
 Alpha  occ. eigenvalues --  -46.87660 -46.87141 -19.26332 -19.26042 -19.19079
 Alpha  occ. eigenvalues --  -19.18834 -19.18720 -19.18341 -19.18267 -19.17672
 Alpha  occ. eigenvalues --  -14.42582 -14.42009 -14.41654 -14.40784 -14.39270
 Alpha  occ. eigenvalues --  -14.38856 -14.38705 -14.38092 -10.39143 -10.38751
 Alpha  occ. eigenvalues --  -10.35342 -10.35034 -10.34491 -10.33838 -10.31703
 Alpha  occ. eigenvalues --  -10.31632 -10.31491 -10.31018 -10.30788 -10.30771
 Alpha  occ. eigenvalues --  -10.30667 -10.30650 -10.30546 -10.30287 -10.29831
 Alpha  occ. eigenvalues --  -10.29807 -10.29760 -10.29409 -10.29393 -10.29363
 Alpha  occ. eigenvalues --  -10.29026 -10.28851 -10.28813 -10.28602 -10.28480
 Alpha  occ. eigenvalues --  -10.28395 -10.28364 -10.28247 -10.28105 -10.28012
 Alpha  occ. eigenvalues --  -10.27988 -10.27935 -10.27892 -10.27750 -10.27738
 Alpha  occ. eigenvalues --  -10.27602 -10.27538 -10.27518 -10.27254 -10.27233
 Alpha  occ. eigenvalues --  -10.27173 -10.27103 -10.27016 -10.26940 -10.26776
 Alpha  occ. eigenvalues --  -10.26722 -10.26656 -10.26538 -10.26425 -10.26397
 Alpha  occ. eigenvalues --  -10.26385 -10.26359 -10.26315 -10.26178 -10.26086
 Alpha  occ. eigenvalues --  -10.26034 -10.25795 -10.25667 -10.25247 -10.25228
 Alpha  occ. eigenvalues --  -10.25092 -10.24959 -10.24462 -10.24243 -10.24083
 Alpha  occ. eigenvalues --  -10.20064  -3.16419  -3.15891  -1.91307  -1.90892
 Alpha  occ. eigenvalues --   -1.90774  -1.90732  -1.90361  -1.90200  -1.16683
 Alpha  occ. eigenvalues --   -1.16330  -1.08724  -1.08275  -1.07099  -1.06700
 Alpha  occ. eigenvalues --   -1.06619  -1.06612  -1.04736  -1.04022  -1.04012
 Alpha  occ. eigenvalues --   -1.03399  -1.03141  -1.02599  -1.02511  -1.01622
 Alpha  occ. eigenvalues --   -0.94561  -0.92118  -0.91532  -0.89502  -0.89294
 Alpha  occ. eigenvalues --   -0.88806  -0.88596  -0.88247  -0.88035  -0.87871
 Alpha  occ. eigenvalues --   -0.87338  -0.87300  -0.87219  -0.86758  -0.86479
 Alpha  occ. eigenvalues --   -0.85114  -0.84570  -0.83677  -0.82978  -0.82680
 Alpha  occ. eigenvalues --   -0.82596  -0.82312  -0.81728  -0.81257  -0.80744
 Alpha  occ. eigenvalues --   -0.80093  -0.79226  -0.78709  -0.78143  -0.77201
 Alpha  occ. eigenvalues --   -0.76716  -0.76618  -0.76274  -0.75820  -0.75423
 Alpha  occ. eigenvalues --   -0.74919  -0.74217  -0.72757  -0.72192  -0.71884
 Alpha  occ. eigenvalues --   -0.71343  -0.69147  -0.68973  -0.68360  -0.67795
 Alpha  occ. eigenvalues --   -0.67352  -0.67194  -0.66885  -0.66666  -0.65314
 Alpha  occ. eigenvalues --   -0.64974  -0.64834  -0.64672  -0.64277  -0.64110
 Alpha  occ. eigenvalues --   -0.63070  -0.62430  -0.61801  -0.60694  -0.59986
 Alpha  occ. eigenvalues --   -0.59957  -0.59394  -0.59279  -0.58935  -0.58596
 Alpha  occ. eigenvalues --   -0.58378  -0.58072  -0.57654  -0.57320  -0.57183
 Alpha  occ. eigenvalues --   -0.57152  -0.56474  -0.56189  -0.56059  -0.55680
 Alpha  occ. eigenvalues --   -0.55555  -0.55472  -0.55110  -0.55045  -0.54669
 Alpha  occ. eigenvalues --   -0.54235  -0.53951  -0.53651  -0.53527  -0.53275
 Alpha  occ. eigenvalues --   -0.53191  -0.52839  -0.52793  -0.52756  -0.52601
 Alpha  occ. eigenvalues --   -0.52434  -0.52315  -0.52082  -0.51675  -0.51402
 Alpha  occ. eigenvalues --   -0.51382  -0.51270  -0.50991  -0.50774  -0.50472
 Alpha  occ. eigenvalues --   -0.50100  -0.50039  -0.49849  -0.49584  -0.49572
 Alpha  occ. eigenvalues --   -0.49370  -0.49301  -0.49141  -0.49116  -0.48823
 Alpha  occ. eigenvalues --   -0.48802  -0.48659  -0.48632  -0.48363  -0.48148
 Alpha  occ. eigenvalues --   -0.47989  -0.47739  -0.47517  -0.47468  -0.47157
 Alpha  occ. eigenvalues --   -0.46915  -0.46723  -0.46637  -0.46528  -0.46388
 Alpha  occ. eigenvalues --   -0.46216  -0.46124  -0.45973  -0.45835  -0.45736
 Alpha  occ. eigenvalues --   -0.45462  -0.45340  -0.45061  -0.44676  -0.44466
 Alpha  occ. eigenvalues --   -0.44221  -0.44190  -0.44151  -0.44042  -0.43985
 Alpha  occ. eigenvalues --   -0.43742  -0.43683  -0.43562  -0.43546  -0.43444
 Alpha  occ. eigenvalues --   -0.43176  -0.43128  -0.42922  -0.42778  -0.42581
 Alpha  occ. eigenvalues --   -0.42556  -0.42448  -0.41986  -0.41940  -0.41747
 Alpha  occ. eigenvalues --   -0.41495  -0.41378  -0.41266  -0.41054  -0.40849
 Alpha  occ. eigenvalues --   -0.40811  -0.40651  -0.40594  -0.40388  -0.40340
 Alpha  occ. eigenvalues --   -0.40238  -0.40010  -0.39871  -0.38905  -0.38736
 Alpha  occ. eigenvalues --   -0.38174  -0.37789  -0.37601  -0.37455  -0.37330
 Alpha  occ. eigenvalues --   -0.37212  -0.36907  -0.36759  -0.36451  -0.36353
 Alpha  occ. eigenvalues --   -0.35778  -0.34410  -0.33930  -0.33842  -0.33508
 Alpha  occ. eigenvalues --   -0.33396  -0.32673  -0.31383  -0.31178  -0.30904
 Alpha  occ. eigenvalues --   -0.30493  -0.30127  -0.29565  -0.29507  -0.29388
 Alpha  occ. eigenvalues --   -0.28859  -0.28744  -0.26260  -0.24257  -0.23516
 Alpha  occ. eigenvalues --   -0.21357  -0.20584
 Alpha virt. eigenvalues --   -0.08956  -0.08301  -0.02072  -0.01214  -0.00092
 Alpha virt. eigenvalues --    0.00375   0.01956   0.02715   0.03638   0.04431
 Alpha virt. eigenvalues --    0.04981   0.05122   0.05291   0.05513   0.06443

 Mulliken charges:
               1
     1  Mg   0.649683
     2  C    0.003073
     3  C   -0.092151
     4  C   -0.042735
     5  C   -0.068551
     6  N   -0.248492
     7  C   -0.051735
     8  C   -0.013951
     9  C   -0.086179
    10  C    0.050772
    11  C    0.104857
    12  C    0.052995
    13  C   -0.071943
    14  H    0.036539
    15  N   -0.423643
    16  C    0.173665
    17  C   -0.176187
    18  C   -0.003727
    19  C    0.134657
    20  C    0.110607
    21  C    0.021414
    22  O   -0.248051
    23  C    0.061295
    24  N   -0.320811
    25  C    0.034416
    26  C   -0.026807
    27  C   -0.030264
    28  C    0.063144
    29  C    0.078393
    30  C    0.159638
    31  C    0.017752
    32  N   -0.303884
    33  C    0.076054
    34  C   -0.171760
    35  C    0.007949
    36  C    0.080314
    37  C    0.127856
    38  C    0.046654
    39  O   -0.187640
    40  C   -0.008471
    41  C    0.212854
    42  O   -0.256463
    43  O   -0.304903
    44  C    0.157402
    45  H   -0.017645
    46  H   -0.016547
    47  H   -0.044408
    48  H    0.001014
    49  H   -0.003928
    50  H    0.025908
    51  H    0.016727
    52  H    0.017091
    53  H    0.012089
    54  H    0.045138
    55  H    0.017916
    56  H    0.017850
    57  H    0.005467
    58  H    0.027348
    59  H    0.041978
    60  H    0.033950
    61  H    0.038625
    62  H    0.037476
    63  H    0.013321
    64  H    0.011573
    65  H    0.024454
    66  H    0.014894
    67  H    0.005768
    68  H   -0.011614
    69  H   -0.000269
    70  H    0.036165
    71  H    0.054322
    72  H    0.174780
    73  H    0.047372
    74  H    0.007371
    75  H    0.046737
    76  H    0.035596
    77  H    0.043374
    78  H    0.046292
    79  H    0.054361
    80  Mg   0.837321
    81  C   -0.018378
    82  C   -0.088762
    83  C   -0.049739
    84  C   -0.065697
    85  N   -0.254700
    86  C   -0.048755
    87  C   -0.015285
    88  C   -0.090264
    89  C    0.045046
    90  C    0.114895
    91  C    0.062673
    92  C   -0.077226
    93  H    0.033761
    94  N   -0.422243
    95  C    0.161296
    96  C   -0.177272
    97  C   -0.010023
    98  C    0.149694
    99  C    0.100480
   100  C    0.012615
   101  O   -0.255021
   102  C    0.061509
   103  N   -0.349932
   104  C    0.043455
   105  C    0.003558
   106  C   -0.035989
   107  C    0.104546
   108  C    0.063466
   109  C   -0.034951
   110  C    0.012521
   111  N   -0.325123
   112  C    0.080539
   113  C   -0.159830
   114  C    0.002063
   115  C    0.098109
   116  C    0.132320
   117  C    0.043040
   118  O   -0.187825
   119  C    0.000915
   120  C    0.210994
   121  O   -0.251544
   122  O   -0.305581
   123  C    0.152332
   124  H   -0.022036
   125  H   -0.017510
   126  H   -0.037137
   127  H   -0.001214
   128  H   -0.005628
   129  H    0.022385
   130  H    0.014151
   131  H    0.014353
   132  H    0.013909
   133  H    0.037451
   134  H    0.020404
   135  H    0.019037
   136  H    0.007493
   137  H    0.022577
   138  H    0.037972
   139  H    0.036060
   140  H    0.034707
   141  H    0.034162
   142  H    0.010967
   143  H    0.023888
   144  H    0.091835
   145  H    0.041005
   146  H    0.015811
   147  H   -0.190437
   148  H   -0.024143
   149  H   -0.006883
   150  H    0.011213
   151  H    0.021431
   152  H    0.043863
   153  H    0.009092
   154  H    0.053612
   155  H    0.034910
   156  H    0.043352
   157  H    0.049040
   158  H    0.053121
 Sum of Mulliken charges =  -0.00000

 Dipole moment (field-independent basis, Debye):
    X=             -3.2386    Y=              4.9034    Z=              6.4116  Tot=              8.6972
 Quadrupole moment (field-independent basis, Debye-Ang):
   XX=           -483.6761   YY=           -551.0952   ZZ=           -458.9349
   XY=             28.1776   XZ=             24.8850   YZ=              6.5297

 Normal termination of Gaussian 16 at Thu Sep  9 09:46:18 2021.
