 Gaussian 16, Revision A.03,
 Gaussian 16:  ES64L-G16RevA.03 25-Dec-2016

 -----------------------------------
 #p cam-b3lyp/Def2SVP td=(nstates=5)
 -----------------------------------

 --------------------------------
 TDDFT excited states in gaussian
 --------------------------------
 Symbolic Z-matrix:
 Charge =  0 Multiplicity = 1

                         Standard orientation:
 ---------------------------------------------------------------------
 Center     Atomic      Atomic             Coordinates (Angstroms)
 Number     Number       Type             X           Y           Z
 ---------------------------------------------------------------------
      1         12           0       -6.534916   -0.675824    0.322134
      2          6           0       -6.712104    2.855027   -0.238141
      3          6           0       -7.539122   -1.089178   -2.912642
      4          6           0       -6.824738   -3.776175    0.922507
      5          6           0       -6.657564    0.008961    3.737055
      6          7           0       -7.029835    0.776195   -1.273906
      7          6           0       -6.999911    2.101120   -1.378069
      8          6           0       -7.229202    2.611874   -2.832004
      9          6           0       -8.021525    1.358176   -3.417209
     10          6           0       -7.472278    0.276061   -2.504369
     11          6           0       -9.531610    1.446254   -3.221278
     12          6           0       -5.884266    2.848106   -3.598210
     13          6           0       -6.004622    3.649590   -4.897630
     14          1           0       -4.929805    4.560910   -5.260414
     15          7           0       -6.622022   -2.216914   -0.910872
     16          6           0       -7.040369   -2.200589   -2.199284
     17          6           0       -6.917507   -3.591746   -2.685358
     18          6           0       -6.573942   -4.452431   -1.519478
     19          6           0       -6.687027   -3.508152   -0.437385
     20          6           0       -7.071820   -3.977119   -4.124603
     21          6           0       -6.212863   -5.899188   -1.398449
     22          8           0       -6.178560   -6.499579   -0.270207
     23          6           0       -5.983590   -6.626793   -2.659824
     24          7           0       -6.936580   -1.753403    2.064295
     25          6           0       -6.949017   -3.090870    2.060996
     26          6           0       -6.974898   -3.640109    3.456563
     27          6           0       -6.731379   -2.395037    4.426226
     28          6           0       -6.686918   -1.271641    3.361203
     29          6           0       -8.265356   -4.362399    3.867692
     30          6           0       -5.557406   -2.505500    5.431216
     31          6           0       -4.241901   -2.509749    4.685208
     32          7           0       -6.484019    1.102086    1.566116
     33          6           0       -6.570936    1.155250    2.964791
     34          6           0       -6.602005    2.580364    3.341824
     35          6           0       -6.547362    3.261565    2.127401
     36          6           0       -6.512529    2.321455    1.058162
     37          6           0       -6.730515    3.089983    4.664022
     38          6           0       -6.535156    4.564920    1.483217
     39          8           0       -6.455243    5.728073    1.880939
     40          6           0       -6.764279    4.354137   -0.078481
     41          6           0       -5.733083    5.174852   -0.803995
     42          8           0       -4.520711    4.887917   -0.731957
     43          8           0       -6.348436    6.014013   -1.651162
     44          6           0       -5.380702    6.837314   -2.424350
     45          1           0       -8.072496   -1.339740   -3.831702
     46          1           0       -6.816893   -4.837134    1.180853
     47          1           0       -6.610072    0.299364    4.788180
     48          1           0       -7.844123    3.508915   -2.906933
     49          1           0       -7.751331    1.153355   -4.452952
     50          1           0       -9.803294    2.296634   -2.596007
     51          1           0       -9.817412    0.511730   -2.738086
     52          1           0      -10.046920    1.456617   -4.182072
     53          1           0       -5.526890    1.899143   -3.997977
     54          1           0       -5.148392    3.323132   -2.948468
     55          1           0       -6.970506    4.150479   -4.968962
     56          1           0       -6.000473    2.948972   -5.732685
     57          1           0       -7.484585   -3.160622   -4.715791
     58          1           0       -7.834140   -4.754849   -4.166003
     59          1           0       -6.141151   -4.351498   -4.551251
     60          1           0       -6.883334   -6.575816   -3.273348
     61          1           0       -5.648851   -7.623722   -2.375337
     62          1           0       -5.199585   -6.119355   -3.222668
     63          1           0       -6.179327   -4.369184    3.604693
     64          1           0       -7.599361   -2.188786    5.052917
     65          1           0       -8.105916   -5.388316    4.200524
     66          1           0       -8.954427   -4.327497    3.024333
     67          1           0       -8.844277   -3.858965    4.641527
     68          1           0       -5.616807   -3.443594    5.982031
     69          1           0       -5.536187   -1.694307    6.159067
     70          1           0       -4.129797   -3.553900    4.395359
     71          1           0       -3.430299   -2.198005    5.343485
     72          1           0       -4.301889   -1.921900    3.769063
     73          1           0       -6.017520    3.910343    4.745369
     74          1           0       -6.532350    2.317787    5.407020
     75          1           0       -7.773580    3.405954    4.658152
     76          1           0       -7.778824    4.687678   -0.294284
     77          1           0       -5.640839    7.882209   -2.254767
     78          1           0       -5.410070    6.468584   -3.449816
     79          1           0       -4.347941    6.822932   -2.074298
     80         12           0        6.690865   -0.846582   -0.186419
     81          6           0        6.568518    2.594527    0.824937
     82          6           0        5.709011    0.184679   -3.285953
     83          6           0        6.352750   -3.898465   -0.985854
     84          6           0        6.540262   -1.699762    3.189241
     85          7           0        6.230238    1.157077   -1.002173
     86          6           0        6.278061    2.397873   -0.541224
     87          6           0        6.077837    3.493754   -1.622205
     88          6           0        5.265042    2.623251   -2.699456
     89          6           0        5.788489    1.234988   -2.336941
     90          6           0        3.761965    2.640265   -2.476281
     91          6           0        7.438334    4.009769   -2.209397
     92          6           0        7.335509    5.290527   -3.040552
     93          1           0        8.433107    6.251613   -2.976845
     94          7           0        6.595488   -1.702904   -1.974215
     95          6           0        6.196086   -1.131652   -3.129825
     96          6           0        6.288086   -2.185316   -4.152311
     97          6           0        6.616863   -3.468931   -3.474864
     98          6           0        6.511667   -3.068542   -2.086089
     99          6           0        6.150169   -1.908047   -5.621166
    100          6           0        6.955722   -4.834417   -3.991422
    101          8           0        6.972216   -5.860081   -3.222937
    102          6           0        7.176176   -4.951164   -5.440296
    103          7           0        6.264556   -2.554849    0.919207
    104          6           0        6.226601   -3.765112    0.334605
    105          6           0        6.176721   -4.867500    1.365451
    106          6           0        6.434182   -4.152059    2.772374
    107          6           0        6.502654   -2.683048    2.300478
    108          6           0        4.871298   -5.660092    1.429182
    109          6           0        7.597770   -4.704581    3.640380
    110          6           0        8.922086   -4.423233    2.967745
    111          7           0        6.760830    0.218989    1.691795
    112          6           0        6.655012   -0.330121    2.988465
    113          6           0        6.641855    0.799828    3.940036
    114          6           0        6.718344    1.937891    3.123057
    115          6           0        6.754799    1.545676    1.757650
    116          6           0        6.518888    0.695041    5.354256
    117          6           0        6.765814    3.382230    3.104764
    118          8           0        6.852012    4.259496    3.963091
    119          6           0        6.543360    3.876279    1.610499
    120          6           0        7.593127    4.908225    1.301343
    121          8           0        8.795542    4.593583    1.258816
    122          8           0        6.991314    6.041028    0.895188
    123          6           0        7.991738    7.091161    0.566288
    124          1           0        5.186923    0.372030   -4.224681
    125          1           0        6.342394   -4.969539   -1.200766
    126          1           0        6.594182   -1.886049    4.263975
    127          1           0        5.483179    4.341847   -1.304584
    128          1           0        5.550286    2.885081   -3.715064
    129          1           0        3.496838    3.140620   -1.556770
    130          1           0        3.457666    1.602298   -2.443547
    131          1           0        3.257005    3.075162   -3.343578
    132          1           0        7.782520    3.311042   -2.982735
    133          1           0        8.163875    4.141775   -1.430435
    134          1           0        6.372751    5.796826   -2.900191
    135          1           0        7.343719    5.018949   -4.098949
    136          1           0        5.748059   -0.904090   -5.804995
    137          1           0        5.377605   -2.584187   -6.003048
    138          1           0        7.076876   -2.083390   -6.171745
    139          1           0        6.284876   -4.621609   -5.968919
    140          1           0        7.494341   -5.982386   -5.605332
    141          1           0        7.983152   -4.267875   -5.727568
    142          1           0        6.960578   -5.594624    1.192303
    143          1           0        5.559382   -4.228912    3.434686
    144          1           0        5.013581   -6.747768    1.284928
    145          1           0        4.194237   -5.263102    0.684520
    146          1           0        4.301138   -5.537708    2.348490
    147          1           0        7.520134   -5.790846    3.730711
    148          1           0        7.616971   -4.298342    4.646164
    149          1           0        9.015615   -5.246313    2.252997
    150          1           0        9.731672   -4.437799    3.694653
    151          1           0        8.881334   -3.490642    2.393070
    152          1           0        7.235974    1.383650    5.780992
    153          1           0        6.693815   -0.323601    5.694158
    154          1           0        5.475988    0.997095    5.482261
    155          1           0        5.534822    4.286755    1.547887
    156          1           0        7.742245    7.970027    1.168826
    157          1           0        7.953046    7.206745   -0.533206
    158          1           0        9.018941    6.915533    0.863675
 ---------------------------------------------------------------------

 SCF Done:  E(RCAM-B3LYP) =  -4069.81171387     A.U. after   19 cycles

 Excitation energies and oscillator strengths:

 Excited State   1:      Singlet-A      1.6665 eV  743.99 nm  f=0.0387  <S**2>=0.000
     309 -> 315       -0.10822
     310 -> 316        0.13308
     311 -> 313       -0.43134
     312 -> 314        0.53416
 This state for optimization and/or second-order correction.
 Total Energy, E(TD-HF/TD-DFT) =  -4069.75047219
 Copying the excited state density for this state as the 1-particle RhoCI density.

 Excited State   2:      Singlet-A      1.6880 eV  734.51 nm  f=0.7038  <S**2>=0.000
     309 -> 315        0.13838
     310 -> 316        0.11077
     311 -> 313        0.53303
     312 -> 314        0.43050

 Excited State   3:      Singlet-A      2.1843 eV  567.61 nm  f=0.0504  <S**2>=0.000
     309 -> 313       -0.18123
     310 -> 314        0.61709
     312 -> 316       -0.26057

 Excited State   4:      Singlet-A      2.1936 eV  565.20 nm  f=0.1397  <S**2>=0.000
     309 -> 313        0.61455
     310 -> 314        0.17956
     311 -> 315       -0.26797

 Excited State   5:      Singlet-A      2.6481 eV  468.20 nm  f=0.0000  <S**2>=0.000
     312 -> 313        0.70710

 The electronic state is 1-A.
 Alpha  occ. eigenvalues --  -46.87855 -46.87546 -19.26376 -19.26204 -19.19109
 Alpha  occ. eigenvalues --  -19.19026 -19.18861 -19.18636 -19.18221 -19.17920
 Alpha  occ. eigenvalues --  -14.42512 -14.42377 -14.41505 -14.41246 -14.39460
 Alpha  occ. eigenvalues --  -14.39242 -14.38643 -14.38483 -10.39166 -10.38953
 Alpha  occ. eigenvalues --  -10.35494 -10.35316 -10.34443 -10.34095 -10.31784
 Alpha  occ. eigenvalues --  -10.31617 -10.31468 -10.31180 -10.30977 -10.30904
 Alpha  occ. eigenvalues --  -10.30627 -10.30560 -10.30286 -10.30260 -10.30243
 Alpha  occ. eigenvalues --  -10.30040 -10.29971 -10.29781 -10.29683 -10.29332
 Alpha  occ. eigenvalues --  -10.29308 -10.29294 -10.28837 -10.28674 -10.28574
 Alpha  occ. eigenvalues --  -10.28537 -10.28424 -10.28289 -10.28195 -10.27987
 Alpha  occ. eigenvalues --  -10.27889 -10.27845 -10.27788 -10.27638 -10.27553
 Alpha  occ. eigenvalues --  -10.27544 -10.27543 -10.27493 -10.27465 -10.27423
 Alpha  occ. eigenvalues --  -10.27400 -10.27364 -10.27363 -10.27278 -10.27224
 Alpha  occ. eigenvalues --  -10.26903 -10.26823 -10.26569 -10.26452 -10.26366
 Alpha  occ. eigenvalues --  -10.26303 -10.26223 -10.26071 -10.26057 -10.25870
 Alpha  occ. eigenvalues --  -10.25826 -10.25816 -10.25738 -10.25473 -10.25296
 Alpha  occ. eigenvalues --  -10.24885 -10.24842 -10.24757 -10.24730 -10.24654
 Alpha  occ. eigenvalues --  -10.24579  -3.16598  -3.16296  -1.91480  -1.91178
 Alpha  occ. eigenvalues --   -1.91066  -1.90908  -1.90766  -1.90603  -1.16723
 Alpha  occ. eigenvalues --   -1.16501  -1.08681  -1.08523  -1.07261  -1.06890
 Alpha  occ. eigenvalues --   -1.06809  -1.06730  -1.04644  -1.04374  -1.03817
 Alpha  occ. eigenvalues --   -1.03549  -1.03289  -1.02927  -1.02467  -1.01997
 Alpha  occ. eigenvalues --   -0.92033  -0.91862  -0.89570  -0.89390  -0.89269
 Alpha  occ. eigenvalues --   -0.89008  -0.88336  -0.88118  -0.87917  -0.87738
 Alpha  occ. eigenvalues --   -0.87679  -0.87568  -0.87327  -0.87033  -0.85060
 Alpha  occ. eigenvalues --   -0.84872  -0.83985  -0.83776  -0.83016  -0.82853
 Alpha  occ. eigenvalues --   -0.82719  -0.82534  -0.81659  -0.81471  -0.80661
 Alpha  occ. eigenvalues --   -0.80326  -0.78850  -0.78536  -0.77280  -0.77029
 Alpha  occ. eigenvalues --   -0.77009  -0.76773  -0.75994  -0.75704  -0.74950
 Alpha  occ. eigenvalues --   -0.74693  -0.72828  -0.72586  -0.71732  -0.71456
 Alpha  occ. eigenvalues --   -0.69954  -0.69662  -0.68945  -0.68705  -0.67700
 Alpha  occ. eigenvalues --   -0.67491  -0.67303  -0.67091  -0.65363  -0.65142
 Alpha  occ. eigenvalues --   -0.64917  -0.64688  -0.64654  -0.64532  -0.64322
 Alpha  occ. eigenvalues --   -0.64099  -0.62372  -0.62152  -0.60494  -0.60245
 Alpha  occ. eigenvalues --   -0.59876  -0.59664  -0.59046  -0.58877  -0.58562
 Alpha  occ. eigenvalues --   -0.58309  -0.57651  -0.57421  -0.57364  -0.57130
 Alpha  occ. eigenvalues --   -0.56366  -0.56094  -0.56061  -0.55760  -0.55577
 Alpha  occ. eigenvalues --   -0.55396  -0.55346  -0.55135  -0.54588  -0.54373
 Alpha  occ. eigenvalues --   -0.53977  -0.53775  -0.53354  -0.53290  -0.53123
 Alpha  occ. eigenvalues --   -0.53026  -0.52983  -0.52818  -0.52784  -0.52574
 Alpha  occ. eigenvalues --   -0.52485  -0.52310  -0.51956  -0.51770  -0.51692
 Alpha  occ. eigenvalues --   -0.51541  -0.51256  -0.51083  -0.50625  -0.50398
 Alpha  occ. eigenvalues --   -0.50082  -0.49976  -0.49866  -0.49768  -0.49581
 Alpha  occ. eigenvalues --   -0.49378  -0.49274  -0.49166  -0.49082  -0.48966
 Alpha  occ. eigenvalues --   -0.48658  -0.48511  -0.48501  -0.48431  -0.48272
 Alpha  occ. eigenvalues --   -0.48241  -0.47758  -0.47483  -0.47355  -0.47017
 Alpha  occ. eigenvalues --   -0.46856  -0.46635  -0.46596  -0.46428  -0.46415
 Alpha  occ. eigenvalues --   -0.46218  -0.46164  -0.45971  -0.45883  -0.45696
 Alpha  occ. eigenvalues --   -0.45251  -0.45102  -0.44637  -0.44569  -0.44393
 Alpha  occ. eigenvalues --   -0.44357  -0.44200  -0.44160  -0.44079  -0.43998
 Alpha  occ. eigenvalues --   -0.43979  -0.43833  -0.43562  -0.43452  -0.43429
 Alpha  occ. eigenvalues --   -0.43263  -0.43086  -0.42806  -0.42775  -0.42774
 Alpha  occ. eigenvalues --   -0.42711  -0.42456  -0.42070  -0.41856  -0.41763
 Alpha  occ. eigenvalues --   -0.41612  -0.41545  -0.41339  -0.41203  -0.40941
 Alpha  occ. eigenvalues --   -0.40882  -0.40862  -0.40629  -0.40625  -0.40583
 Alpha  occ. eigenvalues --   -0.40383  -0.40333  -0.40108  -0.39488  -0.39334
 Alpha  occ. eigenvalues --   -0.38525  -0.38243  -0.37842  -0.37534  -0.37375
 Alpha  occ. eigenvalues --   -0.37340  -0.37157  -0.37077  -0.36790  -0.36642
 Alpha  occ. eigenvalues --   -0.36260  -0.36101  -0.34344  -0.34137  -0.33854
 Alpha  occ. eigenvalues --   -0.33731  -0.33245  -0.33061  -0.31391  -0.31193
 Alpha  occ. eigenvalues --   -0.31094  -0.30857  -0.30082  -0.29822  -0.29502
 Alpha  occ. eigenvalues --   -0.29374  -0.29225  -0.29096  -0.24139  -0.23919
 Alpha  occ. eigenvalues --   -0.21184  -0.21004
 Alpha virt. eigenvalues --   -0.08829  -0.08681  -0.01806  -0.01573  -0.00113
 Alpha virt. eigenvalues --    0.00074   0.02149   0.02327   0.03052   0.03328
 Alpha virt. eigenvalues --    0.04643   0.04854   0.05015   0.05302   0.06071

 Mulliken charges:
               1
     1  Mg   0.838505
     2  C   -0.003170
     3  C   -0.094419
     4  C   -0.045749
     5  C   -0.063763
     6  N   -0.256766
     7  C   -0.052596
     8  C   -0.013973
     9  C   -0.086966
    10  C    0.046189
    11  C    0.104796
    12  C    0.053599
    13  C   -0.071431
    14  H    0.035013
    15  N   -0.433139
    16  C    0.168338
    17  C   -0.177265
    18  C   -0.003923
    19  C    0.148641
    20  C    0.110197
    21  C    0.012352
    22  O   -0.249469
    23  C    0.062476
    24  N   -0.341077
    25  C    0.041216
    26  C   -0.028220
    27  C   -0.024006
    28  C    0.074798
    29  C    0.076124
    30  C    0.035095
    31  C   -0.004527
    32  N   -0.310512
    33  C    0.080395
    34  C   -0.169423
    35  C    0.008453
    36  C    0.082979
    37  C    0.127246
    38  C    0.046229
    39  O   -0.188142
    40  C   -0.005422
    41  C    0.213027
    42  O   -0.257499
    43  O   -0.304655
    44  C    0.157770
    45  H   -0.017658
    46  H   -0.016707
    47  H   -0.041197
    48  H    0.001018
    49  H   -0.004325
    50  H    0.025575
    51  H    0.016630
    52  H    0.016641
    53  H    0.010818
    54  H    0.043759
    55  H    0.018263
    56  H    0.017762
    57  H    0.005676
    58  H    0.026969
    59  H    0.039325
    60  H    0.037323
    61  H    0.035938
    62  H    0.031397
    63  H    0.016578
    64  H    0.009626
    65  H    0.023307
    66  H    0.012566
    67  H    0.004880
    68  H    0.006426
    69  H    0.004990
    70  H    0.008654
    71  H    0.018226
    72  H    0.028927
    73  H    0.047990
    74  H    0.009343
    75  H    0.046105
    76  H    0.035254
    77  H    0.043227
    78  H    0.046077
    79  H    0.053289
    80  Mg   0.837935
    81  C   -0.016662
    82  C   -0.087775
    83  C   -0.045685
    84  C   -0.064915
    85  N   -0.254593
    86  C   -0.049314
    87  C   -0.015179
    88  C   -0.090667
    89  C    0.045949
    90  C    0.114390
    91  C    0.062554
    92  C   -0.077741
    93  H    0.034471
    94  N   -0.423434
    95  C    0.162879
    96  C   -0.174918
    97  C   -0.008114
    98  C    0.152105
    99  C    0.099560
   100  C    0.015306
   101  O   -0.253429
   102  C    0.061305
   103  N   -0.350016
   104  C    0.037545
   105  C   -0.019815
   106  C   -0.034787
   107  C    0.089064
   108  C    0.073672
   109  C    0.034749
   110  C   -0.007604
   111  N   -0.324197
   112  C    0.078702
   113  C   -0.163068
   114  C    0.002611
   115  C    0.096207
   116  C    0.131401
   117  C    0.042683
   118  O   -0.187490
   119  C    0.000770
   120  C    0.211157
   121  O   -0.251411
   122  O   -0.305170
   123  C    0.152152
   124  H   -0.019977
   125  H   -0.015859
   126  H   -0.040637
   127  H    0.000261
   128  H   -0.004906
   129  H    0.024454
   130  H    0.014383
   131  H    0.016209
   132  H    0.013560
   133  H    0.037531
   134  H    0.021273
   135  H    0.019197
   136  H    0.008558
   137  H    0.025417
   138  H    0.039425
   139  H    0.037823
   140  H    0.036036
   141  H    0.033824
   142  H    0.014138
   143  H    0.012421
   144  H    0.024909
   145  H    0.011819
   146  H    0.005774
   147  H    0.006087
   148  H    0.003531
   149  H    0.010808
   150  H    0.017721
   151  H    0.030202
   152  H    0.045903
   153  H    0.008196
   154  H    0.047485
   155  H    0.036533
   156  H    0.044124
   157  H    0.049360
   158  H    0.053236
 Sum of Mulliken charges =  -0.00000

 Dipole moment (field-independent basis, Debye):
    X=             -4.4032    Y=             -2.2194    Z=             -7.2127  Tot=              8.7371
 Quadrupole moment (field-independent basis, Debye-Ang):
   XX=           -517.8047   YY=           -546.5942   ZZ=           -452.7584
   XY=              5.2311   XZ=             -1.1973   YZ=            -44.0422

 Normal termination of Gaussian 16 at Sat Sep  4 09:23:49 2021.
