 Gaussian 16, Revision A.03,
 Gaussian 16:  ES64L-G16RevA.03 25-Dec-2016

 -----------------------------------
 #p cam-b3lyp/Def2SVP td=(nstates=5)
 -----------------------------------

 --------------------------------
 TDDFT excited states in gaussian
 --------------------------------
 Symbolic Z-matrix:
 Charge =  0 Multiplicity = 1

                         Standard orientation:
 ---------------------------------------------------------------------
 Center     Atomic      Atomic             Coordinates (Angstroms)
 Number     Number       Type             X           Y           Z
 ---------------------------------------------------------------------
      1         12           0       -6.508076    0.533059   -0.664989
      2          6           0       -6.841167   -2.502704    1.201936
      3          6           0       -7.671794    2.179003    2.088135
      4          6           0       -6.654148    3.161913   -2.432589
      5          6           0       -6.468663   -1.419670   -3.551329
      6          7           0       -7.140668   -0.181378    1.332523
      7          6           0       -7.163667   -1.362748    1.941626
      8          6           0       -7.489930   -1.267654    3.462114
      9          6           0       -8.267833    0.124053    3.466091
     10          6           0       -7.631448    0.761525    2.243565
     11          6           0       -9.767167   -0.015328    3.223039
     12          6           0       -6.198034   -1.204378    4.344573
     13          6           0       -6.417521   -1.438427    5.842038
     14          1           0       -5.397217   -2.150589    6.596459
     15          7           0       -6.607345    2.432375   -0.130580
     16          6           0       -7.095630    2.921350    1.034653
     17          6           0       -6.949992    4.390635    0.952972
     18          6           0       -6.512942    4.728371   -0.430146
     19          6           0       -6.600416    3.440030   -1.068819
     20          6           0       -7.168724    5.305247    2.118902
     21          6           0       -6.094512    6.010931   -1.076744
     22          8           0       -5.977390    6.126924   -2.344577
     23          6           0       -5.908588    7.167621   -0.182013
     24          7           0       -6.775531    0.856233   -2.709900
     25          6           0       -6.740495    2.090590   -3.223827
     26          6           0       -6.670675    2.056577   -4.721794
     27          6           0       -6.419142    0.530324   -5.118072
     28          6           0       -6.472845   -0.093213   -3.701531
     29          6           0       -7.910258    2.578284   -5.461569
     30          6           0       -5.188934    0.229059   -6.010399
     31          6           0       -3.916743    0.506540   -5.241221
     32          7           0       -6.452774   -1.588395   -1.120424
     33          6           0       -6.465143   -2.178216   -2.392679
     34          6           0       -6.526337   -3.637639   -2.191662
     35          6           0       -6.562279   -3.795785   -0.807631
     36          6           0       -6.552339   -2.515349   -0.184191
     37          6           0       -6.600634   -4.618126   -3.220040
     38          6           0       -6.631633   -4.747865    0.288996
     39          8           0       -6.571624   -5.975118    0.376983
     40          6           0       -6.937910   -3.945884    1.630207
     41          6           0       -5.977683   -4.433493    2.680689
     42          8           0       -4.753740   -4.211113    2.581314
     43          8           0       -6.667801   -4.871664    3.744778
     44          6           0       -5.773593   -5.342445    4.836067
     45          1           0       -8.245222    2.772273    2.803085
     46          1           0       -6.594453    4.039776   -3.079297
     47          1           0       -6.374305   -2.095128   -4.403565
     48          1           0       -8.139573   -2.058344    3.837876
     49          1           0       -8.047389    0.710933    4.357549
     50          1           0      -10.034465   -1.038280    2.958383
     51          1           0       -9.992740    0.662324    2.399390
     52          1           0      -10.334136    0.353365    4.078252
     53          1           0       -5.829420   -0.178912    4.369140
     54          1           0       -5.445213   -1.902613    3.977076
     55          1           0       -7.403080   -1.861203    6.039123
     56          1           0       -6.433961   -0.469125    6.340420
     57          1           0       -7.641920    4.786428    2.951643
     58          1           0       -7.903988    6.047171    1.808025
     59          1           0       -6.249960    5.804726    2.426678
     60          1           0       -6.841687    7.368855    0.344654
     61          1           0       -5.523549    7.972497   -0.807129
     62          1           0       -5.175004    6.908687    0.582027
     63          1           0       -5.842754    2.661952   -5.088529
     64          1           0       -7.258458    0.107601   -5.670818
     65          1           0       -7.696477    3.393211   -6.153592
     66          1           0       -8.645090    2.880901   -4.716092
     67          1           0       -8.463687    1.821213   -6.016525
     68          1           0       -5.184773    0.881150   -6.883156
     69          1           0       -5.156963   -0.800943   -6.365821
     70          1           0       -3.783498    1.580051   -5.370259
     71          1           0       -3.082075   -0.045368   -5.674738
     72          1           0       -4.047487    0.320245   -4.175066
     73          1           0       -5.913930   -5.414244   -2.932634
     74          1           0       -6.334883   -4.196437   -4.189141
     75          1           0       -7.653057   -4.894891   -3.159509
     76          1           0       -7.973944   -4.157855    1.892548
     77          1           0       -6.061141   -6.368315    5.066590
     78          1           0       -5.845678   -4.604935    5.635622
     79          1           0       -4.723427   -5.476908    4.574516
     80         12           0        6.668402    0.727281    0.580739
     81          6           0        6.723706   -1.988755   -1.764288
     82          6           0        5.600828   -1.512192    2.921614
     83          6           0        6.177488    3.168048    2.547749
     84          6           0        6.623777    2.897571   -2.145716
     85          7           0        6.253848   -1.442638    0.471791
     86          6           0        6.369556   -2.380421   -0.456383
     87          6           0        6.168241   -3.828890    0.064161
     88          6           0        5.277968   -3.497535    1.358957
     89          6           0        5.760781   -2.074084    1.629794
     90          6           0        3.787230   -3.449018    1.067962
     91          6           0        7.522617   -4.515866    0.458791
     92          6           0        7.436155   -6.027433    0.681162
     93          1           0        8.572500   -6.855192    0.286161
     94          7           0        6.465590    0.765295    2.554569
     95          6           0        6.041658   -0.240281    3.348539
     96          6           0        6.049738    0.297494    4.717802
     97          6           0        6.355336    1.752320    4.648581
     98          6           0        6.323439    1.960447    3.214799
     99          6           0        5.862329   -0.565167    5.931940
    100          6           0        6.618458    2.787882    5.699573
    101          8           0        6.626217    4.039704    5.424387
    102          6           0        6.774141    2.298886    7.077297
    103          7           0        6.221076    2.731547    0.256480
    104          6           0        6.111319    3.590577    1.285044
    105          6           0        6.060607    5.019517    0.799311
    106          6           0        6.403954    4.955223   -0.761316
    107          6           0        6.510761    3.424169   -0.934070
    108          6           0        4.728696    5.742717    0.997741
    109          6           0        7.579699    5.839165   -1.260256
    110          6           0        8.885175    5.329760   -0.693130
    111          7           0        6.857816    0.535741   -1.562965
    112          6           0        6.784061    1.570006   -2.521583
    113          6           0        6.854769    0.934942   -3.853536
    114          6           0        6.942280   -0.437491   -3.575579
    115          6           0        6.906828   -0.644691   -2.170123
    116          6           0        6.786265    1.613076   -5.103158
    117          6           0        7.045872   -1.758819   -4.151824
    118          8           0        7.201966   -2.200594   -5.289460
    119          6           0        6.781572   -2.830892   -3.008498
    120          6           0        7.857548   -3.878313   -3.096174
    121          8           0        9.043840   -3.586856   -2.862984
    122          8           0        7.284619   -5.088764   -3.226238
    123          6           0        8.311236   -6.161841   -3.306124
    124          1           0        5.048227   -2.080927    3.669977
    125          1           0        6.116033    4.053841    3.184201
    126          1           0        6.714639    3.512779   -3.043448
    127          1           0        5.621105   -4.480642   -0.606393
    128          1           0        5.531130   -4.150653    2.190050
    129          1           0        3.580230   -3.529025    0.011136
    130          1           0        3.443852   -2.496441    1.449697
    131          1           0        3.264422   -4.213189    1.650234
    132          1           0        7.806774   -4.193337    1.468729
    133          1           0        8.284353   -4.300090   -0.264974
    134          1           0        6.500719   -6.448343    0.292892
    135          1           0        7.389940   -6.217959    1.756137
    136          1           0        5.492880   -1.562600    5.663559
    137          1           0        5.048602   -0.122277    6.516365
    138          1           0        6.757875   -0.615877    6.554915
    139          1           0        5.875457    1.763420    7.374163
    140          1           0        7.044300    3.175232    7.669668
    141          1           0        7.594884    1.573303    7.100358
    142          1           0        6.807368    5.624486    1.298789
    143          1           0        5.554897    5.282706   -1.379138
    144          1           0        4.821901    6.675738    1.585002
    145          1           0        4.037653    5.060536    1.474840
    146          1           0        4.202242    6.000903    0.080465
    147          1           0        7.463085    6.863807   -0.898767
    148          1           0        7.656413    5.885874   -2.341426
    149          1           0        8.916582    5.784996    0.301283
    150          1           0        9.722883    5.658991   -1.304590
    151          1           0        8.857539    4.242371   -0.557134
    152          1           0        7.546961    1.176359   -5.736507
    153          1           0        6.934773    2.684185   -4.982918
    154          1           0        5.762256    1.371459   -5.400307
    155          1           0        5.788267   -3.249422   -3.175140
    156          1           0        8.121681   -6.717214   -4.229876
    157          1           0        8.231776   -6.722642   -2.355896
    158          1           0        9.342127   -5.859586   -3.448815
 ---------------------------------------------------------------------

 SCF Done:  E(RCAM-B3LYP) =  -4069.81202162     A.U. after   19 cycles

 Excitation energies and oscillator strengths:

 Excited State   1:      Singlet-A      1.6729 eV  741.14 nm  f=0.2683  <S**2>=0.000
     310 -> 316        0.15279
     311 -> 313       -0.31875
     312 -> 314        0.60765
 This state for optimization and/or second-order correction.
 Total Energy, E(TD-HF/TD-DFT) =  -4069.75054415
 Copying the excited state density for this state as the 1-particle RhoCI density.

 Excited State   2:      Singlet-A      1.6809 eV  737.60 nm  f=0.4652  <S**2>=0.000
     309 -> 315        0.15588
     311 -> 313        0.60709
     312 -> 314        0.31846

 Excited State   3:      Singlet-A      2.1850 eV  567.44 nm  f=0.0928  <S**2>=0.000
     310 -> 314        0.63665
     312 -> 316       -0.26917

 Excited State   4:      Singlet-A      2.1931 eV  565.35 nm  f=0.1048  <S**2>=0.000
     309 -> 313        0.63462
     311 -> 315       -0.27580

 Excited State   5:      Singlet-A      2.6458 eV  468.61 nm  f=0.0000  <S**2>=0.000
     312 -> 313        0.70710

 The electronic state is 1-A.
 Alpha  occ. eigenvalues --  -46.87860 -46.87545 -19.26423 -19.26221 -19.19159
 Alpha  occ. eigenvalues --  -19.19039 -19.18868 -19.18641 -19.18253 -19.17942
 Alpha  occ. eigenvalues --  -14.42517 -14.42369 -14.41508 -14.41249 -14.39465
 Alpha  occ. eigenvalues --  -14.39240 -14.38653 -14.38487 -10.39212 -10.38967
 Alpha  occ. eigenvalues --  -10.35500 -10.35320 -10.34475 -10.34116 -10.31839
 Alpha  occ. eigenvalues --  -10.31628 -10.31476 -10.31169 -10.30980 -10.30893
 Alpha  occ. eigenvalues --  -10.30636 -10.30570 -10.30293 -10.30257 -10.30244
 Alpha  occ. eigenvalues --  -10.30038 -10.29978 -10.29793 -10.29693 -10.29328
 Alpha  occ. eigenvalues --  -10.29312 -10.29298 -10.28837 -10.28662 -10.28546
 Alpha  occ. eigenvalues --  -10.28492 -10.28433 -10.28289 -10.28194 -10.27941
 Alpha  occ. eigenvalues --  -10.27892 -10.27857 -10.27791 -10.27645 -10.27536
 Alpha  occ. eigenvalues --  -10.27533 -10.27532 -10.27486 -10.27475 -10.27435
 Alpha  occ. eigenvalues --  -10.27370 -10.27365 -10.27364 -10.27299 -10.27253
 Alpha  occ. eigenvalues --  -10.26925 -10.26816 -10.26538 -10.26454 -10.26362
 Alpha  occ. eigenvalues --  -10.26304 -10.26198 -10.26074 -10.26068 -10.25899
 Alpha  occ. eigenvalues --  -10.25827 -10.25759 -10.25738 -10.25466 -10.25337
 Alpha  occ. eigenvalues --  -10.24901 -10.24847 -10.24763 -10.24699 -10.24665
 Alpha  occ. eigenvalues --  -10.24586  -3.16603  -3.16295  -1.91485  -1.91177
 Alpha  occ. eigenvalues --   -1.91072  -1.90914  -1.90766  -1.90603  -1.16771
 Alpha  occ. eigenvalues --   -1.16516  -1.08716  -1.08547  -1.07268  -1.06895
 Alpha  occ. eigenvalues --   -1.06823  -1.06779  -1.04649  -1.04367  -1.03821
 Alpha  occ. eigenvalues --   -1.03548  -1.03296  -1.02930  -1.02474  -1.01999
 Alpha  occ. eigenvalues --   -0.92047  -0.91867  -0.89567  -0.89396  -0.89269
 Alpha  occ. eigenvalues --   -0.88975  -0.88332  -0.88129  -0.87933  -0.87740
 Alpha  occ. eigenvalues --   -0.87687  -0.87559  -0.87330  -0.87027  -0.85061
 Alpha  occ. eigenvalues --   -0.84852  -0.83982  -0.83790  -0.83016  -0.82852
 Alpha  occ. eigenvalues --   -0.82725  -0.82519  -0.81682  -0.81476  -0.80674
 Alpha  occ. eigenvalues --   -0.80327  -0.78856  -0.78533  -0.77282  -0.77020
 Alpha  occ. eigenvalues --   -0.77016  -0.76765  -0.76006  -0.75689  -0.74951
 Alpha  occ. eigenvalues --   -0.74706  -0.72836  -0.72586  -0.71738  -0.71453
 Alpha  occ. eigenvalues --   -0.69942  -0.69672  -0.68948  -0.68688  -0.67709
 Alpha  occ. eigenvalues --   -0.67493  -0.67303  -0.67073  -0.65368  -0.65127
 Alpha  occ. eigenvalues --   -0.64929  -0.64695  -0.64654  -0.64528  -0.64320
 Alpha  occ. eigenvalues --   -0.64106  -0.62398  -0.62161  -0.60497  -0.60245
 Alpha  occ. eigenvalues --   -0.59880  -0.59644  -0.59054  -0.58879  -0.58573
 Alpha  occ. eigenvalues --   -0.58313  -0.57679  -0.57435  -0.57371  -0.57138
 Alpha  occ. eigenvalues --   -0.56378  -0.56092  -0.56089  -0.55762  -0.55586
 Alpha  occ. eigenvalues --   -0.55405  -0.55344  -0.55149  -0.54602  -0.54385
 Alpha  occ. eigenvalues --   -0.53978  -0.53746  -0.53361  -0.53297  -0.53124
 Alpha  occ. eigenvalues --   -0.53021  -0.53000  -0.52820  -0.52780  -0.52556
 Alpha  occ. eigenvalues --   -0.52472  -0.52320  -0.51979  -0.51785  -0.51698
 Alpha  occ. eigenvalues --   -0.51523  -0.51268  -0.51087  -0.50621  -0.50388
 Alpha  occ. eigenvalues --   -0.50075  -0.49978  -0.49858  -0.49770  -0.49587
 Alpha  occ. eigenvalues --   -0.49367  -0.49288  -0.49175  -0.49079  -0.48950
 Alpha  occ. eigenvalues --   -0.48676  -0.48520  -0.48509  -0.48425  -0.48286
 Alpha  occ. eigenvalues --   -0.48243  -0.47762  -0.47475  -0.47360  -0.47014
 Alpha  occ. eigenvalues --   -0.46859  -0.46639  -0.46593  -0.46423  -0.46403
 Alpha  occ. eigenvalues --   -0.46230  -0.46166  -0.45983  -0.45906  -0.45702
 Alpha  occ. eigenvalues --   -0.45250  -0.45116  -0.44658  -0.44569  -0.44400
 Alpha  occ. eigenvalues --   -0.44338  -0.44205  -0.44160  -0.44093  -0.43986
 Alpha  occ. eigenvalues --   -0.43980  -0.43831  -0.43586  -0.43453  -0.43434
 Alpha  occ. eigenvalues --   -0.43257  -0.43095  -0.42812  -0.42812  -0.42784
 Alpha  occ. eigenvalues --   -0.42706  -0.42462  -0.42069  -0.41855  -0.41775
 Alpha  occ. eigenvalues --   -0.41612  -0.41551  -0.41323  -0.41208  -0.40939
 Alpha  occ. eigenvalues --   -0.40884  -0.40853  -0.40622  -0.40621  -0.40568
 Alpha  occ. eigenvalues --   -0.40383  -0.40328  -0.40082  -0.39473  -0.39342
 Alpha  occ. eigenvalues --   -0.38520  -0.38249  -0.37841  -0.37513  -0.37373
 Alpha  occ. eigenvalues --   -0.37345  -0.37158  -0.37062  -0.36822  -0.36654
 Alpha  occ. eigenvalues --   -0.36272  -0.36105  -0.34352  -0.34137  -0.33897
 Alpha  occ. eigenvalues --   -0.33742  -0.33254  -0.33062  -0.31398  -0.31198
 Alpha  occ. eigenvalues --   -0.31102  -0.30857  -0.30115  -0.29844  -0.29511
 Alpha  occ. eigenvalues --   -0.29388  -0.29226  -0.29104  -0.24146  -0.23919
 Alpha  occ. eigenvalues --   -0.21190  -0.21002
 Alpha virt. eigenvalues --   -0.08837  -0.08682  -0.01810  -0.01574  -0.00121
 Alpha virt. eigenvalues --    0.00076   0.02130   0.02313   0.03050   0.03329
 Alpha virt. eigenvalues --    0.04642   0.04868   0.04973   0.05288   0.06073

 Mulliken charges:
               1
     1  Mg   0.838614
     2  C   -0.003297
     3  C   -0.094161
     4  C   -0.045774
     5  C   -0.063758
     6  N   -0.256804
     7  C   -0.052583
     8  C   -0.014018
     9  C   -0.087008
    10  C    0.046267
    11  C    0.104770
    12  C    0.053500
    13  C   -0.071542
    14  H    0.035059
    15  N   -0.433169
    16  C    0.168451
    17  C   -0.177052
    18  C   -0.003882
    19  C    0.148727
    20  C    0.110114
    21  C    0.012302
    22  O   -0.249486
    23  C    0.062450
    24  N   -0.341124
    25  C    0.041313
    26  C   -0.028227
    27  C   -0.024024
    28  C    0.074809
    29  C    0.076118
    30  C    0.035050
    31  C   -0.004604
    32  N   -0.310401
    33  C    0.080282
    34  C   -0.169720
    35  C    0.008195
    36  C    0.082828
    37  C    0.127347
    38  C    0.045863
    39  O   -0.188811
    40  C   -0.005241
    41  C    0.212902
    42  O   -0.257927
    43  O   -0.304499
    44  C    0.157986
    45  H   -0.017499
    46  H   -0.016646
    47  H   -0.041194
    48  H    0.000889
    49  H   -0.004042
    50  H    0.025488
    51  H    0.016629
    52  H    0.016757
    53  H    0.011287
    54  H    0.043511
    55  H    0.018116
    56  H    0.018190
    57  H    0.005895
    58  H    0.026995
    59  H    0.039776
    60  H    0.037458
    61  H    0.035739
    62  H    0.031587
    63  H    0.016692
    64  H    0.009613
    65  H    0.023393
    66  H    0.012502
    67  H    0.004926
    68  H    0.006679
    69  H    0.005011
    70  H    0.008738
    71  H    0.018832
    72  H    0.028559
    73  H    0.047328
    74  H    0.009466
    75  H    0.046099
    76  H    0.035275
    77  H    0.042990
    78  H    0.046446
    79  H    0.052683
    80  Mg   0.837941
    81  C   -0.016783
    82  C   -0.087485
    83  C   -0.045786
    84  C   -0.064973
    85  N   -0.254671
    86  C   -0.049383
    87  C   -0.015216
    88  C   -0.090536
    89  C    0.045807
    90  C    0.114209
    91  C    0.062469
    92  C   -0.077870
    93  H    0.034318
    94  N   -0.423520
    95  C    0.162879
    96  C   -0.174505
    97  C   -0.008182
    98  C    0.152258
    99  C    0.099386
   100  C    0.015314
   101  O   -0.253693
   102  C    0.061284
   103  N   -0.350049
   104  C    0.037615
   105  C   -0.019787
   106  C   -0.034839
   107  C    0.088943
   108  C    0.073737
   109  C    0.034806
   110  C   -0.007611
   111  N   -0.324095
   112  C    0.078508
   113  C   -0.163268
   114  C    0.002283
   115  C    0.096181
   116  C    0.131490
   117  C    0.042276
   118  O   -0.188107
   119  C    0.001018
   120  C    0.211187
   121  O   -0.251272
   122  O   -0.305350
   123  C    0.152131
   124  H   -0.018875
   125  H   -0.016109
   126  H   -0.040698
   127  H    0.000007
   128  H   -0.004388
   129  H    0.023065
   130  H    0.014842
   131  H    0.018436
   132  H    0.013611
   133  H    0.037306
   134  H    0.021591
   135  H    0.019607
   136  H    0.009205
   137  H    0.025826
   138  H    0.039459
   139  H    0.038052
   140  H    0.035895
   141  H    0.033936
   142  H    0.014092
   143  H    0.012487
   144  H    0.024512
   145  H    0.011539
   146  H    0.005774
   147  H    0.005945
   148  H    0.003603
   149  H    0.010728
   150  H    0.017723
   151  H    0.030282
   152  H    0.045780
   153  H    0.008328
   154  H    0.046902
   155  H    0.035636
   156  H    0.043820
   157  H    0.049752
   158  H    0.053272
 Sum of Mulliken charges =  -0.00000

 Dipole moment (field-independent basis, Debye):
    X=             -4.6972    Y=              1.8082    Z=              5.6988  Tot=              7.6032
 Quadrupole moment (field-independent basis, Debye-Ang):
   XX=           -518.4296   YY=           -515.0602   ZZ=           -484.4794
   XY=            -26.5765   XZ=              6.1623   YZ=            -15.4429

 Normal termination of Gaussian 16 at Sat Sep  4 11:27:41 2021.
