 Gaussian 16, Revision A.03,
 Gaussian 16:  ES64L-G16RevA.03 25-Dec-2016

 -----------------------------------
 #p cam-b3lyp/Def2SVP td=(nstates=5)
 -----------------------------------

 --------------------------------
 TDDFT excited states in gaussian
 --------------------------------
 Symbolic Z-matrix:
 Charge =  0 Multiplicity = 1

                         Standard orientation:
 ---------------------------------------------------------------------
 Center     Atomic      Atomic             Coordinates (Angstroms)
 Number     Number       Type             X           Y           Z
 ---------------------------------------------------------------------
      1         12           0        3.653113    1.345318    0.462311
      2          6           0        4.855193   -1.344997   -1.569787
      3          6           0        3.810695    3.318028   -2.317374
      4          6           0        3.030896    3.834267    2.326339
      5          6           0        4.661512   -0.499287    3.241919
      6          7           0        4.268989    0.924134   -1.621903
      7          6           0        4.651769   -0.162662   -2.284871
      8          6           0        4.743772    0.053580   -3.825049
      9          6           0        4.953606    1.633947   -3.845271
     10          6           0        4.273313    1.986098   -2.534121
     11          6           0        6.417508    2.055231   -3.767737
     12          6           0        3.425847   -0.358843   -4.563096
     13          6           0        3.542077   -0.488046   -6.084658
     14          1           0        2.772987   -1.522050   -6.760444
     15          7           0        2.989689    3.150409    0.010242
     16          6           0        3.128309    3.790715   -1.175540
     17          6           0        2.466486    5.102699   -1.010101
     18          6           0        2.098265    5.248768    0.425577
     19          6           0        2.723014    4.079950    0.990317
     20          6           0        2.200547    6.039472   -2.148293
     21          6           0        1.317536    6.283842    1.172045
     22          8           0        1.312612    6.342143    2.449211
     23          6           0        0.620511    7.295304    0.357095
     24          7           0        4.017048    1.733922    2.480769
     25          6           0        3.592862    2.866028    3.052944
     26          6           0        3.712861    2.801120    4.546706
     27          6           0        4.083493    1.287504    4.895063
     28          6           0        4.198132    0.734729    3.452993
     29          6           0        4.752402    3.738872    5.175982
     30          6           0        3.159580    0.549899    5.896433
     31          6           0        1.794631    0.343311    5.278911
     32          7           0        4.429218   -0.649709    0.820880
     33          6           0        4.802227   -1.199959    2.055693
     34          6           0        5.368731   -2.533265    1.781035
     35          6           0        5.300710   -2.660061    0.394983
     36          6           0        4.752223   -1.470120   -0.163134
     37          6           0        5.913628   -3.422687    2.748739
     38          6           0        5.586560   -3.514145   -0.746370
     39          8           0        5.969279   -4.676800   -0.885122
     40          6           0        5.422497   -2.648963   -2.073159
     41          6           0        4.592879   -3.450574   -3.038799
     42          8           0        3.392399   -3.695018   -2.801183
     43          8           0        5.268214   -3.598447   -4.188842
     44          6           0        4.488748   -4.359896   -5.201158
     45          1           0        4.041599    4.084373   -3.059897
     46          1           0        2.729394    4.625183    3.016257
     47          1           0        4.918959   -1.166330    4.066678
     48          1           0        5.589547   -0.440422   -4.303641
     49          1           0        4.433195    2.102916   -4.680114
     50          1           0        7.068478    1.201260   -3.580940
     51          1           0        6.472989    2.764155   -2.941395
     52          1           0        6.708361    2.611113   -4.659464
     53          1           0        2.707943    0.458945   -4.500645
     54          1           0        3.027646   -1.287076   -4.151824
     55          1           0        4.584310   -0.517201   -6.403731
     56          1           0        3.145969    0.421708   -6.535929
     57          1           0        2.731525    5.735572   -3.049544
     58          1           0        2.644497    6.998428   -1.881796
     59          1           0        1.134007    6.167090   -2.334139
     60          1           0        1.348500    7.828654   -0.254558
     61          1           0        0.042638    7.898669    1.056281
     62          1           0       -0.050357    6.788304   -0.337049
     63          1           0        2.769045    3.057229    5.026336
     64          1           0        5.076744    1.200755    5.336198
     65          1           0        4.336750    4.414306    5.924131
     66          1           0        5.235066    4.294579    4.372542
     67          1           0        5.603930    3.235989    5.633614
     68          1           0        3.017811    1.150215    6.794469
     69          1           0        3.547089   -0.421285    6.204473
     70          1           0        1.294255    1.291659    5.471502
     71          1           0        1.274958   -0.479352    5.771229
     72          1           0        1.860984    0.223645    4.197355
     73          1           0        5.537028   -4.414266    2.497915
     74          1           0        5.625427   -3.133393    3.759111
     75          1           0        6.979984   -3.292162    2.565155
     76          1           0        6.426866   -2.463211   -2.452451
     77          1           0        5.102607   -5.206619   -5.508518
     78          1           0        4.194112   -3.643629   -5.968332
     79          1           0        3.597771   -4.872935   -4.837440
     80         12           0       -3.785185   -1.444537    0.560865
     81          6           0       -4.478935    0.896158   -2.069519
     82          6           0       -3.814248    1.198187    2.717188
     83          6           0       -2.733183   -3.405857    2.822271
     84          6           0       -2.695399   -3.666661   -1.892757
     85          7           0       -4.116048    0.719460    0.244817
     86          6           0       -4.432077    1.485110   -0.788749
     87          6           0       -4.792387    2.948886   -0.418468
     88          6           0       -3.999541    3.046660    0.974620
     89          6           0       -4.002713    1.569269    1.361870
     90          6           0       -2.556476    3.495641    0.815567
     91          6           0       -6.335152    3.151992   -0.216851
     92          6           0       -6.789347    4.612145   -0.158429
     93          1           0       -8.083953    4.962018   -0.736393
     94          7           0       -3.812468   -1.258809    2.536550
     95          6           0       -3.847394   -0.111039    3.245551
     96          6           0       -3.833065   -0.511868    4.660928
     97          6           0       -3.620536   -1.983193    4.729653
     98          6           0       -3.353875   -2.276404    3.335731
     99          6           0       -4.089730    0.452462    5.782370
    100          6           0       -3.639836   -2.962147    5.864328
    101          8           0       -3.193443   -4.156226    5.731100
    102          6           0       -4.110226   -2.453531    7.161061
    103          7           0       -2.654440   -3.188145    0.500904
    104          6           0       -2.382186   -3.874543    1.624590
    105          6           0       -1.797017   -5.230062    1.307513
    106          6           0       -1.957958   -5.408314   -0.273598
    107          6           0       -2.553360   -4.027137   -0.624660
    108          6           0       -0.332021   -5.429451    1.695361
    109          6           0       -2.700776   -6.680324   -0.766426
    110          6           0       -4.158093   -6.613084   -0.370079
    111          7           0       -3.777369   -1.495094   -1.599103
    112          6           0       -3.248600   -2.509813   -2.426654
    113          6           0       -3.373651   -2.042468   -3.822498
    114          6           0       -3.950006   -0.768429   -3.707911
    115          6           0       -4.150136   -0.454925   -2.336364
    116          6           0       -2.935898   -2.748316   -4.978467
    117          6           0       -4.424818    0.386916   -4.434841
    118          8           0       -4.587158    0.658820   -5.623732
    119          6           0       -4.671937    1.568265   -3.400548
    120          6           0       -6.019893    2.167926   -3.693727
    121          8           0       -7.057259    1.502180   -3.528653
    122          8           0       -5.877137    3.488184   -3.910292
    123          6           0       -7.188514    4.129546   -4.194525
    124          1           0       -3.576524    1.978647    3.440550
    125          1           0       -2.451433   -4.164002    3.556639
    126          1           0       -2.468671   -4.341986   -2.720522
    127          1           0       -4.422705    3.696525   -1.109958
    128          1           0       -4.552733    3.633105    1.703610
    129          1           0       -2.267081    3.561327   -0.222743
    130          1           0       -1.959175    2.753259    1.328559
    131          1           0       -2.393088    4.435786    1.350135
    132          1           0       -6.609469    2.829237    0.795728
    133          1           0       -6.890025    2.630922   -0.972642
    134          1           0       -6.011925    5.300114   -0.512354
    135          1           0       -6.935358    4.888518    0.888616
    136          1           0       -4.049271    1.492471    5.435767
    137          1           0       -3.248211    0.365099    6.478117
    138          1           0       -5.016028    0.237185    6.319305
    139          1           0       -3.485419   -1.618794    7.469740
    140          1           0       -4.136385   -3.321149    7.823199
    141          1           0       -5.124168   -2.057834    7.034699
    142          1           0       -2.349073   -6.016219    1.807785
    143          1           0       -0.982483   -5.467506   -0.778346
    144          1           0       -0.173145   -6.289108    2.373458
    145          1           0        0.028408   -4.515702    2.148893
    146          1           0        0.353514   -5.558554    0.859556
    147          1           0       -2.288743   -7.570205   -0.284244
    148          1           0       -2.630972   -6.833278   -1.838208
    149          1           0       -4.149772   -6.973518    0.662931
    150          1           0       -4.758809   -7.257971   -1.008283
    151          1           0       -4.514337   -5.576501   -0.354658
    152          1           0       -3.720092   -2.652081   -5.717574
    153          1           0       -2.727870   -3.791972   -4.751990
    154          1           0       -2.025930   -2.190296   -5.214766
    155          1           0       -3.865431    2.291014   -3.529936
    156          1           0       -7.091023    4.643795   -5.155632
    157          1           0       -7.413666    4.754075   -3.309644
    158          1           0       -8.033325    3.478801   -4.387578
 ---------------------------------------------------------------------

 SCF Done:  E(RCAM-B3LYP) =  -4069.81287362     A.U. after   19 cycles

 Excitation energies and oscillator strengths:

 Excited State   1:      Singlet-A      1.6652 eV  744.54 nm  f=0.2734  <S**2>=0.000
     310 -> 316       -0.14571
     311 -> 313        0.36274
     312 -> 314        0.58253
 This state for optimization and/or second-order correction.
 Total Energy, E(TD-HF/TD-DFT) =  -4069.75167734
 Copying the excited state density for this state as the 1-particle RhoCI density.

 Excited State   2:      Singlet-A      1.6740 eV  740.64 nm  f=0.3723  <S**2>=0.000
     309 -> 315       -0.14696
     311 -> 313        0.58157
     312 -> 314       -0.36215

 Excited State   3:      Singlet-A      2.1818 eV  568.27 nm  f=0.0928  <S**2>=0.000
     309 -> 313        0.21483
     310 -> 314        0.60648
     312 -> 316        0.25423

 Excited State   4:      Singlet-A      2.1907 eV  565.95 nm  f=0.1039  <S**2>=0.000
     309 -> 313        0.60392
     310 -> 314       -0.21341
     311 -> 315        0.26045

 Excited State   5:      Singlet-A      2.2291 eV  556.20 nm  f=0.0000  <S**2>=0.000
     312 -> 313        0.70693

 The electronic state is 1-A.
 Alpha  occ. eigenvalues --  -46.87940 -46.87407 -19.26453 -19.26316 -19.19217
 Alpha  occ. eigenvalues --  -19.19090 -19.19081 -19.18529 -19.18339 -19.17916
 Alpha  occ. eigenvalues --  -14.42581 -14.42254 -14.41597 -14.41062 -14.39559
 Alpha  occ. eigenvalues --  -14.39110 -14.38732 -14.38356 -10.39268 -10.39016
 Alpha  occ. eigenvalues --  -10.35715 -10.35211 -10.34556 -10.34096 -10.31836
 Alpha  occ. eigenvalues --  -10.31756 -10.31522 -10.31076 -10.31047 -10.30813
 Alpha  occ. eigenvalues --  -10.30707 -10.30674 -10.30364 -10.30149 -10.30122
 Alpha  occ. eigenvalues --  -10.30077 -10.29803 -10.29795 -10.29580 -10.29413
 Alpha  occ. eigenvalues --  -10.29176 -10.29173 -10.28830 -10.28578 -10.28569
 Alpha  occ. eigenvalues --  -10.28533 -10.28521 -10.28193 -10.28189 -10.27951
 Alpha  occ. eigenvalues --  -10.27938 -10.27854 -10.27784 -10.27761 -10.27654
 Alpha  occ. eigenvalues --  -10.27626 -10.27619 -10.27551 -10.27411 -10.27316
 Alpha  occ. eigenvalues --  -10.27270 -10.27258 -10.27246 -10.27003 -10.26936
 Alpha  occ. eigenvalues --  -10.26904 -10.26747 -10.26707 -10.26570 -10.26325
 Alpha  occ. eigenvalues --  -10.26305 -10.26280 -10.26159 -10.25968 -10.25799
 Alpha  occ. eigenvalues --  -10.25711 -10.25641 -10.25611 -10.25604 -10.24992
 Alpha  occ. eigenvalues --  -10.24955 -10.24827 -10.24748 -10.24665 -10.24417
 Alpha  occ. eigenvalues --  -10.24385  -3.16682  -3.16158  -1.91563  -1.91150
 Alpha  occ. eigenvalues --   -1.91040  -1.90993  -1.90628  -1.90466  -1.16805
 Alpha  occ. eigenvalues --   -1.16601  -1.08798  -1.08537  -1.07489  -1.06878
 Alpha  occ. eigenvalues --   -1.06834  -1.06785  -1.04715  -1.04263  -1.03909
 Alpha  occ. eigenvalues --   -1.03407  -1.03388  -1.02759  -1.02562  -1.01848
 Alpha  occ. eigenvalues --   -0.92122  -0.91781  -0.89671  -0.89272  -0.89174
 Alpha  occ. eigenvalues --   -0.88951  -0.88443  -0.88013  -0.87843  -0.87798
 Alpha  occ. eigenvalues --   -0.87571  -0.87459  -0.87422  -0.86915  -0.85090
 Alpha  occ. eigenvalues --   -0.84797  -0.84093  -0.83517  -0.83183  -0.82784
 Alpha  occ. eigenvalues --   -0.82702  -0.82446  -0.81733  -0.81441  -0.80751
 Alpha  occ. eigenvalues --   -0.80252  -0.78958  -0.78416  -0.77351  -0.77047
 Alpha  occ. eigenvalues --   -0.76925  -0.76660  -0.76045  -0.75648  -0.75049
 Alpha  occ. eigenvalues --   -0.74426  -0.72917  -0.72447  -0.71811  -0.71296
 Alpha  occ. eigenvalues --   -0.70054  -0.69368  -0.68997  -0.68627  -0.67806
 Alpha  occ. eigenvalues --   -0.67372  -0.67331  -0.67035  -0.65395  -0.65090
 Alpha  occ. eigenvalues --   -0.65000  -0.64758  -0.64542  -0.64436  -0.64421
 Alpha  occ. eigenvalues --   -0.63859  -0.62456  -0.62108  -0.60620  -0.60090
 Alpha  occ. eigenvalues --   -0.59913  -0.59598  -0.59135  -0.58736  -0.58657
 Alpha  occ. eigenvalues --   -0.58191  -0.57745  -0.57477  -0.57417  -0.56964
 Alpha  occ. eigenvalues --   -0.56463  -0.56126  -0.56000  -0.55745  -0.55695
 Alpha  occ. eigenvalues --   -0.55498  -0.55289  -0.54966  -0.54684  -0.54198
 Alpha  occ. eigenvalues --   -0.53988  -0.53728  -0.53473  -0.53366  -0.53079
 Alpha  occ. eigenvalues --   -0.53002  -0.52945  -0.52914  -0.52715  -0.52592
 Alpha  occ. eigenvalues --   -0.52492  -0.52057  -0.52042  -0.51741  -0.51672
 Alpha  occ. eigenvalues --   -0.51492  -0.51338  -0.50986  -0.50771  -0.50271
 Alpha  occ. eigenvalues --   -0.50179  -0.50100  -0.49773  -0.49662  -0.49498
 Alpha  occ. eigenvalues --   -0.49373  -0.49295  -0.49206  -0.49023  -0.48915
 Alpha  occ. eigenvalues --   -0.48735  -0.48659  -0.48615  -0.48381  -0.48165
 Alpha  occ. eigenvalues --   -0.48008  -0.47840  -0.47453  -0.47363  -0.46931
 Alpha  occ. eigenvalues --   -0.46853  -0.46659  -0.46509  -0.46458  -0.46320
 Alpha  occ. eigenvalues --   -0.46313  -0.46021  -0.45959  -0.45791  -0.45630
 Alpha  occ. eigenvalues --   -0.45357  -0.44832  -0.44734  -0.44663  -0.44328
 Alpha  occ. eigenvalues --   -0.44301  -0.44254  -0.44196  -0.44179  -0.43937
 Alpha  occ. eigenvalues --   -0.43809  -0.43769  -0.43647  -0.43510  -0.43391
 Alpha  occ. eigenvalues --   -0.43171  -0.43145  -0.42867  -0.42812  -0.42811
 Alpha  occ. eigenvalues --   -0.42649  -0.42227  -0.42144  -0.41858  -0.41695
 Alpha  occ. eigenvalues --   -0.41634  -0.41447  -0.41277  -0.41230  -0.41054
 Alpha  occ. eigenvalues --   -0.40967  -0.40734  -0.40712  -0.40548  -0.40478
 Alpha  occ. eigenvalues --   -0.40301  -0.40128  -0.40088  -0.39591  -0.39034
 Alpha  occ. eigenvalues --   -0.38609  -0.37994  -0.37837  -0.37478  -0.37466
 Alpha  occ. eigenvalues --   -0.37371  -0.37012  -0.36924  -0.36882  -0.36643
 Alpha  occ. eigenvalues --   -0.36345  -0.35913  -0.34431  -0.34008  -0.33963
 Alpha  occ. eigenvalues --   -0.33755  -0.33340  -0.32916  -0.31604  -0.31188
 Alpha  occ. eigenvalues --   -0.31083  -0.30726  -0.30196  -0.29825  -0.29625
 Alpha  occ. eigenvalues --   -0.29479  -0.29113  -0.28998  -0.24226  -0.23778
 Alpha  occ. eigenvalues --   -0.21275  -0.20859
 Alpha virt. eigenvalues --   -0.08934  -0.08555  -0.01909  -0.01413  -0.00251
 Alpha virt. eigenvalues --    0.00166   0.02027   0.02332   0.02549   0.03596
 Alpha virt. eigenvalues --    0.04606   0.04918   0.04987   0.05254   0.06082

 Mulliken charges:
               1
     1  Mg   0.838997
     2  C   -0.002856
     3  C   -0.092981
     4  C   -0.047008
     5  C   -0.063491
     6  N   -0.256854
     7  C   -0.051835
     8  C   -0.014236
     9  C   -0.087229
    10  C    0.046473
    11  C    0.104693
    12  C    0.053054
    13  C   -0.072422
    14  H    0.036546
    15  N   -0.433147
    16  C    0.168270
    17  C   -0.177279
    18  C   -0.004847
    19  C    0.148627
    20  C    0.109994
    21  C    0.010789
    22  O   -0.251427
    23  C    0.062525
    24  N   -0.341209
    25  C    0.041775
    26  C   -0.027912
    27  C   -0.023963
    28  C    0.075034
    29  C    0.076197
    30  C    0.035117
    31  C   -0.004690
    32  N   -0.310579
    33  C    0.080749
    34  C   -0.169668
    35  C    0.007902
    36  C    0.083051
    37  C    0.127433
    38  C    0.045355
    39  O   -0.188542
    40  C   -0.005178
    41  C    0.213198
    42  O   -0.258905
    43  O   -0.304221
    44  C    0.158016
    45  H   -0.016975
    46  H   -0.017870
    47  H   -0.040923
    48  H    0.001041
    49  H   -0.002850
    50  H    0.025417
    51  H    0.016267
    52  H    0.017289
    53  H    0.012757
    54  H    0.043129
    55  H    0.017724
    56  H    0.019874
    57  H    0.007193
    58  H    0.026910
    59  H    0.039376
    60  H    0.038804
    61  H    0.034123
    62  H    0.030306
    63  H    0.014824
    64  H    0.009828
    65  H    0.022611
    66  H    0.012853
    67  H    0.005207
    68  H    0.005394
    69  H    0.006081
    70  H    0.004775
    71  H    0.021190
    72  H    0.030207
    73  H    0.047333
    74  H    0.009977
    75  H    0.046308
    76  H    0.035713
    77  H    0.043324
    78  H    0.047460
    79  H    0.051956
    80  Mg   0.837093
    81  C   -0.017571
    82  C   -0.088748
    83  C   -0.045742
    84  C   -0.059314
    85  N   -0.254800
    86  C   -0.050205
    87  C   -0.014834
    88  C   -0.090757
    89  C    0.044983
    90  C    0.112235
    91  C    0.062729
    92  C   -0.077329
    93  H    0.034072
    94  N   -0.423548
    95  C    0.162850
    96  C   -0.174657
    97  C   -0.008410
    98  C    0.152371
    99  C    0.099446
   100  C    0.014624
   101  O   -0.253303
   102  C    0.061476
   103  N   -0.350313
   104  C    0.038842
   105  C   -0.021060
   106  C   -0.036225
   107  C    0.089222
   108  C    0.070898
   109  C    0.034380
   110  C   -0.007399
   111  N   -0.324184
   112  C    0.077666
   113  C   -0.162592
   114  C    0.001072
   115  C    0.096588
   116  C    0.132229
   117  C    0.041436
   118  O   -0.190066
   119  C    0.001238
   120  C    0.211227
   121  O   -0.250769
   122  O   -0.306428
   123  C    0.152102
   124  H   -0.018157
   125  H   -0.015571
   126  H   -0.038679
   127  H   -0.003387
   128  H   -0.004140
   129  H    0.018988
   130  H    0.017387
   131  H    0.020186
   132  H    0.014274
   133  H    0.037385
   134  H    0.019335
   135  H    0.020070
   136  H    0.009437
   137  H    0.025173
   138  H    0.039136
   139  H    0.037263
   140  H    0.035806
   141  H    0.033941
   142  H    0.013011
   143  H    0.022002
   144  H    0.022886
   145  H    0.011074
   146  H    0.016928
   147  H    0.006797
   148  H    0.003565
   149  H    0.010377
   150  H    0.016693
   151  H    0.029054
   152  H    0.044529
   153  H    0.009339
   154  H    0.046474
   155  H    0.032361
   156  H    0.042843
   157  H    0.049422
   158  H    0.053722
 Sum of Mulliken charges =  -0.00000

 Dipole moment (field-independent basis, Debye):
    X=              2.3749    Y=              5.8138    Z=              1.0951  Tot=              6.3750
 Quadrupole moment (field-independent basis, Debye-Ang):
   XX=           -521.8542   YY=           -505.5383   ZZ=           -492.7224
   XY=              1.5958   XZ=            -29.9737   YZ=              1.1477

 Normal termination of Gaussian 16 at Fri Sep  3 15:31:23 2021.
