 Gaussian 16, Revision A.03,
 Gaussian 16:  ES64L-G16RevA.03 25-Dec-2016

 -----------------------------------
 #p cam-b3lyp/Def2SVP td=(nstates=5)
 -----------------------------------

 --------------------------------
 TDDFT excited states in gaussian
 --------------------------------
 Symbolic Z-matrix:
 Charge =  0 Multiplicity = 1

                         Standard orientation:
 ---------------------------------------------------------------------
 Center     Atomic      Atomic             Coordinates (Angstroms)
 Number     Number       Type             X           Y           Z
 ---------------------------------------------------------------------
      1         12           0       -3.656237    0.787250    0.442067
      2          6           0       -4.059994   -2.490753    1.821883
      3          6           0       -4.155636    2.011002    3.587873
      4          6           0       -3.756220    3.693929   -0.821989
      5          6           0       -4.317155   -0.607225   -2.682719
      6          7           0       -4.046453   -0.213451    2.377778
      7          6           0       -4.117795   -1.477906    2.781802
      8          6           0       -4.183975   -1.628665    4.331081
      9          6           0       -4.773781   -0.193740    4.698662
     10          6           0       -4.266149    0.591336    3.502047
     11          6           0       -6.298284   -0.145509    4.706889
     12          6           0       -2.770414   -1.847363    4.968066
     13          6           0       -2.776235   -2.326248    6.422710
     14          1           0       -1.744659   -3.255534    6.858170
     15          7           0       -3.434389    2.559663    1.285978
     16          6           0       -3.667193    2.873896    2.583031
     17          6           0       -3.356389    4.313503    2.715746
     18          6           0       -3.106494    4.852829    1.350179
     19          6           0       -3.452521    3.714968    0.537213
     20          6           0       -3.272568    5.019023    4.034444
     21          6           0       -2.641289    6.185987    0.855804
     22          8           0       -2.713792    6.517445   -0.376857
     23          6           0       -2.174350    7.139478    1.878479
     24          7           0       -4.203437    1.497964   -1.442898
     25          6           0       -4.098643    2.795982   -1.748102
     26          6           0       -4.272554    3.026564   -3.220014
     27          6           0       -4.277303    1.580169   -3.896529
     28          6           0       -4.181608    0.718985   -2.612989
     29          6           0       -5.540077    3.787330   -3.633089
     30          6           0       -3.251222    1.330768   -5.030273
     31          6           0       -1.848564    1.344095   -4.465056
     32          7           0       -3.935983   -1.212780   -0.353336
     33          6           0       -4.223042   -1.559408   -1.681538
     34          6           0       -4.430945   -3.018835   -1.711845
     35          6           0       -4.265647   -3.420165   -0.387664
     36          6           0       -3.998964   -2.280012    0.423029
     37          6           0       -4.788060   -3.786164   -2.855570
     38          6           0       -4.276636   -4.543791    0.534942
     39          8           0       -4.355158   -5.766883    0.410956
     40          6           0       -4.264592   -3.971966    2.021111
     41          6           0       -3.217124   -4.729206    2.790985
     42          8           0       -2.006581   -4.608489    2.512813
     43          8           0       -3.778007   -5.285501    3.875645
     44          6           0       -2.786646   -6.027431    4.699598
     45          1           0       -4.530560    2.516637    4.479897
     46          1           0       -3.692325    4.664571   -1.318185
     47          1           0       -4.443462   -1.123548   -3.636086
     48          1           0       -4.858082   -2.409634    4.683346
     49          1           0       -4.343792    0.199214    5.619759
     50          1           0       -6.728292   -1.074170    4.331918
     51          1           0       -6.566633    0.687847    4.057275
     52          1           0       -6.672271    0.114319    5.697546
     53          1           0       -2.279015   -0.882410    5.092382
     54          1           0       -2.177472   -2.535343    4.364385
     55          1           0       -3.762439   -2.683197    6.720870
     56          1           0       -2.593627   -1.465663    7.066330
     57          1           0       -3.667680    4.405162    4.842903
     58          1           0       -3.950757    5.870601    3.983619
     59          1           0       -2.262088    5.366197    4.250623
     60          1           0       -2.979852    7.329052    2.588252
     61          1           0       -1.797326    8.004206    1.333550
     62          1           0       -1.366233    6.679127    2.447665
     63          1           0       -3.445223    3.607723   -3.625236
     64          1           0       -5.239437    1.344910   -4.352190
     65          1           0       -5.340207    4.690062   -4.210871
     66          1           0       -6.104085    4.018042   -2.729785
     67          1           0       -6.263736    3.198269   -4.195888
     68          1           0       -3.305489    2.126388   -5.772560
     69          1           0       -3.403376    0.383485   -5.547723
     70          1           0       -1.606215    2.405924   -4.440185
     71          1           0       -1.167904    0.803612   -5.123684
     72          1           0       -1.830128    0.981497   -3.437112
     73          1           0       -4.167850   -4.682004   -2.827664
     74          1           0       -4.629802   -3.223300   -3.775212
     75          1           0       -5.843467   -3.969224   -2.654419
     76          1           0       -5.263880   -4.129561    2.425723
     77          1           0       -3.158137   -7.046446    4.808395
     78          1           0       -2.639245   -5.442934    5.607915
     79          1           0       -1.816097   -6.210490    4.237144
     80         12           0        4.207713    0.032954   -0.219241
     81          6           0        2.277559   -1.259524   -2.954759
     82          6           0        3.481726    3.157617   -1.378557
     83          6           0        6.261925    1.190049    1.904143
     84          6           0        5.691757   -3.109916    0.037041
     85          7           0        3.022366    0.729986   -1.951680
     86          6           0        2.284021    0.149229   -2.885453
     87          6           0        1.445395    1.132018   -3.745916
     88          6           0        2.337453    2.451668   -3.541891
     89          6           0        2.963930    2.116590   -2.189883
     90          6           0        3.453132    2.587969   -4.564641
     91          6           0       -0.006842    1.327978   -3.184991
     92          6           0       -0.976155    2.027866   -4.140157
     93          1           0       -2.375988    1.612002   -4.139409
     94          7           0        4.406643    1.869261    0.506681
     95          6           0        4.037000    3.023446   -0.087042
     96          6           0        4.416826    4.095489    0.846019
     97          6           0        5.189590    3.491308    1.965184
     98          6           0        5.337096    2.133467    1.480828
     99          6           0        3.978073    5.520305    0.670497
    100          6           0        5.720426    4.047263    3.251781
    101          8           0        6.568543    3.402821    3.964691
    102          6           0        5.289677    5.407761    3.605297
    103          7           0        5.902064   -0.765065    0.683347
    104          6           0        6.583407   -0.070149    1.611130
    105          6           0        7.592738   -0.944941    2.315670
    106          6           0        7.278679   -2.437130    1.833665
    107          6           0        6.150153   -2.143681    0.820896
    108          6           0        9.060967   -0.620200    2.041361
    109          6           0        7.021008   -3.494997    2.941455
    110          6           0        5.728207   -3.184497    3.660931
    111          7           0        3.911233   -1.905691   -1.125775
    112          6           0        4.661045   -3.079552   -0.893603
    113          6           0        4.157660   -4.109200   -1.825733
    114          6           0        3.157569   -3.450987   -2.557219
    115          6           0        3.059410   -2.100377   -2.126263
    116          6           0        4.656060   -5.437021   -1.946568
    117          6           0        2.169878   -3.588659   -3.603263
    118          8           0        1.739130   -4.526324   -4.273322
    119          6           0        1.642838   -2.141012   -3.994335
    120          6           0        0.140468   -2.192214   -4.046964
    121          8           0       -0.521304   -2.402688   -3.015284
    122          8           0       -0.272693   -1.770998   -5.256207
    123          6           0       -1.756566   -1.793313   -5.353320
    124          1           0        3.504402    4.169326   -1.784541
    125          1           0        6.921415    1.507181    2.715305
    126          1           0        6.035431   -4.143034    0.122081
    127          1           0        1.389157    0.880240   -4.798160
    128          1           0        1.716315    3.340253   -3.464580
    129          1           0        3.535701    1.711472   -5.189994
    130          1           0        4.360531    2.731555   -3.992749
    131          1           0        3.318137    3.501874   -5.150205
    132          1           0        0.019868    2.064366   -2.371502
    133          1           0       -0.423282    0.390967   -2.870027
    134          1           0       -0.587789    2.068218   -5.165087
    135          1           0       -1.059267    3.076263   -3.843567
    136          1           0        3.560775    5.692443   -0.329318
    137          1           0        4.881698    6.138827    0.697852
    138          1           0        3.298786    5.851993    1.458677
    139          1           0        5.581546    6.095687    2.815345
    140          1           0        5.700522    5.595367    4.599223
    141          1           0        4.195083    5.427348    3.651146
    142          1           0        7.469311   -0.889460    3.390279
    143          1           0        8.113693   -2.863878    1.258800
    144          1           0        9.639481   -0.405657    2.959703
    145          1           0        9.103366    0.219436    1.360369
    146          1           0        9.609661   -1.386986    1.497147
    147          1           0        7.812275   -3.455619    3.694121
    148          1           0        6.983327   -4.512423    2.566741
    149          1           0        6.029748   -2.433334    4.397091
    150          1           0        5.335537   -4.076326    4.145152
    151          1           0        5.005414   -2.712414    2.985374
    152          1           0        3.794675   -6.087093   -2.023566
    153          1           0        5.282893   -5.705112   -1.098655
    154          1           0        5.232895   -5.345475   -2.870772
    155          1           0        2.077813   -1.884088   -4.960967
    156          1           0       -2.010555   -2.404842   -6.224647
    157          1           0       -2.070620   -0.732793   -5.373423
    158          1           0       -2.302505   -2.305050   -4.569398
 ---------------------------------------------------------------------

 SCF Done:  E(RCAM-B3LYP) =  -4068.57250851     A.U. after   30 cycles

 Excitation energies and oscillator strengths:

 Excited State   1:      Singlet-A      0.2818 eV 4399.63 nm  f=0.0627  <S**2>=0.000
     312 -> 313        0.72944
     312 -> 314       -0.12945
     312 <- 313       -0.20709
 This state for optimization and/or second-order correction.
 Total Energy, E(TD-HF/TD-DFT) =  -4068.56215234
 Copying the excited state density for this state as the 1-particle RhoCI density.

 Excited State   2:      Singlet-A      0.5463 eV 2269.72 nm  f=0.0666  <S**2>=0.000
     312 -> 314        0.81675
     312 <- 314       -0.43897

 Excited State   3:      Singlet-A      1.2369 eV 1002.34 nm  f=0.0101  <S**2>=0.000
     312 -> 316        0.47884
     312 -> 318        0.46964
     312 -> 321       -0.11492

 Excited State   4:      Singlet-A      1.6113 eV  769.48 nm  f=0.0377  <S**2>=0.000
     311 -> 313        0.11750
     311 -> 314       -0.36782
     312 -> 316       -0.34316
     312 -> 318        0.39010
     312 -> 319        0.15580

 Excited State   5:      Singlet-A      1.6713 eV  741.85 nm  f=0.1344  <S**2>=0.000
     308 -> 315        0.15576
     310 -> 313        0.62261
     311 -> 314        0.19704
     312 -> 316       -0.10893
     312 -> 318        0.13450

 The electronic state is 1-A.
 Alpha  occ. eigenvalues --  -46.87679 -46.86153 -19.27432 -19.24875 -19.19994
 Alpha  occ. eigenvalues --  -19.18516 -19.18104 -19.17446 -19.17237 -19.16235
 Alpha  occ. eigenvalues --  -14.42688 -14.41149 -14.40292 -14.39561 -14.39318
 Alpha  occ. eigenvalues --  -14.38662 -14.37595 -14.36946 -10.39852 -10.37742
 Alpha  occ. eigenvalues --  -10.37484 -10.37315 -10.36940 -10.35204 -10.34352
 Alpha  occ. eigenvalues --  -10.33913 -10.32997 -10.32633 -10.32513 -10.31775
 Alpha  occ. eigenvalues --  -10.31742 -10.31704 -10.31242 -10.30689 -10.30513
 Alpha  occ. eigenvalues --  -10.30503 -10.30304 -10.30286 -10.30060 -10.29808
 Alpha  occ. eigenvalues --  -10.29681 -10.29367 -10.29198 -10.29160 -10.29145
 Alpha  occ. eigenvalues --  -10.29039 -10.28472 -10.28364 -10.27966 -10.27961
 Alpha  occ. eigenvalues --  -10.27890 -10.27835 -10.27526 -10.27482 -10.27380
 Alpha  occ. eigenvalues --  -10.27374 -10.27362 -10.27336 -10.27264 -10.27252
 Alpha  occ. eigenvalues --  -10.27100 -10.27068 -10.26596 -10.26506 -10.26324
 Alpha  occ. eigenvalues --  -10.26278 -10.26230 -10.26163 -10.25940 -10.25768
 Alpha  occ. eigenvalues --  -10.25635 -10.25501 -10.25332 -10.25309 -10.25278
 Alpha  occ. eigenvalues --  -10.25268 -10.25153 -10.25053 -10.24951 -10.24848
 Alpha  occ. eigenvalues --  -10.24717 -10.24662 -10.24519 -10.24458 -10.23529
 Alpha  occ. eigenvalues --  -10.22825  -3.16425  -3.14904  -1.91306  -1.90897
 Alpha  occ. eigenvalues --   -1.90732  -1.89793  -1.89368  -1.89210  -1.29935
 Alpha  occ. eigenvalues --   -1.17662  -1.15187  -1.08806  -1.07728  -1.06780
 Alpha  occ. eigenvalues --   -1.06775  -1.05766  -1.05081  -1.04994  -1.04108
 Alpha  occ. eigenvalues --   -1.03683  -1.02979  -1.02273  -1.02109  -1.01424
 Alpha  occ. eigenvalues --   -1.01180  -1.00570  -0.92518  -0.92270  -0.90353
 Alpha  occ. eigenvalues --   -0.89432  -0.89195  -0.88904  -0.88210  -0.88078
 Alpha  occ. eigenvalues --   -0.87667  -0.87417  -0.87032  -0.86923  -0.86464
 Alpha  occ. eigenvalues --   -0.85843  -0.85245  -0.84304  -0.83975  -0.83654
 Alpha  occ. eigenvalues --   -0.83439  -0.82972  -0.82727  -0.81878  -0.81717
 Alpha  occ. eigenvalues --   -0.81153  -0.80799  -0.80283  -0.79331  -0.78602
 Alpha  occ. eigenvalues --   -0.78435  -0.77229  -0.77050  -0.76772  -0.76159
 Alpha  occ. eigenvalues --   -0.75474  -0.74879  -0.74664  -0.74294  -0.72794
 Alpha  occ. eigenvalues --   -0.71964  -0.71575  -0.70700  -0.69672  -0.69338
 Alpha  occ. eigenvalues --   -0.68781  -0.67580  -0.67487  -0.66623  -0.66416
 Alpha  occ. eigenvalues --   -0.65705  -0.65493  -0.65326  -0.64824  -0.64592
 Alpha  occ. eigenvalues --   -0.64145  -0.63558  -0.63335  -0.62944  -0.62744
 Alpha  occ. eigenvalues --   -0.61871  -0.60904  -0.60269  -0.60222  -0.59354
 Alpha  occ. eigenvalues --   -0.58695  -0.58618  -0.58153  -0.57875  -0.57704
 Alpha  occ. eigenvalues --   -0.57315  -0.57215  -0.56724  -0.56345  -0.56176
 Alpha  occ. eigenvalues --   -0.56106  -0.55874  -0.55655  -0.55471  -0.54949
 Alpha  occ. eigenvalues --   -0.54813  -0.54646  -0.54600  -0.53988  -0.53935
 Alpha  occ. eigenvalues --   -0.53529  -0.53482  -0.53116  -0.52876  -0.52700
 Alpha  occ. eigenvalues --   -0.52391  -0.52240  -0.52174  -0.51857  -0.51778
 Alpha  occ. eigenvalues --   -0.51675  -0.51448  -0.51238  -0.51179  -0.50849
 Alpha  occ. eigenvalues --   -0.50709  -0.50315  -0.50034  -0.49903  -0.49760
 Alpha  occ. eigenvalues --   -0.49568  -0.49454  -0.49365  -0.49223  -0.48879
 Alpha  occ. eigenvalues --   -0.48803  -0.48419  -0.48371  -0.48253  -0.48030
 Alpha  occ. eigenvalues --   -0.47835  -0.47751  -0.47579  -0.47491  -0.47202
 Alpha  occ. eigenvalues --   -0.47101  -0.46949  -0.46872  -0.46697  -0.46545
 Alpha  occ. eigenvalues --   -0.46447  -0.46209  -0.46112  -0.45939  -0.45565
 Alpha  occ. eigenvalues --   -0.45370  -0.45234  -0.45004  -0.44944  -0.44813
 Alpha  occ. eigenvalues --   -0.44721  -0.44631  -0.44360  -0.44256  -0.44055
 Alpha  occ. eigenvalues --   -0.43902  -0.43796  -0.43693  -0.43379  -0.43266
 Alpha  occ. eigenvalues --   -0.43048  -0.42912  -0.42811  -0.42566  -0.42437
 Alpha  occ. eigenvalues --   -0.42426  -0.42179  -0.42159  -0.41884  -0.41861
 Alpha  occ. eigenvalues --   -0.41615  -0.41350  -0.41300  -0.41274  -0.41130
 Alpha  occ. eigenvalues --   -0.40928  -0.40638  -0.40476  -0.40418  -0.40115
 Alpha  occ. eigenvalues --   -0.39962  -0.39738  -0.39454  -0.39290  -0.39084
 Alpha  occ. eigenvalues --   -0.38747  -0.38494  -0.37685  -0.37426  -0.37333
 Alpha  occ. eigenvalues --   -0.36840  -0.36467  -0.36403  -0.36061  -0.35388
 Alpha  occ. eigenvalues --   -0.35009  -0.34569  -0.34324  -0.33250  -0.32733
 Alpha  occ. eigenvalues --   -0.32200  -0.31754  -0.31291  -0.31052  -0.30076
 Alpha  occ. eigenvalues --   -0.29991  -0.29791  -0.29230  -0.29144  -0.28190
 Alpha  occ. eigenvalues --   -0.27684  -0.27347  -0.24228  -0.22947  -0.21377
 Alpha  occ. eigenvalues --   -0.20331  -0.14044
 Alpha virt. eigenvalues --   -0.09080  -0.07781  -0.01897  -0.00992  -0.00209
 Alpha virt. eigenvalues --    0.00224   0.01590   0.02019   0.02082   0.02850
 Alpha virt. eigenvalues --    0.03148   0.03520   0.04092   0.04601   0.05366

 Mulliken charges:
               1
     1  Mg   0.811270
     2  C   -0.019689
     3  C   -0.108920
     4  C   -0.070117
     5  C   -0.049440
     6  N   -0.273439
     7  C   -0.045370
     8  C   -0.015018
     9  C   -0.086000
    10  C    0.051632
    11  C    0.107451
    12  C    0.054926
    13  C   -0.068724
    14  H    0.029904
    15  N   -0.428721
    16  C    0.163428
    17  C   -0.192918
    18  C   -0.010698
    19  C    0.139066
    20  C    0.113754
    21  C   -0.000887
    22  O   -0.274910
    23  C    0.067048
    24  N   -0.337008
    25  C    0.039524
    26  C   -0.033797
    27  C   -0.032686
    28  C    0.033798
    29  C    0.089846
    30  C    0.149592
    31  C    0.887604
    32  N   -0.311906
    33  C    0.077781
    34  C   -0.158018
    35  C    0.000072
    36  C    0.091434
    37  C    0.128806
    38  C    0.042827
    39  O   -0.198064
    40  C   -0.002663
    41  C    0.211244
    42  O   -0.258234
    43  O   -0.305677
    44  C    0.159443
    45  H   -0.027929
    46  H   -0.038158
    47  H   -0.071545
    48  H   -0.003066
    49  H   -0.008680
    50  H    0.020971
    51  H    0.014875
    52  H    0.010675
    53  H    0.009923
    54  H    0.042933
    55  H    0.016130
    56  H    0.015904
    57  H    0.000365
    58  H    0.015599
    59  H    0.026345
    60  H    0.037374
    61  H    0.023703
    62  H    0.026281
    63  H   -0.010091
    64  H    0.031592
    65  H    0.022542
    66  H    0.031783
    67  H    0.006163
    68  H    0.047750
    69  H    0.013628
    70  H   -0.284875
    71  H   -0.178690
    72  H    0.011441
    73  H    0.052327
    74  H   -0.011223
    75  H    0.041815
    76  H    0.028944
    77  H    0.039095
    78  H    0.044456
    79  H    0.051147
    80  Mg   0.839261
    81  C   -0.016788
    82  C   -0.089624
    83  C   -0.046593
    84  C   -0.064913
    85  N   -0.252671
    86  C   -0.056612
    87  C    0.011366
    88  C   -0.096499
    89  C    0.037413
    90  C    0.118295
    91  C    0.108712
    92  C    0.293999
    93  H   -0.683652
    94  N   -0.423383
    95  C    0.162028
    96  C   -0.176046
    97  C   -0.008298
    98  C    0.152743
    99  C    0.100170
   100  C    0.015145
   101  O   -0.254224
   102  C    0.061261
   103  N   -0.352983
   104  C    0.039164
   105  C   -0.019833
   106  C   -0.035354
   107  C    0.091023
   108  C    0.073884
   109  C    0.034670
   110  C   -0.007822
   111  N   -0.323429
   112  C    0.079837
   113  C   -0.160994
   114  C    0.004413
   115  C    0.097742
   116  C    0.130814
   117  C    0.046767
   118  O   -0.187258
   119  C    0.003036
   120  C    0.197844
   121  O   -0.236963
   122  O   -0.300063
   123  C    0.185436
   124  H   -0.021567
   125  H   -0.015777
   126  H   -0.039707
   127  H    0.002567
   128  H   -0.015833
   129  H    0.025015
   130  H    0.022042
   131  H    0.015874
   132  H    0.036994
   133  H    0.096073
   134  H   -0.083725
   135  H    0.102036
   136  H    0.006866
   137  H    0.025096
   138  H    0.040083
   139  H    0.037561
   140  H    0.035851
   141  H    0.033691
   142  H    0.014983
   143  H    0.012149
   144  H    0.025093
   145  H    0.010981
   146  H    0.005321
   147  H    0.005663
   148  H    0.004184
   149  H    0.010167
   150  H    0.019386
   151  H    0.032239
   152  H    0.049094
   153  H    0.009265
   154  H    0.044914
   155  H    0.034106
   156  H    0.045553
   157  H    0.006586
   158  H    0.059108
 Sum of Mulliken charges =  -0.00000

 Dipole moment (field-independent basis, Debye):
    X=              0.9739    Y=              8.2420    Z=             -5.8561  Tot=             10.1574
 Quadrupole moment (field-independent basis, Debye-Ang):
   XX=           -509.4918   YY=           -547.2115   ZZ=           -456.5100
   XY=            -25.6811   XZ=             11.3645   YZ=            -41.0365

 Normal termination of Gaussian 16 at Wed Sep  8 21:53:40 2021.
