 Gaussian 16, Revision A.03,
 Gaussian 16:  ES64L-G16RevA.03 25-Dec-2016

 -----------------------------------
 #p cam-b3lyp/Def2SVP td=(nstates=5)
 -----------------------------------

 --------------------------------
 TDDFT excited states in gaussian
 --------------------------------
 Symbolic Z-matrix:
 Charge =  0 Multiplicity = 1

                         Standard orientation:
 ---------------------------------------------------------------------
 Center     Atomic      Atomic             Coordinates (Angstroms)
 Number     Number       Type             X           Y           Z
 ---------------------------------------------------------------------
      1         12           0       -4.495007   -0.309485    0.264617
      2          6           0       -4.306586    3.253484    0.550909
      3          6           0       -5.475495    0.151335   -2.971021
      4          6           0       -5.105547   -3.418064    0.121097
      5          6           0       -4.611593   -0.435295    3.745456
      6          7           0       -4.812060    1.518806   -0.942642
      7          6           0       -4.647413    2.821099   -0.732650
      8          6           0       -4.797309    3.679013   -2.024505
      9          6           0       -5.700451    2.684828   -2.883532
     10          6           0       -5.279573    1.368742   -2.253688
     11          6           0       -7.197447    2.877920   -2.663938
     12          6           0       -3.421488    3.949942   -2.721243
     13          6           0       -3.436708    5.041619   -3.795191
     14          1           0       -2.269331    5.898192   -3.939633
     15          7           0       -4.713446   -1.501548   -1.295550
     16          6           0       -5.104091   -1.141176   -2.541669
     17          6           0       -5.112456   -2.384735   -3.341777
     18          6           0       -4.878658   -3.525092   -2.412789
     19          6           0       -4.916455   -2.854255   -1.138454
     20          6           0       -5.277958   -2.404274   -4.830393
     21          6           0       -4.666880   -4.988963   -2.637211
     22          8           0       -4.713913   -5.837336   -1.681897
     23          6           0       -4.488436   -5.420139   -4.035527
     24          7           0       -5.034993   -1.718666    1.706928
     25          6           0       -5.181511   -3.009680    1.389442
     26          6           0       -5.288235   -3.865122    2.616947
     27          6           0       -4.939023   -2.913465    3.850702
     28          6           0       -4.762329   -1.582294    3.079318
     29          6           0       -6.652055   -4.528300    2.854014
     30          6           0       -3.800889   -3.375411    4.794988
     31          6           0       -2.478851   -3.338711    4.061526
     32          7           0       -4.289029    1.112650    1.891316
     33          6           0       -4.396081    0.845099    3.263770
     34          6           0       -4.290974    2.137690    3.965359
     35          6           0       -4.145753    3.075327    2.944775
     36          6           0       -4.185619    2.413482    1.684352
     37          6           0       -4.392181    2.333599    5.370995
     38          6           0       -3.990888    4.485136    2.624911
     39          8           0       -3.802047    5.508308    3.284419
     40          6           0       -4.211021    4.670711    1.058728
     41          6           0       -3.089407    5.529145    0.540672
     42          8           0       -1.913491    5.111329    0.536463
     43          8           0       -3.601641    6.601687   -0.082073
     44          6           0       -2.542015    7.480260   -0.645504
     45          1           0       -6.014194    0.178836   -3.920225
     46          1           0       -5.208991   -4.505140    0.122796
     47          1           0       -4.554691   -0.405725    4.835108
     48          1           0       -5.317618    4.626480   -1.883056
     49          1           0       -5.433024    2.702024   -3.939898
     50          1           0       -7.393970    3.581198   -1.854803
     51          1           0       -7.584487    1.890302   -2.412333
     52          1           0       -7.691220    3.165623   -3.592481
     53          1           0       -3.153791    3.089772   -3.334844
     54          1           0       -2.653831    4.181939   -1.982185
     55          1           0       -4.345966    5.641005   -3.741390
     56          1           0       -3.487407    4.559554   -4.771533
     57          1           0       -5.595681   -1.434279   -5.210794
     58          1           0       -6.113572   -3.068805   -5.049157
     59          1           0       -4.381807   -2.761053   -5.338284
     60          1           0       -5.366997   -5.135391   -4.614835
     61          1           0       -4.260754   -6.484744   -3.995200
     62          1           0       -3.647174   -4.877518   -4.467719
     63          1           0       -4.572721   -4.685762    2.585113
     64          1           0       -5.793394   -2.772502    4.513164
     65          1           0       -6.602560   -5.614401    2.935500
     66          1           0       -7.318396   -4.226692    2.046355
     67          1           0       -7.191780   -4.163962    3.727726
     68          1           0       -3.964322   -4.405396    5.110212
     69          1           0       -3.711873   -2.763903    5.692977
     70          1           0       -2.466734   -4.291681    3.533762
     71          1           0       -1.652404   -3.274292    4.770078
     72          1           0       -2.462559   -2.549555    3.309560
     73          1           0       -3.602098    3.035006    5.638882
     74          1           0       -4.286307    1.392718    5.910565
     75          1           0       -5.397987    2.746728    5.445393
     76          1           0       -5.182802    5.147123    0.933047
     77          1           0       -2.699088    8.477217   -0.233632
     78          1           0       -2.589223    7.367104   -1.728727
     79          1           0       -1.522575    7.279089   -0.314426
     80         12           0        4.447774   -1.258679   -0.153547
     81          6           0        4.947093    2.284416    0.122481
     82          6           0        3.194551   -0.688230   -3.274218
     83          6           0        3.580727   -4.309157   -0.254843
     84          6           0        4.654122   -1.418354    3.321745
     85          7           0        4.160173    0.601386   -1.315302
     86          6           0        4.443834    1.882159   -1.132248
     87          6           0        4.248383    2.770381   -2.390193
     88          6           0        3.179926    1.856539   -3.166175
     89          6           0        3.551099    0.495707   -2.580487
     90          6           0        1.739937    2.162217   -2.788890
     91          6           0        5.571634    2.934896   -3.217204
     92          6           0        5.532315    4.033568   -4.281701
     93          1           0        6.750721    4.795741   -4.540652
     94          7           0        3.985175   -2.411616   -1.701230
     95          6           0        3.511174   -2.012678   -2.900167
     96          6           0        3.311988   -3.241971   -3.683320
     97          6           0        3.550924   -4.409708   -2.792249
     98          6           0        3.697748   -3.740981   -1.515012
     99          6           0        3.009697   -3.230045   -5.153660
    100          6           0        3.621269   -5.885229   -3.045418
    101          8           0        3.602612   -6.734711   -2.085799
    102          6           0        3.618415   -6.309745   -4.453000
    103          7           0        3.947417   -2.632121    1.324847
    104          6           0        3.660369   -3.908450    1.014182
    105          6           0        3.602695   -4.771447    2.252041
    106          6           0        4.151337   -3.853864    3.441421
    107          6           0        4.356365   -2.532833    2.667952
    108          6           0        2.221780   -5.312184    2.622249
    109          6           0        5.336881   -4.414793    4.273590
    110          6           0        6.580125   -4.487716    3.416615
    111          7           0        4.927162    0.118147    1.440997
    112          6           0        4.928678   -0.149601    2.827500
    113          6           0        5.205818    1.127116    3.517160
    114          6           0        5.324459    2.060910    2.476754
    115          6           0        5.114643    1.415822    1.228015
    116          6           0        5.268647    1.314605    4.926771
    117          6           0        5.568946    3.447686    2.151540
    118          8           0        5.895372    4.445779    2.792638
    119          6           0        5.210320    3.678487    0.620372
    120          6           0        6.339482    4.446251   -0.010543
    121          8           0        7.468667    3.936179   -0.117192
    122          8           0        5.849888    5.564393   -0.576622
    123          6           0        6.930441    6.354115   -1.225143
    124          1           0        2.577332   -0.599523   -4.168685
    125          1           0        3.391798   -5.385038   -0.238411
    126          1           0        4.831549   -1.403309    4.399230
    127          1           0        3.827588    3.749298   -2.194145
    128          1           0        3.353774    1.870165   -4.239002
    129          1           0        1.678157    2.864788   -1.971137
    130          1           0        1.302092    1.213701   -2.506677
    131          1           0        1.183868    2.501289   -3.667619
    132          1           0        5.703842    2.055109   -3.860032
    133          1           0        6.410296    3.091562   -2.567025
    134          1           0        4.678368    4.708386   -4.146213
    135          1           0        5.354523    3.568232   -5.254253
    136          1           0        2.729127   -2.227174   -5.498523
    137          1           0        2.104980   -3.830240   -5.298971
    138          1           0        3.816817   -3.656559   -5.753085
    139          1           0        2.716373   -5.944852   -4.938412
    140          1           0        3.764073   -7.391518   -4.432264
    141          1           0        4.464216   -5.835445   -4.963177
    142          1           0        4.245998   -5.636866    2.150438
    143          1           0        3.375734   -3.658766    4.196543
    144          1           0        2.190079   -6.415770    2.694171
    145          1           0        1.508898   -4.958244    1.889404
    146          1           0        1.808460   -4.925406    3.552180
    147          1           0        5.122602   -5.436332    4.597169
    148          1           0        5.552858   -3.833614    5.163863
    149          1           0        6.457517   -5.435601    2.884092
    150          1           0        7.473537   -4.496619    4.037713
    151          1           0        6.589203   -3.687522    2.667442
    152          1           0        6.126987    1.944486    5.119125
    153          1           0        5.346303    0.364466    5.451162
    154          1           0        4.306056    1.802544    5.101727
    155          1           0        4.269788    4.229519    0.583647
    156          1           0        6.892176    7.360267   -0.796324
    157          1           0        6.754673    6.263412   -2.313545
    158          1           0        7.954725    6.071956   -1.011454
 ---------------------------------------------------------------------

 SCF Done:  E(RCAM-B3LYP) =  -4069.81132766     A.U. after   19 cycles

 Excitation energies and oscillator strengths:

 Excited State   1:      Singlet-A      1.6472 eV  752.67 nm  f=0.0049  <S**2>=0.000
     309 -> 315       -0.11380
     310 -> 316        0.12175
     311 -> 313       -0.46723
     312 -> 314        0.50465
 This state for optimization and/or second-order correction.
 Total Energy, E(TD-HF/TD-DFT) =  -4069.75079237
 Copying the excited state density for this state as the 1-particle RhoCI density.

 Excited State   2:      Singlet-A      1.7041 eV  727.54 nm  f=0.6950  <S**2>=0.000
     309 -> 315        0.13372
     310 -> 316        0.12259
     311 -> 313        0.50198
     312 -> 314        0.46480

 Excited State   3:      Singlet-A      2.1800 eV  568.73 nm  f=0.0144  <S**2>=0.000
     309 -> 313       -0.31244
     310 -> 314        0.56463
     311 -> 315        0.12889
     312 -> 316       -0.23439

 Excited State   4:      Singlet-A      2.1962 eV  564.54 nm  f=0.1596  <S**2>=0.000
     309 -> 313        0.55957
     310 -> 314        0.30776
     311 -> 315       -0.24687
     312 -> 316       -0.13704

 Excited State   5:      Singlet-A      2.3437 eV  529.02 nm  f=0.0000  <S**2>=0.000
     312 -> 313        0.70707

 The electronic state is 1-A.
 Alpha  occ. eigenvalues --  -46.87920 -46.87440 -19.26417 -19.26117 -19.19160
 Alpha  occ. eigenvalues --  -19.18928 -19.18904 -19.18539 -19.18263 -19.17782
 Alpha  occ. eigenvalues --  -14.42585 -14.42273 -14.41570 -14.41144 -14.39524
 Alpha  occ. eigenvalues --  -14.39139 -14.38705 -14.38369 -10.39218 -10.38849
 Alpha  occ. eigenvalues --  -10.35540 -10.35222 -10.34487 -10.33953 -10.31810
 Alpha  occ. eigenvalues --  -10.31564 -10.31542 -10.31071 -10.31054 -10.30804
 Alpha  occ. eigenvalues --  -10.30695 -10.30617 -10.30327 -10.30172 -10.30133
 Alpha  occ. eigenvalues --  -10.30027 -10.29955 -10.29746 -10.29670 -10.29374
 Alpha  occ. eigenvalues --  -10.29237 -10.29187 -10.28939 -10.28826 -10.28521
 Alpha  occ. eigenvalues --  -10.28488 -10.28476 -10.28289 -10.28176 -10.27906
 Alpha  occ. eigenvalues --  -10.27889 -10.27862 -10.27779 -10.27703 -10.27651
 Alpha  occ. eigenvalues --  -10.27609 -10.27542 -10.27531 -10.27462 -10.27378
 Alpha  occ. eigenvalues --  -10.27355 -10.27276 -10.27263 -10.27250 -10.27196
 Alpha  occ. eigenvalues --  -10.26972 -10.26746 -10.26523 -10.26512 -10.26381
 Alpha  occ. eigenvalues --  -10.26304 -10.26304 -10.26139 -10.26002 -10.25922
 Alpha  occ. eigenvalues --  -10.25730 -10.25670 -10.25603 -10.25514 -10.25217
 Alpha  occ. eigenvalues --  -10.24943 -10.24899 -10.24827 -10.24637 -10.24597
 Alpha  occ. eigenvalues --  -10.24469  -3.16663  -3.16190  -1.91544  -1.91131
 Alpha  occ. eigenvalues --   -1.91072  -1.90973  -1.90661  -1.90498  -1.16767
 Alpha  occ. eigenvalues --   -1.16410  -1.08720  -1.08382  -1.07301  -1.06792
 Alpha  occ. eigenvalues --   -1.06779  -1.06712  -1.04716  -1.04267  -1.03882
 Alpha  occ. eigenvalues --   -1.03444  -1.03352  -1.02823  -1.02530  -1.01889
 Alpha  occ. eigenvalues --   -0.92094  -0.91741  -0.89636  -0.89366  -0.89299
 Alpha  occ. eigenvalues --   -0.88912  -0.88400  -0.88032  -0.87977  -0.87817
 Alpha  occ. eigenvalues --   -0.87561  -0.87474  -0.87400  -0.86954  -0.85151
 Alpha  occ. eigenvalues --   -0.84783  -0.84049  -0.83692  -0.83085  -0.82798
 Alpha  occ. eigenvalues --   -0.82780  -0.82444  -0.81715  -0.81375  -0.80725
 Alpha  occ. eigenvalues --   -0.80230  -0.78922  -0.78446  -0.77361  -0.77085
 Alpha  occ. eigenvalues --   -0.76942  -0.76686  -0.76063  -0.75604  -0.75010
 Alpha  occ. eigenvalues --   -0.74605  -0.72894  -0.72482  -0.71797  -0.71353
 Alpha  occ. eigenvalues --   -0.70025  -0.69588  -0.69030  -0.68615  -0.67764
 Alpha  occ. eigenvalues --   -0.67401  -0.67392  -0.67018  -0.65450  -0.65047
 Alpha  occ. eigenvalues --   -0.64979  -0.64757  -0.64556  -0.64439  -0.64387
 Alpha  occ. eigenvalues --   -0.64010  -0.62423  -0.62060  -0.60561  -0.60157
 Alpha  occ. eigenvalues --   -0.59960  -0.59564  -0.59110  -0.58776  -0.58625
 Alpha  occ. eigenvalues --   -0.58206  -0.57705  -0.57425  -0.57297  -0.57031
 Alpha  occ. eigenvalues --   -0.56432  -0.56120  -0.55998  -0.55675  -0.55642
 Alpha  occ. eigenvalues --   -0.55454  -0.55255  -0.55046  -0.54645  -0.54287
 Alpha  occ. eigenvalues --   -0.54073  -0.53686  -0.53420  -0.53370  -0.53050
 Alpha  occ. eigenvalues --   -0.53032  -0.52936  -0.52900  -0.52696  -0.52559
 Alpha  occ. eigenvalues --   -0.52498  -0.52237  -0.52012  -0.51782  -0.51641
 Alpha  occ. eigenvalues --   -0.51457  -0.51319  -0.50981  -0.50710  -0.50338
 Alpha  occ. eigenvalues --   -0.50158  -0.50049  -0.49781  -0.49683  -0.49657
 Alpha  occ. eigenvalues --   -0.49342  -0.49287  -0.49243  -0.48978  -0.48852
 Alpha  occ. eigenvalues --   -0.48720  -0.48567  -0.48555  -0.48332  -0.48186
 Alpha  occ. eigenvalues --   -0.48145  -0.47831  -0.47421  -0.47398  -0.46940
 Alpha  occ. eigenvalues --   -0.46929  -0.46725  -0.46507  -0.46480  -0.46345
 Alpha  occ. eigenvalues --   -0.46276  -0.46077  -0.45941  -0.45870  -0.45589
 Alpha  occ. eigenvalues --   -0.45312  -0.45009  -0.44697  -0.44651  -0.44292
 Alpha  occ. eigenvalues --   -0.44271  -0.44268  -0.44243  -0.44140  -0.43897
 Alpha  occ. eigenvalues --   -0.43896  -0.43735  -0.43618  -0.43529  -0.43338
 Alpha  occ. eigenvalues --   -0.43168  -0.43149  -0.42822  -0.42778  -0.42713
 Alpha  occ. eigenvalues --   -0.42671  -0.42373  -0.42146  -0.41827  -0.41773
 Alpha  occ. eigenvalues --   -0.41700  -0.41430  -0.41270  -0.41255  -0.41030
 Alpha  occ. eigenvalues --   -0.40951  -0.40762  -0.40691  -0.40546  -0.40501
 Alpha  occ. eigenvalues --   -0.40449  -0.40294  -0.40040  -0.39564  -0.39262
 Alpha  occ. eigenvalues --   -0.38597  -0.38161  -0.37951  -0.37465  -0.37443
 Alpha  occ. eigenvalues --   -0.37424  -0.37068  -0.36984  -0.36842  -0.36553
 Alpha  occ. eigenvalues --   -0.36323  -0.36011  -0.34409  -0.34031  -0.33907
 Alpha  occ. eigenvalues --   -0.33630  -0.33309  -0.32957  -0.31435  -0.31158
 Alpha  occ. eigenvalues --   -0.31096  -0.30749  -0.30124  -0.29682  -0.29564
 Alpha  occ. eigenvalues --   -0.29431  -0.29125  -0.28973  -0.24204  -0.23808
 Alpha  occ. eigenvalues --   -0.21251  -0.20899
 Alpha virt. eigenvalues --   -0.08893  -0.08573  -0.01869  -0.01471  -0.00175
 Alpha virt. eigenvalues --    0.00174   0.02095   0.02443   0.02814   0.03487
 Alpha virt. eigenvalues --    0.04555   0.04925   0.04979   0.05407   0.05931

 Mulliken charges:
               1
     1  Mg   0.838599
     2  C   -0.003374
     3  C   -0.095336
     4  C   -0.045176
     5  C   -0.063714
     6  N   -0.256664
     7  C   -0.052913
     8  C   -0.013802
     9  C   -0.086819
    10  C    0.045915
    11  C    0.104779
    12  C    0.053699
    13  C   -0.071367
    14  H    0.034438
    15  N   -0.433187
    16  C    0.168213
    17  C   -0.177935
    18  C   -0.003770
    19  C    0.148963
    20  C    0.110368
    21  C    0.013080
    22  O   -0.248408
    23  C    0.062614
    24  N   -0.341042
    25  C    0.041095
    26  C   -0.028405
    27  C   -0.024013
    28  C    0.074818
    29  C    0.076031
    30  C    0.035077
    31  C   -0.005466
    32  N   -0.310614
    33  C    0.080595
    34  C   -0.169298
    35  C    0.008751
    36  C    0.083162
    37  C    0.127181
    38  C    0.046523
    39  O   -0.187346
    40  C   -0.005590
    41  C    0.213399
    42  O   -0.257887
    43  O   -0.304671
    44  C    0.157339
    45  H   -0.017811
    46  H   -0.016226
    47  H   -0.041232
    48  H    0.001396
    49  H   -0.004890
    50  H    0.025795
    51  H    0.016811
    52  H    0.016667
    53  H    0.009406
    54  H    0.043493
    55  H    0.019099
    56  H    0.017167
    57  H    0.005385
    58  H    0.027284
    59  H    0.037800
    60  H    0.037139
    61  H    0.036699
    62  H    0.029868
    63  H    0.017132
    64  H    0.009760
    65  H    0.023648
    66  H    0.012595
    67  H    0.004877
    68  H    0.006606
    69  H    0.004725
    70  H    0.009831
    71  H    0.016823
    72  H    0.029751
    73  H    0.048352
    74  H    0.009115
    75  H    0.046281
    76  H    0.035387
    77  H    0.043992
    78  H    0.045530
    79  H    0.053977
    80  Mg   0.838035
    81  C   -0.015854
    82  C   -0.088150
    83  C   -0.045370
    84  C   -0.065001
    85  N   -0.254660
    86  C   -0.047999
    87  C   -0.015163
    88  C   -0.091160
    89  C    0.046343
    90  C    0.113243
    91  C    0.062648
    92  C   -0.077197
    93  H    0.034025
    94  N   -0.423400
    95  C    0.162874
    96  C   -0.175664
    97  C   -0.007918
    98  C    0.151736
    99  C    0.100117
   100  C    0.015388
   101  O   -0.253066
   102  C    0.061511
   103  N   -0.349974
   104  C    0.037213
   105  C   -0.019783
   106  C   -0.034688
   107  C    0.089252
   108  C    0.073458
   109  C    0.034830
   110  C   -0.007554
   111  N   -0.324525
   112  C    0.079280
   113  C   -0.162484
   114  C    0.003697
   115  C    0.096241
   116  C    0.130958
   117  C    0.043886
   118  O   -0.187095
   119  C   -0.000000
   120  C    0.210740
   121  O   -0.251819
   122  O   -0.304879
   123  C    0.152323
   124  H   -0.021479
   125  H   -0.015620
   126  H   -0.040876
   127  H    0.000853
   128  H   -0.006257
   129  H    0.031258
   130  H    0.013679
   131  H    0.012852
   132  H    0.013310
   133  H    0.037550
   134  H    0.020544
   135  H    0.018629
   136  H    0.007519
   137  H    0.023740
   138  H    0.039128
   139  H    0.037027
   140  H    0.036083
   141  H    0.033485
   142  H    0.014007
   143  H    0.011621
   144  H    0.024765
   145  H    0.013194
   146  H    0.004580
   147  H    0.005697
   148  H    0.003350
   149  H    0.010793
   150  H    0.017545
   151  H    0.030396
   152  H    0.045684
   153  H    0.007593
   154  H    0.049249
   155  H    0.040041
   156  H    0.043736
   157  H    0.048760
   158  H    0.053092
 Sum of Mulliken charges =  -0.00000

 Dipole moment (field-independent basis, Debye):
    X=             -5.0902    Y=             -1.3273    Z=             -6.9031  Tot=              8.6789
 Quadrupole moment (field-independent basis, Debye-Ang):
   XX=           -524.4569   YY=           -546.5309   ZZ=           -450.8181
   XY=            -11.9477   XZ=              0.6683   YZ=            -49.5023

 Normal termination of Gaussian 16 at Fri Sep 10 07:28:15 2021.
