 Gaussian 16, Revision A.03,
 Gaussian 16:  ES64L-G16RevA.03 25-Dec-2016

 -----------------------------------
 #p cam-b3lyp/Def2SVP td=(nstates=5)
 -----------------------------------

 --------------------------------
 TDDFT excited states in gaussian
 --------------------------------
 Symbolic Z-matrix:
 Charge =  0 Multiplicity = 1

                         Standard orientation:
 ---------------------------------------------------------------------
 Center     Atomic      Atomic             Coordinates (Angstroms)
 Number     Number       Type             X           Y           Z
 ---------------------------------------------------------------------
      1         12           0       -3.999459    0.406074    0.478114
      2          6           0       -3.091339    3.815065    1.083350
      3          6           0       -5.017630    1.384506   -2.628180
      4          6           0       -5.223526   -2.492869    0.085163
      5          6           0       -3.976939   -0.058737    3.931968
      6          7           0       -4.001359    2.377374   -0.529168
      7          6           0       -3.570791    3.593795   -0.209635
      8          6           0       -3.606481    4.595025   -1.402798
      9          6           0       -4.728627    3.890206   -2.289373
     10          6           0       -4.549802    2.458915   -1.814660
     11          6           0       -6.145215    4.345550   -1.954050
     12          6           0       -2.238152    4.665772   -2.160691
     13          6           0       -2.085286    5.846106   -3.124432
     14          1           0       -0.778561    6.470635   -3.265081
     15          7           0       -4.523431   -0.550951   -1.168824
     16          6           0       -4.891846    0.006800   -2.347158
     17          6           0       -5.185149   -1.120781   -3.257771
     18          6           0       -5.140506   -2.375757   -2.457060
     19          6           0       -4.984546   -1.847576   -1.125866
     20          6           0       -5.420203   -0.951822   -4.727449
     21          6           0       -5.235509   -3.821198   -2.830966
     22          8           0       -5.406311   -4.739714   -1.958196
     23          6           0       -5.211778   -4.129859   -4.272218
     24          7           0       -4.741961   -1.015006    1.814848
     25          6           0       -5.157530   -2.212676    1.388384
     26          6           0       -5.375522   -3.155041    2.534843
     27          6           0       -4.786644   -2.423655    3.826373
     28          6           0       -4.384121   -1.078584    3.172901
     29          6           0       -6.831667   -3.562572    2.798605
     30          6           0       -3.720847   -3.193669    4.645870
     31          6           0       -2.453569   -3.337135    3.833144
     32          7           0       -3.438720    1.582965    2.213494
     33          6           0       -3.533084    1.198934    3.558964
     34          6           0       -3.139890    2.365924    4.369890
     35          6           0       -2.858215    3.359329    3.434128
     36          6           0       -3.087755    2.853507    2.122736
     37          6           0       -3.134588    2.429365    5.791291
     38          6           0       -2.440401    4.738033    3.238002
     39          8           0       -2.020918    5.630406    3.976376
     40          6           0       -2.691637    5.125779    1.714073
     41          6           0       -1.446692    5.800130    1.205475
     42          8           0       -0.379182    5.165214    1.084354
     43          8           0       -1.763167    7.010811    0.721080
     44          6           0       -0.576989    7.721569    0.173394
     45          1           0       -5.583535    1.615134   -3.532891
     46          1           0       -5.541443   -3.533393   -0.007992
     47          1           0       -3.864721   -0.155075    5.013439
     48          1           0       -3.920291    5.605205   -1.139200
     49          1           0       -4.512513    3.965845   -3.354876
     50          1           0       -6.159763    4.984861   -1.071445
     51          1           0       -6.709280    3.430800   -1.770867
     52          1           0       -6.614307    4.819123   -2.816869
     53          1           0       -2.176134    3.839148   -2.868439
     54          1           0       -1.406161    4.665933   -1.455625
     55          1           0       -2.853280    6.601281   -2.954715
     56          1           0       -2.276386    5.487987   -4.136080
     57          1           0       -5.555471    0.095760   -4.993568
     58          1           0       -6.380777   -1.415242   -4.951612
     59          1           0       -4.637763   -1.420234   -5.324702
     60          1           0       -6.041873   -3.621215   -4.762904
     61          1           0       -5.199307   -5.216657   -4.346822
     62          1           0       -4.300226   -3.718253   -4.706500
     63          1           0       -4.840261   -4.090807    2.379078
     64          1           0       -5.564036   -2.190049    4.554222
     65          1           0       -6.995983   -4.640131    2.774675
     66          1           0       -7.461284   -3.054670    2.068599
     67          1           0       -7.246726   -3.194160    3.736377
     68          1           0       -4.071532   -4.199729    4.873486
     69          1           0       -3.470072   -2.708499    5.589253
     70          1           0       -2.656233   -4.213761    3.218908
     71          1           0       -1.598863   -3.508630    4.488337
     72          1           0       -2.315216   -2.491731    3.158877
     73          1           0       -2.208944    2.932429    6.070718
     74          1           0       -3.193480    1.434547    6.232280
     75          1           0       -4.033264    3.019402    5.970438
     76          1           0       -3.553687    5.791915    1.698127
     77          1           0       -0.512826    8.681326    0.686215
     78          1           0       -0.696085    7.733822   -0.910151
     79          1           0        0.396131    7.293165    0.415977
     80         12           0        3.539039   -1.901072   -0.491284
     81          6           0        5.307435    1.194686   -0.081291
     82          6           0        1.890250   -0.441724   -3.096346
     83          6           0        1.651186   -4.449167   -0.594319
     84          6           0        4.464564   -2.701511    2.771911
     85          7           0        3.669957    0.120590   -1.378979
     86          6           0        4.421819    1.192541   -1.179055
     87          6           0        4.270807    2.295031   -2.261318
     88          6           0        2.801172    1.916672   -2.786580
     89          6           0        2.790789    0.430573   -2.434353
     90          6           0        1.689344    2.599881   -2.007859
     91          6           0        5.340097    2.163269   -3.402050
     92          6           0        5.449321    3.379229   -4.324686
     93          1           0        6.764664    3.742462   -4.844680
     94          7           0        2.357975   -2.566589   -1.940670
     95          6           0        1.794845   -1.840763   -2.929270
     96          6           0        1.000567   -2.790735   -3.723518
     97          6           0        1.008330   -4.105887   -3.027083
     98          6           0        1.669974   -3.744842   -1.789364
     99          6           0        0.394320   -2.434979   -5.049914
    100          6           0        0.492691   -5.461091   -3.406246
    101          8           0        0.394961   -6.408534   -2.548555
    102          6           0        0.018153   -5.618734   -4.788795
    103          7           0        2.937831   -3.269771    0.953550
    104          6           0        2.155282   -4.314997    0.632546
    105          6           0        2.081017   -5.309399    1.766591
    106          6           0        3.175000   -4.830478    2.830265
    107          6           0        3.651027   -3.534656    2.137706
    108          6           0        0.721980   -5.432861    2.455163
    109          6           0        4.242408   -5.873729    3.260307
    110          6           0        5.148350   -6.196084    2.093790
    111          7           0        4.825205   -1.040140    1.016243
    112          6           0        5.049020   -1.523751    2.323959
    113          6           0        5.909389   -0.538837    3.011070
    114          6           0        6.109134    0.468739    2.055363
    115          6           0        5.405232    0.145128    0.864018
    116          6           0        6.355028   -0.621686    4.360390
    117          6           0        6.746706    1.737686    1.787046
    118          8           0        7.542199    2.455276    2.392020
    119          6           0        6.152815    2.325768    0.435069
    120          6           0        7.304135    2.785492   -0.416777
    121          8           0        8.123695    1.965870   -0.867491
    122          8           0        7.125803    4.080057   -0.737195
    123          6           0        8.236760    4.578817   -1.590927
    124          1           0        1.157188   -0.010407   -3.778611
    125          1           0        1.103290   -5.394132   -0.612524
    126          1           0        4.877219   -2.925907    3.757834
    127          1           0        4.279958    3.309384   -1.880828
    128          1           0        2.718333    2.054331   -3.861545
    129          1           0        2.068661    3.136783   -1.151123
    130          1           0        1.021465    1.808686   -1.693224
    131          1           0        1.103843    3.242298   -2.671818
    132          1           0        5.002029    1.409127   -4.124354
    133          1           0        6.304880    1.930769   -2.994905
    134          1           0        4.944255    4.259272   -3.908305
    135          1           0        4.901165    3.166365   -5.245680
    136          1           0        0.415438   -1.352153   -5.224382
    137          1           0       -0.671695   -2.679741   -4.990210
    138          1           0        0.838591   -2.990413   -5.878640
    139          1           0       -0.782093   -4.907539   -4.979236
    140          1           0       -0.227356   -6.677232   -4.894590
    141          1           0        0.836315   -5.361987   -5.470929
    142          1           0        2.335402   -6.305236    1.424982
    143          1           0        2.713138   -4.527074    3.781300
    144          1           0        0.319591   -6.463422    2.445087
    145          1           0        0.032859   -4.750863    1.975029
    146          1           0        0.696449   -5.096447    3.490234
    147          1           0        3.760964   -6.811658    3.547817
    148          1           0        4.847339   -5.551274    4.101181
    149          1           0        4.580312   -6.950549    1.541329
    150          1           0        6.097625   -6.595557    2.444964
    151          1           0        5.268101   -5.326961    1.436572
    152          1           0        7.400221   -0.342296    4.360789
    153          1           0        6.209549   -1.620521    4.766519
    154          1           0        5.694370    0.112360    4.829403
    155          1           0        5.486066    3.147203    0.700131
    156          1           0        8.655761    5.456654   -1.089400
    157          1           0        7.796358    4.734005   -2.593779
    158          1           0        9.114987    3.951300   -1.687778
 ---------------------------------------------------------------------

 SCF Done:  E(RCAM-B3LYP) =  -4069.81164803     A.U. after   19 cycles

 Excitation energies and oscillator strengths:

 Excited State   1:      Singlet-A      1.6340 eV  758.77 nm  f=0.0348  <S**2>=0.000
     309 -> 315       -0.11260
     310 -> 316        0.11846
     311 -> 313       -0.47188
     312 -> 314        0.50133
 This state for optimization and/or second-order correction.
 Total Energy, E(TD-HF/TD-DFT) =  -4069.75159931
 Copying the excited state density for this state as the 1-particle RhoCI density.

 Excited State   2:      Singlet-A      1.7111 eV  724.60 nm  f=0.6550  <S**2>=0.000
     309 -> 315        0.13461
     310 -> 316        0.12480
     311 -> 313        0.49773
     312 -> 314        0.46851

 Excited State   3:      Singlet-A      2.1765 eV  569.66 nm  f=0.0090  <S**2>=0.000
     309 -> 313       -0.34674
     310 -> 314        0.54615
     311 -> 315        0.14117
     312 -> 316       -0.22321

 Excited State   4:      Singlet-A      2.1973 eV  564.25 nm  f=0.1586  <S**2>=0.000
     309 -> 313        0.53918
     310 -> 314        0.34034
     311 -> 315       -0.23944
     312 -> 316       -0.15196

 Excited State   5:      Singlet-A      2.2097 eV  561.09 nm  f=0.0001  <S**2>=0.000
     312 -> 313        0.70668

 The electronic state is 1-A.
 Alpha  occ. eigenvalues --  -46.87983 -46.87413 -19.26556 -19.26109 -19.19322
 Alpha  occ. eigenvalues --  -19.18949 -19.18919 -19.18513 -19.18348 -19.17779
 Alpha  occ. eigenvalues --  -14.42659 -14.42228 -14.41631 -14.41122 -14.39586
 Alpha  occ. eigenvalues --  -14.39115 -14.38772 -14.38343 -10.39364 -10.38839
 Alpha  occ. eigenvalues --  -10.35587 -10.35199 -10.34574 -10.33949 -10.31948
 Alpha  occ. eigenvalues --  -10.31626 -10.31559 -10.31141 -10.31026 -10.30772
 Alpha  occ. eigenvalues --  -10.30763 -10.30673 -10.30382 -10.30150 -10.30117
 Alpha  occ. eigenvalues --  -10.30075 -10.29933 -10.29817 -10.29650 -10.29439
 Alpha  occ. eigenvalues --  -10.29213 -10.29176 -10.29062 -10.28998 -10.28563
 Alpha  occ. eigenvalues --  -10.28496 -10.28396 -10.28393 -10.28151 -10.27977
 Alpha  occ. eigenvalues --  -10.27938 -10.27779 -10.27768 -10.27763 -10.27762
 Alpha  occ. eigenvalues --  -10.27644 -10.27608 -10.27564 -10.27448 -10.27424
 Alpha  occ. eigenvalues --  -10.27376 -10.27347 -10.27253 -10.27218 -10.27184
 Alpha  occ. eigenvalues --  -10.27152 -10.26733 -10.26640 -10.26469 -10.26467
 Alpha  occ. eigenvalues --  -10.26340 -10.26333 -10.26202 -10.25995 -10.25984
 Alpha  occ. eigenvalues --  -10.25709 -10.25605 -10.25532 -10.25383 -10.25217
 Alpha  occ. eigenvalues --  -10.25015 -10.24950 -10.24852 -10.24621 -10.24588
 Alpha  occ. eigenvalues --  -10.24444  -3.16725  -3.16162  -1.91606  -1.91193
 Alpha  occ. eigenvalues --   -1.91045  -1.91035  -1.90633  -1.90470  -1.16907
 Alpha  occ. eigenvalues --   -1.16402  -1.08809  -1.08381  -1.07338  -1.06927
 Alpha  occ. eigenvalues --   -1.06760  -1.06703  -1.04794  -1.04225  -1.03944
 Alpha  occ. eigenvalues --   -1.03416  -1.03415  -1.02801  -1.02595  -1.01864
 Alpha  occ. eigenvalues --   -0.92176  -0.91715  -0.89689  -0.89477  -0.89282
 Alpha  occ. eigenvalues --   -0.88818  -0.88446  -0.88048  -0.88017  -0.87899
 Alpha  occ. eigenvalues --   -0.87547  -0.87485  -0.87443  -0.86960  -0.85255
 Alpha  occ. eigenvalues --   -0.84721  -0.84097  -0.83680  -0.83165  -0.82896
 Alpha  occ. eigenvalues --   -0.82790  -0.82394  -0.81813  -0.81356  -0.80813
 Alpha  occ. eigenvalues --   -0.80209  -0.79002  -0.78443  -0.77447  -0.77175
 Alpha  occ. eigenvalues --   -0.76913  -0.76640  -0.76157  -0.75537  -0.75066
 Alpha  occ. eigenvalues --   -0.74585  -0.72963  -0.72457  -0.71868  -0.71304
 Alpha  occ. eigenvalues --   -0.70069  -0.69570  -0.69128  -0.68561  -0.67843
 Alpha  occ. eigenvalues --   -0.67513  -0.67375  -0.66990  -0.65553  -0.65059
 Alpha  occ. eigenvalues --   -0.64996  -0.64840  -0.64528  -0.64442  -0.64402
 Alpha  occ. eigenvalues --   -0.63990  -0.62523  -0.62046  -0.60631  -0.60156
 Alpha  occ. eigenvalues --   -0.60057  -0.59499  -0.59181  -0.58751  -0.58701
 Alpha  occ. eigenvalues --   -0.58186  -0.57806  -0.57493  -0.57284  -0.57021
 Alpha  occ. eigenvalues --   -0.56513  -0.56235  -0.55984  -0.55725  -0.55658
 Alpha  occ. eigenvalues --   -0.55522  -0.55238  -0.55033  -0.54731  -0.54274
 Alpha  occ. eigenvalues --   -0.54185  -0.53614  -0.53499  -0.53468  -0.53151
 Alpha  occ. eigenvalues --   -0.53019  -0.53004  -0.52907  -0.52676  -0.52603
 Alpha  occ. eigenvalues --   -0.52468  -0.52227  -0.52083  -0.51892  -0.51636
 Alpha  occ. eigenvalues --   -0.51414  -0.51398  -0.50960  -0.50811  -0.50359
 Alpha  occ. eigenvalues --   -0.50227  -0.50127  -0.49754  -0.49751  -0.49660
 Alpha  occ. eigenvalues --   -0.49438  -0.49334  -0.49242  -0.48950  -0.48817
 Alpha  occ. eigenvalues --   -0.48754  -0.48629  -0.48619  -0.48289  -0.48177
 Alpha  occ. eigenvalues --   -0.48127  -0.47917  -0.47497  -0.47368  -0.47008
 Alpha  occ. eigenvalues --   -0.46941  -0.46827  -0.46554  -0.46476  -0.46347
 Alpha  occ. eigenvalues --   -0.46280  -0.46072  -0.46027  -0.45861  -0.45565
 Alpha  occ. eigenvalues --   -0.45362  -0.44995  -0.44789  -0.44730  -0.44345
 Alpha  occ. eigenvalues --   -0.44329  -0.44275  -0.44229  -0.44222  -0.43887
 Alpha  occ. eigenvalues --   -0.43815  -0.43721  -0.43710  -0.43610  -0.43314
 Alpha  occ. eigenvalues --   -0.43226  -0.43119  -0.42935  -0.42832  -0.42694
 Alpha  occ. eigenvalues --   -0.42650  -0.42359  -0.42214  -0.41911  -0.41791
 Alpha  occ. eigenvalues --   -0.41750  -0.41404  -0.41344  -0.41215  -0.41124
 Alpha  occ. eigenvalues --   -0.41032  -0.40752  -0.40700  -0.40585  -0.40518
 Alpha  occ. eigenvalues --   -0.40440  -0.40249  -0.39992  -0.39573  -0.39246
 Alpha  occ. eigenvalues --   -0.38653  -0.38137  -0.38077  -0.37517  -0.37499
 Alpha  occ. eigenvalues --   -0.37422  -0.37042  -0.36957  -0.36937  -0.36541
 Alpha  occ. eigenvalues --   -0.36406  -0.35984  -0.34479  -0.34044  -0.34001
 Alpha  occ. eigenvalues --   -0.33617  -0.33381  -0.32932  -0.31477  -0.31226
 Alpha  occ. eigenvalues --   -0.31068  -0.30716  -0.30210  -0.29678  -0.29633
 Alpha  occ. eigenvalues --   -0.29502  -0.29110  -0.28957  -0.24272  -0.23780
 Alpha  occ. eigenvalues --   -0.21321  -0.20871
 Alpha virt. eigenvalues --   -0.08963  -0.08552  -0.01931  -0.01445  -0.00248
 Alpha virt. eigenvalues --    0.00200   0.02018   0.02336   0.02556   0.03567
 Alpha virt. eigenvalues --    0.04445   0.04760   0.05007   0.05417   0.05745

 Mulliken charges:
               1
     1  Mg   0.838570
     2  C   -0.003448
     3  C   -0.096355
     4  C   -0.043873
     5  C   -0.063460
     6  N   -0.256709
     7  C   -0.053628
     8  C   -0.012053
     9  C   -0.086799
    10  C    0.045836
    11  C    0.104781
    12  C    0.047330
    13  C   -0.072637
    14  H    0.034619
    15  N   -0.433266
    16  C    0.168315
    17  C   -0.179255
    18  C   -0.004050
    19  C    0.150136
    20  C    0.110329
    21  C    0.013991
    22  O   -0.246210
    23  C    0.062479
    24  N   -0.340960
    25  C    0.040982
    26  C   -0.029034
    27  C   -0.024118
    28  C    0.074765
    29  C    0.075926
    30  C    0.039182
    31  C   -0.016158
    32  N   -0.310774
    33  C    0.080812
    34  C   -0.169150
    35  C    0.008658
    36  C    0.083363
    37  C    0.127204
    38  C    0.046533
    39  O   -0.187459
    40  C   -0.005989
    41  C    0.213875
    42  O   -0.258701
    43  O   -0.304405
    44  C    0.157302
    45  H   -0.017903
    46  H   -0.015375
    47  H   -0.041097
    48  H    0.001519
    49  H   -0.005173
    50  H    0.025916
    51  H    0.017103
    52  H    0.016804
    53  H    0.009269
    54  H    0.047387
    55  H    0.019935
    56  H    0.017343
    57  H    0.005484
    58  H    0.027837
    59  H    0.035995
    60  H    0.037416
    61  H    0.038373
    62  H    0.026160
    63  H    0.018456
    64  H    0.009862
    65  H    0.024073
    66  H    0.012490
    67  H    0.004856
    68  H    0.006429
    69  H    0.003757
    70  H    0.015531
    71  H    0.019147
    72  H    0.030848
    73  H    0.048288
    74  H    0.009304
    75  H    0.046371
    76  H    0.035573
    77  H    0.044436
    78  H    0.045545
    79  H    0.053449
    80  Mg   0.837951
    81  C   -0.015892
    82  C   -0.089034
    83  C   -0.045405
    84  C   -0.065083
    85  N   -0.254995
    86  C   -0.046773
    87  C   -0.015017
    88  C   -0.092257
    89  C    0.047317
    90  C    0.112506
    91  C    0.062771
    92  C   -0.076928
    93  H    0.033588
    94  N   -0.423469
    95  C    0.162797
    96  C   -0.175284
    97  C   -0.007241
    98  C    0.150985
    99  C    0.100974
   100  C    0.016509
   101  O   -0.251651
   102  C    0.061528
   103  N   -0.350008
   104  C    0.036124
   105  C   -0.018257
   106  C   -0.035307
   107  C    0.089372
   108  C    0.069928
   109  C    0.034803
   110  C   -0.007330
   111  N   -0.324508
   112  C    0.079414
   113  C   -0.162668
   114  C    0.003422
   115  C    0.096500
   116  C    0.131053
   117  C    0.043347
   118  O   -0.187657
   119  C    0.000230
   120  C    0.210742
   121  O   -0.251835
   122  O   -0.304906
   123  C    0.152351
   124  H   -0.021330
   125  H   -0.014964
   126  H   -0.041047
   127  H    0.000831
   128  H   -0.007708
   129  H    0.035705
   130  H    0.015119
   131  H    0.012991
   132  H    0.013026
   133  H    0.037263
   134  H    0.020500
   135  H    0.018327
   136  H    0.007468
   137  H    0.021007
   138  H    0.038739
   139  H    0.034525
   140  H    0.036827
   141  H    0.033261
   142  H    0.013779
   143  H    0.011387
   144  H    0.023993
   145  H    0.016637
   146  H    0.004444
   147  H    0.005548
   148  H    0.003302
   149  H    0.010806
   150  H    0.017478
   151  H    0.030423
   152  H    0.045563
   153  H    0.007657
   154  H    0.048695
   155  H    0.039659
   156  H    0.043594
   157  H    0.048841
   158  H    0.053038
 Sum of Mulliken charges =  -0.00000

 Dipole moment (field-independent basis, Debye):
    X=             -6.1579    Y=              0.8949    Z=             -5.8172  Tot=              8.5182
 Quadrupole moment (field-independent basis, Debye-Ang):
   XX=           -538.9725   YY=           -524.1787   ZZ=           -464.0267
   XY=            -18.2038   XZ=             -1.9628   YZ=            -55.3486

 Normal termination of Gaussian 16 at Wed Sep  8 20:44:20 2021.
