 Gaussian 16, Revision A.03,
 Gaussian 16:  ES64L-G16RevA.03 25-Dec-2016

 -----------------------------------
 #p cam-b3lyp/Def2SVP td=(nstates=5)
 -----------------------------------

 --------------------------------
 TDDFT excited states in gaussian
 --------------------------------
 Symbolic Z-matrix:
 Charge =  0 Multiplicity = 1

                         Standard orientation:
 ---------------------------------------------------------------------
 Center     Atomic      Atomic             Coordinates (Angstroms)
 Number     Number       Type             X           Y           Z
 ---------------------------------------------------------------------
      1         12           0       -4.384308    0.492222   -0.726211
      2          6           0       -4.641331   -2.813196    0.622998
      3          6           0       -5.768806    1.625294    2.179366
      4          6           0       -4.587746    3.358371   -2.068010
      5          6           0       -4.097847   -0.974408   -3.874638
      6          7           0       -5.073298   -0.558313    1.096511
      7          6           0       -5.061270   -1.821070    1.511808
      8          6           0       -5.465812   -1.983387    3.007593
      9          6           0       -6.317915   -0.647463    3.184304
     10          6           0       -5.658628    0.204509    2.114067
     11          6           0       -7.793786   -0.815887    2.837982
     12          6           0       -4.223762   -2.000978    3.960868
     13          6           0       -4.502699   -2.479322    5.388710
     14          1           0       -3.482887   -3.253998    6.079513
     15          7           0       -4.613148    2.276165    0.091122
     16          6           0       -5.183535    2.551119    1.288763
     17          6           0       -5.114647    4.019928    1.445397
     18          6           0       -4.629961    4.592495    0.158797
     19          6           0       -4.615696    3.419012   -0.676734
     20          6           0       -5.439508    4.727056    2.725314
     21          6           0       -4.251327    5.979319   -0.255313
     22          8           0       -4.079195    6.300091   -1.480895
     23          6           0       -4.172662    6.986937    0.817795
     24          7           0       -4.569253    1.122671   -2.707615
     25          6           0       -4.576802    2.423160   -3.020115
     26          6           0       -4.432450    2.630267   -4.498698
     27          6           0       -4.078870    1.199430   -5.113058
     28          6           0       -4.167236    0.357452   -3.816318
     29          6           0       -5.661253    3.204620   -5.217151
     30          6           0       -2.792087    1.100736   -5.970303
     31          6           0       -1.575890    1.311451   -5.096482
     32          7           0       -4.191012   -1.525362   -1.502764
     33          6           0       -4.109218   -1.906016   -2.850016
     34          6           0       -4.100232   -3.380099   -2.882646
     35          6           0       -4.194749   -3.757099   -1.544445
     36          6           0       -4.285167   -2.592592   -0.729559
     37          6           0       -4.070703   -4.187578   -4.053774
     38          6           0       -4.265201   -4.873131   -0.615269
     39          8           0       -4.142533   -6.094701   -0.716325
     40          6           0       -4.679739   -4.308925    0.814995
     41          6           0       -3.746521   -4.911838    1.829347
     42          8           0       -2.533185   -4.620044    1.835317
     43          8           0       -4.462588   -5.544625    2.771351
     44          6           0       -3.598117   -6.140467    3.824829
     45          1           0       -6.407908    2.070532    2.944385
     46          1           0       -4.544753    4.329449   -2.565603
     47          1           0       -3.925360   -1.501146   -4.814983
     48          1           0       -6.088760   -2.852882    3.218160
     49          1           0       -6.173509   -0.199715    4.167356
     50          1           0       -7.991566   -1.795236    2.402458
     51          1           0       -8.015744   -0.027448    2.118543
     52          1           0       -8.420990   -0.614074    3.706696
     53          1           0       -3.913399   -0.976401    4.165754
     54          1           0       -3.416909   -2.596496    3.532298
     55          1           0       -5.472086   -2.973202    5.461374
     56          1           0       -4.596332   -1.603079    6.030295
     57          1           0       -5.923573    4.061448    3.438891
     58          1           0       -6.198244    5.473995    2.492698
     59          1           0       -4.565486    5.213473    3.158692
     60          1           0       -5.139878    7.058696    1.315681
     61          1           0       -3.802257    7.897683    0.348549
     62          1           0       -3.464049    6.644456    1.572463
     63          1           0       -3.622010    3.323822   -4.719141
     64          1           0       -4.865938    0.831223   -5.771557
     65          1           0       -5.458942    4.127947   -5.760513
     66          1           0       -6.446919    3.350878   -4.476457
     67          1           0       -6.144813    2.520253   -5.913735
     68          1           0       -2.781140    1.882394   -6.729142
     69          1           0       -2.686600    0.142687   -6.479485
     70          1           0       -1.495420    2.396851   -5.048918
     71          1           0       -0.692199    0.874507   -5.562722
     72          1           0       -1.747954    0.952677   -4.081513
     73          1           0       -3.356292   -4.986497   -3.855499
     74          1           0       -3.781584   -3.605767   -4.928708
     75          1           0       -5.108116   -4.518906   -4.096811
     76          1           0       -5.714166   -4.607574    0.981999
     77          1           0       -3.840016   -7.202115    3.876031
     78          1           0       -3.749221   -5.543146    4.724151
     79          1           0       -2.530693   -6.182966    3.605424
     80         12           0        4.505128    0.902480    0.640541
     81          6           0        4.727467   -2.144385   -1.242603
     82          6           0        3.307011   -0.962520    3.233008
     83          6           0        3.873895    3.611320    2.167365
     84          6           0        4.618189    2.620512   -2.389515
     85          7           0        4.113281   -1.264532    0.847303
     86          6           0        4.293960   -2.333399    0.086227
     87          6           0        4.070098   -3.686259    0.813705
     88          6           0        3.097398   -3.172167    1.983508
     89          6           0        3.552277   -1.716036    2.057359
     90          6           0        1.627772   -3.194474    1.597475
     91          6           0        5.401490   -4.280658    1.393443
     92          6           0        5.311550   -5.740362    1.843917
     93          1           0        6.476291   -6.600443    1.653913
     94          7           0        4.177556    1.244106    2.567864
     95          6           0        3.711151    0.367548    3.481869
     96          6           0        3.628848    1.112110    4.747968
     97          6           0        3.928182    2.543295    4.470802
     98          6           0        3.985657    2.524977    3.022891
     99          6           0        3.370936    0.446111    6.068319
    100          6           0        4.117121    3.734186    5.360916
    101          8           0        4.133642    4.927805    4.894190
    102          6           0        4.188645    3.468434    6.805122
    103          7           0        4.065420    2.824020   -0.020280
    104          6           0        3.884868    3.830830    0.852449
    105          6           0        3.855152    5.165609    0.146861
    106          6           0        4.297010    4.864743   -1.360391
    107          6           0        4.425096    3.327465   -1.284482
    108          6           0        2.508395    5.888548    0.147446
    109          6           0        5.495862    5.679685   -1.918350
    110          6           0        6.766304    5.286707   -1.199360
    111          7           0        4.831165    0.382534   -1.431029
    112          6           0        4.811095    1.253472   -2.542408
    113          6           0        4.970342    0.419938   -3.751659
    114          6           0        5.049544   -0.890780   -3.257478
    115          6           0        4.926642   -0.877083   -1.841781
    116          6           0        4.976386    0.893903   -5.093839
    117          6           0        5.198504   -2.283833   -3.612350
    118          8           0        5.429330   -2.894756   -4.655047
    119          6           0        4.869767   -3.168971   -2.333738
    120          6           0        5.956339   -4.199151   -2.190124
    121          8           0        7.123454   -3.855150   -1.932991
    122          8           0        5.401142   -5.424489   -2.164082
    123          6           0        6.438133   -6.479607   -2.011808
    124          1           0        2.712090   -1.416884    4.025795
    125          1           0        3.766178    4.584289    2.652340
    126          1           0        4.761451    3.089794   -3.365183
    127          1           0        3.571010   -4.443548    0.221089
    128          1           0        3.301955   -3.683526    2.920538
    129          1           0        1.488618   -3.441580    0.555493
    130          1           0        1.254353   -2.199931    1.803589
    131          1           0        1.074437   -3.867238    2.258944
    132          1           0        5.618917   -3.800043    2.355981
    133          1           0        6.205990   -4.167565    0.693010
    134          1           0        4.405491   -6.232176    1.469583
    135          1           0        5.198701   -5.761853    2.930568
    136          1           0        3.026089   -0.586993    5.937179
    137          1           0        2.518809    0.960969    6.525114
    138          1           0        4.225584    0.508023    6.745383
    139          1           0        3.276696    2.970826    7.126355
    140          1           0        4.414734    4.430751    7.268490
    141          1           0        5.011266    2.769119    6.991849
    142          1           0        4.564607    5.853382    0.590414
    143          1           0        3.486525    5.077757   -2.072840
    144          1           0        2.557799    6.903074    0.586045
    145          1           0        1.793259    5.277565    0.682072
    146          1           0        2.039287    5.991861   -0.829519
    147          1           0        5.349537    6.746030   -1.729548
    148          1           0        5.640516    5.558670   -2.986723
    149          1           0        6.731576    5.891755   -0.288426
    150          1           0        7.638738    5.530625   -1.802181
    151          1           0        6.737605    4.233483   -0.896809
    152          1           0        5.778630    0.376623   -5.603076
    153          1           0        5.109605    1.972984   -5.133828
    154          1           0        3.974929    0.591865   -5.411848
    155          1           0        3.891919   -3.624886   -2.493516
    156          1           0        6.311267   -7.175188   -2.847123
    157          1           0        6.302558   -6.886786   -0.992213
    158          1           0        7.473883   -6.186093   -2.136438
 ---------------------------------------------------------------------

 SCF Done:  E(RCAM-B3LYP) =  -4069.81293310     A.U. after   19 cycles

 Excitation energies and oscillator strengths:

 Excited State   1:      Singlet-A      1.6574 eV  748.08 nm  f=0.1346  <S**2>=0.000
     309 -> 315       -0.10741
     310 -> 316        0.12981
     311 -> 313       -0.43474
     312 -> 314        0.53200
 This state for optimization and/or second-order correction.
 Total Energy, E(TD-HF/TD-DFT) =  -4069.75202627
 Copying the excited state density for this state as the 1-particle RhoCI density.

 Excited State   2:      Singlet-A      1.6896 eV  733.81 nm  f=0.5484  <S**2>=0.000
     309 -> 315        0.13829
     310 -> 316        0.11065
     311 -> 313        0.53020
     312 -> 314        0.43329

 Excited State   3:      Singlet-A      2.1807 eV  568.55 nm  f=0.0635  <S**2>=0.000
     309 -> 313       -0.22410
     310 -> 314        0.60428
     312 -> 316       -0.24999

 Excited State   4:      Singlet-A      2.1955 eV  564.72 nm  f=0.1247  <S**2>=0.000
     309 -> 313        0.60001
     310 -> 314        0.22100
     311 -> 315       -0.26323

 Excited State   5:      Singlet-A      2.3266 eV  532.89 nm  f=0.0000  <S**2>=0.000
     312 -> 313        0.70708

 The electronic state is 1-A.
 Alpha  occ. eigenvalues --  -46.87936 -46.87391 -19.26665 -19.26029 -19.19452
 Alpha  occ. eigenvalues --  -19.18919 -19.18863 -19.18571 -19.18356 -19.17803
 Alpha  occ. eigenvalues --  -14.42601 -14.42176 -14.41581 -14.41099 -14.39537
 Alpha  occ. eigenvalues --  -14.39098 -14.38731 -14.38339 -10.39471 -10.38788
 Alpha  occ. eigenvalues --  -10.35549 -10.35254 -10.34585 -10.33971 -10.32091
 Alpha  occ. eigenvalues --  -10.31568 -10.31445 -10.31078 -10.30952 -10.30716
 Alpha  occ. eigenvalues --  -10.30697 -10.30642 -10.30315 -10.30163 -10.30096
 Alpha  occ. eigenvalues --  -10.30050 -10.29902 -10.29763 -10.29654 -10.29374
 Alpha  occ. eigenvalues --  -10.29192 -10.29177 -10.28978 -10.28885 -10.28518
 Alpha  occ. eigenvalues --  -10.28311 -10.28258 -10.28220 -10.28136 -10.27926
 Alpha  occ. eigenvalues --  -10.27868 -10.27759 -10.27711 -10.27580 -10.27571
 Alpha  occ. eigenvalues --  -10.27570 -10.27544 -10.27521 -10.27397 -10.27349
 Alpha  occ. eigenvalues --  -10.27311 -10.27306 -10.27253 -10.27192 -10.27171
 Alpha  occ. eigenvalues --  -10.27019 -10.26741 -10.26467 -10.26402 -10.26334
 Alpha  occ. eigenvalues --  -10.26291 -10.26229 -10.26135 -10.25958 -10.25925
 Alpha  occ. eigenvalues --  -10.25690 -10.25682 -10.25518 -10.25201 -10.24977
 Alpha  occ. eigenvalues --  -10.24969 -10.24923 -10.24732 -10.24628 -10.24565
 Alpha  occ. eigenvalues --  -10.24448  -3.16678  -3.16142  -1.91560  -1.91147
 Alpha  occ. eigenvalues --   -1.91024  -1.90988  -1.90612  -1.90450  -1.17017
 Alpha  occ. eigenvalues --   -1.16328  -1.08830  -1.08407  -1.07320  -1.07042
 Alpha  occ. eigenvalues --   -1.06829  -1.06647  -1.04737  -1.04177  -1.03896
 Alpha  occ. eigenvalues --   -1.03387  -1.03369  -1.02788  -1.02549  -1.01849
 Alpha  occ. eigenvalues --   -0.92149  -0.91698  -0.89632  -0.89395  -0.89261
 Alpha  occ. eigenvalues --   -0.88637  -0.88396  -0.87996  -0.87992  -0.87829
 Alpha  occ. eigenvalues --   -0.87564  -0.87384  -0.87376  -0.86936  -0.85181
 Alpha  occ. eigenvalues --   -0.84596  -0.84051  -0.83661  -0.83065  -0.82833
 Alpha  occ. eigenvalues --   -0.82775  -0.82287  -0.81826  -0.81303  -0.80777
 Alpha  occ. eigenvalues --   -0.80165  -0.78916  -0.78417  -0.77369  -0.77141
 Alpha  occ. eigenvalues --   -0.76857  -0.76525  -0.76122  -0.75401  -0.75026
 Alpha  occ. eigenvalues --   -0.74542  -0.72907  -0.72431  -0.71827  -0.71230
 Alpha  occ. eigenvalues --   -0.69994  -0.69536  -0.69058  -0.68451  -0.67800
 Alpha  occ. eigenvalues --   -0.67423  -0.67354  -0.66880  -0.65492  -0.65039
 Alpha  occ. eigenvalues --   -0.64892  -0.64799  -0.64486  -0.64389  -0.64325
 Alpha  occ. eigenvalues --   -0.63959  -0.62554  -0.61993  -0.60555  -0.60136
 Alpha  occ. eigenvalues --   -0.59986  -0.59383  -0.59142  -0.58715  -0.58668
 Alpha  occ. eigenvalues --   -0.58155  -0.57831  -0.57450  -0.57269  -0.57005
 Alpha  occ. eigenvalues --   -0.56474  -0.56253  -0.55950  -0.55666  -0.55583
 Alpha  occ. eigenvalues --   -0.55510  -0.55199  -0.55003  -0.54730  -0.54230
 Alpha  occ. eigenvalues --   -0.54109  -0.53441  -0.53432  -0.53400  -0.53139
 Alpha  occ. eigenvalues --   -0.52992  -0.52889  -0.52851  -0.52622  -0.52524
 Alpha  occ. eigenvalues --   -0.52344  -0.52197  -0.52038  -0.51812  -0.51681
 Alpha  occ. eigenvalues --   -0.51365  -0.51305  -0.50920  -0.50660  -0.50306
 Alpha  occ. eigenvalues --   -0.50142  -0.50045  -0.49713  -0.49687  -0.49611
 Alpha  occ. eigenvalues --   -0.49388  -0.49284  -0.49159  -0.48914  -0.48801
 Alpha  occ. eigenvalues --   -0.48626  -0.48618  -0.48565  -0.48212  -0.48159
 Alpha  occ. eigenvalues --   -0.48094  -0.47854  -0.47439  -0.47283  -0.46944
 Alpha  occ. eigenvalues --   -0.46879  -0.46764  -0.46510  -0.46417  -0.46316
 Alpha  occ. eigenvalues --   -0.46123  -0.46023  -0.46020  -0.45839  -0.45514
 Alpha  occ. eigenvalues --   -0.45319  -0.44966  -0.44766  -0.44653  -0.44304
 Alpha  occ. eigenvalues --   -0.44255  -0.44250  -0.44177  -0.44156  -0.43863
 Alpha  occ. eigenvalues --   -0.43719  -0.43698  -0.43643  -0.43552  -0.43256
 Alpha  occ. eigenvalues --   -0.43187  -0.43035  -0.43000  -0.42767  -0.42634
 Alpha  occ. eigenvalues --   -0.42602  -0.42334  -0.42158  -0.41872  -0.41728
 Alpha  occ. eigenvalues --   -0.41694  -0.41374  -0.41299  -0.41100  -0.41049
 Alpha  occ. eigenvalues --   -0.40960  -0.40689  -0.40626  -0.40503  -0.40480
 Alpha  occ. eigenvalues --   -0.40356  -0.40125  -0.39834  -0.39524  -0.39215
 Alpha  occ. eigenvalues --   -0.38597  -0.38085  -0.37997  -0.37459  -0.37445
 Alpha  occ. eigenvalues --   -0.37305  -0.37028  -0.36992  -0.36834  -0.36483
 Alpha  occ. eigenvalues --   -0.36386  -0.35929  -0.34437  -0.34141  -0.33972
 Alpha  occ. eigenvalues --   -0.33572  -0.33340  -0.32910  -0.31453  -0.31188
 Alpha  occ. eigenvalues --   -0.31126  -0.30686  -0.30223  -0.29701  -0.29577
 Alpha  occ. eigenvalues --   -0.29461  -0.29113  -0.28974  -0.24228  -0.23762
 Alpha  occ. eigenvalues --   -0.21264  -0.20844
 Alpha virt. eigenvalues --   -0.08910  -0.08544  -0.01883  -0.01426  -0.00193
 Alpha virt. eigenvalues --    0.00212   0.02044   0.02437   0.02836   0.03529
 Alpha virt. eigenvalues --    0.04529   0.04738   0.05087   0.05467   0.05890

 Mulliken charges:
               1
     1  Mg   0.838873
     2  C   -0.004184
     3  C   -0.094290
     4  C   -0.045632
     5  C   -0.063170
     6  N   -0.256794
     7  C   -0.052875
     8  C   -0.014002
     9  C   -0.087008
    10  C    0.046146
    11  C    0.104714
    12  C    0.053655
    13  C   -0.071122
    14  H    0.032941
    15  N   -0.433240
    16  C    0.168716
    17  C   -0.176621
    18  C   -0.003485
    19  C    0.148796
    20  C    0.109946
    21  C    0.012401
    22  O   -0.249755
    23  C    0.062131
    24  N   -0.341057
    25  C    0.041479
    26  C   -0.028251
    27  C   -0.024048
    28  C    0.074650
    29  C    0.076098
    30  C    0.034969
    31  C   -0.004524
    32  N   -0.310350
    33  C    0.080082
    34  C   -0.169336
    35  C    0.007939
    36  C    0.082576
    37  C    0.127341
    38  C    0.045320
    39  O   -0.188880
    40  C   -0.005303
    41  C    0.214075
    42  O   -0.260333
    43  O   -0.303657
    44  C    0.158186
    45  H   -0.017408
    46  H   -0.016609
    47  H   -0.040540
    48  H    0.000924
    49  H   -0.004199
    50  H    0.025573
    51  H    0.016978
    52  H    0.016897
    53  H    0.011271
    54  H    0.041619
    55  H    0.018943
    56  H    0.018477
    57  H    0.005686
    58  H    0.027139
    59  H    0.040770
    60  H    0.037464
    61  H    0.035853
    62  H    0.032819
    63  H    0.016451
    64  H    0.009844
    65  H    0.023377
    66  H    0.012539
    67  H    0.005155
    68  H    0.006468
    69  H    0.005843
    70  H    0.007755
    71  H    0.019168
    72  H    0.029166
    73  H    0.047719
    74  H    0.010285
    75  H    0.046128
    76  H    0.035717
    77  H    0.043975
    78  H    0.046598
    79  H    0.050729
    80  Mg   0.837207
    81  C   -0.016904
    82  C   -0.087629
    83  C   -0.046735
    84  C   -0.065438
    85  N   -0.255261
    86  C   -0.048048
    87  C   -0.015370
    88  C   -0.091010
    89  C    0.046667
    90  C    0.116276
    91  C    0.062376
    92  C   -0.077442
    93  H    0.032722
    94  N   -0.423456
    95  C    0.163010
    96  C   -0.175199
    97  C   -0.008914
    98  C    0.152371
    99  C    0.099846
   100  C    0.014658
   101  O   -0.254281
   102  C    0.061511
   103  N   -0.350278
   104  C    0.037711
   105  C   -0.019786
   106  C   -0.034741
   107  C    0.089026
   108  C    0.073434
   109  C    0.034894
   110  C   -0.007520
   111  N   -0.324074
   112  C    0.078643
   113  C   -0.163903
   114  C    0.002213
   115  C    0.096149
   116  C    0.131639
   117  C    0.041799
   118  O   -0.188601
   119  C    0.001294
   120  C    0.211047
   121  O   -0.251784
   122  O   -0.304621
   123  C    0.152423
   124  H   -0.018796
   125  H   -0.016940
   126  H   -0.041296
   127  H    0.002171
   128  H   -0.006420
   129  H    0.026153
   130  H    0.011898
   131  H    0.026617
   132  H    0.012673
   133  H    0.036460
   134  H    0.023278
   135  H    0.018758
   136  H    0.009068
   137  H    0.024156
   138  H    0.039043
   139  H    0.037144
   140  H    0.035394
   141  H    0.034058
   142  H    0.013646
   143  H    0.012778
   144  H    0.023808
   145  H    0.010509
   146  H    0.008033
   147  H    0.005872
   148  H    0.003294
   149  H    0.010526
   150  H    0.017374
   151  H    0.030376
   152  H    0.045592
   153  H    0.008108
   154  H    0.045502
   155  H    0.037247
   156  H    0.043597
   157  H    0.050052
   158  H    0.052659
 Sum of Mulliken charges =  -0.00000

 Dipole moment (field-independent basis, Debye):
    X=             -5.4756    Y=              1.6498    Z=              5.9500  Tot=              8.2527
 Quadrupole moment (field-independent basis, Debye-Ang):
   XX=           -518.2678   YY=           -529.2901   ZZ=           -471.5020
   XY=             -7.9879   XZ=             -1.1203   YZ=            -29.7364

 Normal termination of Gaussian 16 at Sat Sep  4 00:08:16 2021.
