 Gaussian 16, Revision A.03,
 Gaussian 16:  ES64L-G16RevA.03 25-Dec-2016

 -----------------------------------
 #p cam-b3lyp/Def2SVP td=(nstates=5)
 -----------------------------------

 --------------------------------
 TDDFT excited states in gaussian
 --------------------------------
 Symbolic Z-matrix:
 Charge =  0 Multiplicity = 1

                         Standard orientation:
 ---------------------------------------------------------------------
 Center     Atomic      Atomic             Coordinates (Angstroms)
 Number     Number       Type             X           Y           Z
 ---------------------------------------------------------------------
      1         12           0        3.715572   -1.239085    0.576796
      2          6           0        4.785358    1.022603   -1.982997
      3          6           0        5.258488    0.811317    2.825867
      4          6           0        3.177620   -3.443972    2.791678
      5          6           0        3.268151   -3.624959   -1.923821
      6          7           0        4.843806    0.649598    0.330606
      7          6           0        5.131181    1.442801   -0.696729
      8          6           0        5.767788    2.799464   -0.270618
      9          6           0        6.366784    2.364002    1.141321
     10          6           0        5.412184    1.229940    1.470816
     11          6           0        7.783210    1.804592    1.055876
     12          6           0        4.700192    3.934208   -0.114645
     13          6           0        5.265178    5.354604   -0.021813
     14          1           0        4.520010    6.445867   -0.631091
     15          7           0        3.715109   -1.101923    2.547591
     16          6           0        4.387306   -0.194905    3.296428
     17          6           0        4.063529   -0.508879    4.704714
     18          6           0        3.300860   -1.787993    4.721977
     19          6           0        3.391161   -2.181043    3.338961
     20          6           0        4.426789    0.383978    5.851273
     21          6           0        2.610581   -2.542465    5.813956
     22          8           0        2.208065   -3.746113    5.659728
     23          6           0        2.495324   -1.857651    7.114260
     24          7           0        3.493554   -3.312987    0.491499
     25          6           0        3.209282   -4.022277    1.589261
     26          6           0        2.819362   -5.429082    1.244588
     27          6           0        2.660418   -5.467204   -0.343819
     28          6           0        3.090739   -4.013329   -0.659004
     29          6           0        3.801683   -6.522969    1.685573
     30          6           0        1.307229   -5.973593   -0.903164
     31          6           0        0.210056   -4.991005   -0.559897
     32          7           0        3.800768   -1.270368   -1.591800
     33          6           0        3.602001   -2.378872   -2.427494
     34          6           0        3.868774   -1.932944   -3.807367
     35          6           0        4.222600   -0.591534   -3.675942
     36          6           0        4.205044   -0.229826   -2.298571
     37          6           0        3.826949   -2.751426   -4.970454
     38          6           0        4.635314    0.613808   -4.376423
     39          8           0        4.733930    0.937702   -5.560847
     40          6           0        5.134238    1.674039   -3.298085
     41          6           0        4.486572    2.992368   -3.623428
     42          8           0        3.253314    3.144874   -3.508613
     43          8           0        5.436432    3.925912   -3.787152
     44          6           0        4.859770    5.264540   -4.083280
     45          1           0        5.903532    1.249391    3.590034
     46          1           0        2.880523   -4.208577    3.512476
     47          1           0        3.066931   -4.291750   -2.764269
     48          1           0        6.568126    3.150529   -0.922260
     49          1           0        6.281256    3.158659    1.882217
     50          1           0        8.099502    1.677286    0.020659
     51          1           0        7.746641    0.840783    1.564038
     52          1           0        8.477709    2.419357    1.629035
     53          1           0        4.233130    3.855795    0.867070
     54          1           0        3.968612    3.889268   -0.922171
     55          1           0        6.311052    5.388356   -0.328274
     56          1           0        5.280876    5.648001    1.027888
     57          1           0        5.125022    1.162672    5.546885
     58          1           0        4.988794   -0.222357    6.561356
     59          1           0        3.546960    0.802170    6.340505
     60          1           0        3.492082   -1.611833    7.481134
     61          1           0        1.895672   -2.511601    7.746413
     62          1           0        1.979409   -0.908123    6.968740
     63          1           0        1.868923   -5.695451    1.705174
     64          1           0        3.401291   -6.114582   -0.813588
     65          1           0        3.352386   -7.282952    2.325311
     66          1           0        4.642462   -6.040301    2.182980
     67          1           0        4.302390   -7.043613    0.869706
     68          1           0        1.040096   -6.925458   -0.445409
     69          1           0        1.314396   -6.115738   -1.983902
     70          1           0       -0.067623   -5.280273    0.453044
     71          1           0       -0.631660   -5.106592   -1.243537
     72          1           0        0.589768   -3.970092   -0.514710
     73          1           0        3.312996   -2.168955   -5.735012
     74          1           0        3.311062   -3.691234   -4.774944
     75          1           0        4.891553   -2.890599   -5.157821
     76          1           0        6.219610    1.719391   -3.381948
     77          1           0        5.303800    5.605550   -5.018578
     78          1           0        5.020969    5.874886   -3.194518
     79          1           0        3.799724    5.287008   -4.338499
     80         12           0       -3.791650    1.302137    0.321626
     81          6           0       -4.534542   -1.254437   -2.084841
     82          6           0       -5.237665   -0.700619    2.673780
     83          6           0       -3.559222    3.711770    2.372747
     84          6           0       -3.461276    3.521762   -2.344792
     85          7           0       -4.728461   -0.697128    0.189111
     86          6           0       -4.898200   -1.598691   -0.766251
     87          6           0       -5.416647   -2.974285   -0.267733
     88          6           0       -6.123743   -2.487310    1.089388
     89          6           0       -5.293668   -1.234484    1.361553
     90          6           0       -7.571739   -2.068347    0.896745
     91          6           0       -4.250466   -3.983220    0.022220
     92          6           0       -4.690144   -5.436333    0.214367
     93          1           0       -3.814493   -6.498667   -0.272616
     94          7           0       -3.865955    1.312269    2.304792
     95          6           0       -4.476281    0.409450    3.100844
     96          6           0       -4.259060    0.876294    4.478900
     97          6           0       -3.612322    2.215490    4.424027
     98          6           0       -3.674354    2.480048    3.000559
     99          6           0       -4.581535    0.038663    5.682147
    100          6           0       -3.044963    3.115453    5.479659
    101          8           0       -2.747850    4.337798    5.233856
    102          6           0       -2.934807    2.550774    6.832629
    103          7           0       -3.754385    3.366015    0.073903
    104          6           0       -3.592359    4.185918    1.127191
    105          6           0       -3.320683    5.602228    0.679265
    106          6           0       -3.093124    5.516735   -0.901399
    107          6           0       -3.373022    4.013133   -1.116403
    108          6           0       -4.422393    6.618076    0.980362
    109          6           0       -1.767770    6.108365   -1.454654
    110          6           0       -0.595770    5.276797   -0.985304
    111          7           0       -3.777462    1.152916   -1.833734
    112          6           0       -3.651370    2.210320   -2.761146
    113          6           0       -3.813908    1.628643   -4.109357
    114          6           0       -4.048054    0.266194   -3.869775
    115          6           0       -4.052619    0.019923   -2.470187
    116          6           0       -3.786223    2.350680   -5.335748
    117          6           0       -4.302964   -1.017793   -4.482209
    118          8           0       -4.324596   -1.440195   -5.637572
    119          6           0       -4.755006   -2.037137   -3.349516
    120          6           0       -3.973810   -3.309644   -3.531122
    121          8           0       -2.740939   -3.323088   -3.368486
    122          8           0       -4.831140   -4.339556   -3.652033
    123          6           0       -4.103545   -5.625285   -3.823262
    124          1           0       -5.868604   -1.147027    3.442877
    125          1           0       -3.366300    4.560987    3.032357
    126          1           0       -3.274548    4.130716   -3.231925
    127          1           0       -6.143612   -3.448014   -0.916478
    128          1           0       -5.990469   -3.213696    1.886865
    129          1           0       -7.852034   -2.055243   -0.146045
    130          1           0       -7.650020   -1.076374    1.322051
    131          1           0       -8.230993   -2.705079    1.493652
    132          1           0       -3.839015   -3.778071    1.018894
    133          1           0       -3.501745   -3.930563   -0.744111
    134          1           0       -5.720594   -5.603132   -0.122239
    135          1           0       -4.719941   -5.651138    1.285340
    136          1           0       -5.197820   -0.828658    5.415038
    137          1           0       -5.227907    0.642525    6.328216
    138          1           0       -3.691317   -0.251145    6.244472
    139          1           0       -3.918474    2.237719    7.174475
    140          1           0       -2.425676    3.312286    7.426550
    141          1           0       -2.315890    1.647818    6.785536
    142          1           0       -2.421644    5.988865    1.143319
    143          1           0       -3.870530    6.063419   -1.455130
    144          1           0       -4.071047    7.477542    1.581982
    145          1           0       -5.230535    6.105594    1.485138
    146          1           0       -4.921490    7.031013    0.105383
    147          1           0       -1.610112    7.116114   -1.062541
    148          1           0       -1.743889    6.176604   -2.537135
    149          1           0       -0.397517    5.672370    0.015345
    150          1           0        0.260591    5.416763   -1.641871
    151          1           0       -0.879974    4.224026   -0.873234
    152          1           0       -3.192492    1.767508   -6.027036
    153          1           0       -3.374331    3.348571   -5.200391
    154          1           0       -4.853493    2.375626   -5.571517
    155          1           0       -5.828237   -2.196141   -3.461209
    156          1           0       -4.475292   -6.082387   -4.745524
    157          1           0       -4.262977   -6.186258   -2.883243
    158          1           0       -3.039960   -5.576232   -4.025326
 ---------------------------------------------------------------------

 SCF Done:  E(RCAM-B3LYP) =  -4069.81250653     A.U. after   19 cycles

 Excitation energies and oscillator strengths:

 Excited State   1:      Singlet-A      1.6366 eV  757.58 nm  f=0.0035  <S**2>=0.000
     309 -> 315        0.11423
     310 -> 316       -0.10909
     311 -> 313        0.49886
     312 -> 314       -0.47417
 This state for optimization and/or second-order correction.
 Total Energy, E(TD-HF/TD-DFT) =  -4069.75236312
 Copying the excited state density for this state as the 1-particle RhoCI density.

 Excited State   2:      Singlet-A      1.7083 eV  725.79 nm  f=0.6801  <S**2>=0.000
     309 -> 315        0.12232
     310 -> 316        0.12939
     311 -> 313        0.47119
     312 -> 314        0.49553

 Excited State   3:      Singlet-A      2.1787 eV  569.06 nm  f=0.0093  <S**2>=0.000
     309 -> 313        0.53211
     310 -> 314        0.36503
     311 -> 315       -0.21432
     312 -> 316       -0.14650

 Excited State   4:      Singlet-A      2.1949 eV  564.86 nm  f=0.1623  <S**2>=0.000
     309 -> 313       -0.36031
     310 -> 314        0.52680
     311 -> 315        0.15429
     312 -> 316       -0.22561

 Excited State   5:      Singlet-A      2.3720 eV  522.69 nm  f=0.0000  <S**2>=0.000
     312 -> 313        0.70706

 The electronic state is 1-A.
 Alpha  occ. eigenvalues --  -46.87525 -46.87464 -19.26382 -19.26173 -19.19212
 Alpha  occ. eigenvalues --  -19.18896 -19.18669 -19.18621 -19.17922 -19.17887
 Alpha  occ. eigenvalues --  -14.42309 -14.42186 -14.41173 -14.41156 -14.39166
 Alpha  occ. eigenvalues --  -14.39144 -14.38388 -14.38296 -10.39099 -10.38941
 Alpha  occ. eigenvalues --  -10.35311 -10.35306 -10.34144 -10.34070 -10.31850
 Alpha  occ. eigenvalues --  -10.31626 -10.31124 -10.31108 -10.30874 -10.30687
 Alpha  occ. eigenvalues --  -10.30273 -10.30227 -10.30195 -10.30144 -10.29938
 Alpha  occ. eigenvalues --  -10.29934 -10.29679 -10.29628 -10.29352 -10.29242
 Alpha  occ. eigenvalues --  -10.29200 -10.28988 -10.28618 -10.28596 -10.28549
 Alpha  occ. eigenvalues --  -10.28407 -10.28230 -10.28115 -10.27991 -10.27895
 Alpha  occ. eigenvalues --  -10.27803 -10.27520 -10.27471 -10.27455 -10.27330
 Alpha  occ. eigenvalues --  -10.27310 -10.27303 -10.27283 -10.27271 -10.27267
 Alpha  occ. eigenvalues --  -10.27185 -10.27182 -10.27171 -10.27150 -10.26949
 Alpha  occ. eigenvalues --  -10.26944 -10.26597 -10.26529 -10.26410 -10.26364
 Alpha  occ. eigenvalues --  -10.26030 -10.25890 -10.25795 -10.25762 -10.25700
 Alpha  occ. eigenvalues --  -10.25696 -10.25530 -10.25432 -10.25244 -10.25229
 Alpha  occ. eigenvalues --  -10.24671 -10.24554 -10.24531 -10.24503 -10.24233
 Alpha  occ. eigenvalues --  -10.24055  -3.16267  -3.16213  -1.91149  -1.91096
 Alpha  occ. eigenvalues --   -1.90736  -1.90684  -1.90578  -1.90521  -1.16671
 Alpha  occ. eigenvalues --   -1.16516  -1.08505  -1.08383  -1.07080  -1.06963
 Alpha  occ. eigenvalues --   -1.06881  -1.06509  -1.04323  -1.04313  -1.03490
 Alpha  occ. eigenvalues --   -1.03471  -1.02957  -1.02834  -1.02136  -1.01910
 Alpha  occ. eigenvalues --   -0.91819  -0.91720  -0.89264  -0.89201  -0.89003
 Alpha  occ. eigenvalues --   -0.88966  -0.87990  -0.87986  -0.87562  -0.87553
 Alpha  occ. eigenvalues --   -0.87489  -0.87410  -0.87057  -0.86970  -0.84856
 Alpha  occ. eigenvalues --   -0.84763  -0.83638  -0.83615  -0.82804  -0.82784
 Alpha  occ. eigenvalues --   -0.82518  -0.82432  -0.81491  -0.81380  -0.80370
 Alpha  occ. eigenvalues --   -0.80307  -0.78546  -0.78451  -0.76965  -0.76943
 Alpha  occ. eigenvalues --   -0.76748  -0.76703  -0.75701  -0.75697  -0.74629
 Alpha  occ. eigenvalues --   -0.74612  -0.72487  -0.72484  -0.71427  -0.71413
 Alpha  occ. eigenvalues --   -0.69530  -0.69465  -0.68679  -0.68647  -0.67440
 Alpha  occ. eigenvalues --   -0.67402  -0.67083  -0.67028  -0.65131  -0.65058
 Alpha  occ. eigenvalues --   -0.64607  -0.64602  -0.64500  -0.64374  -0.63978
 Alpha  occ. eigenvalues --   -0.63964  -0.62185  -0.62101  -0.60208  -0.60173
 Alpha  occ. eigenvalues --   -0.59635  -0.59568  -0.58811  -0.58725  -0.58261
 Alpha  occ. eigenvalues --   -0.58250  -0.57448  -0.57370  -0.57057  -0.57056
 Alpha  occ. eigenvalues --   -0.56060  -0.56038  -0.55814  -0.55813  -0.55341
 Alpha  occ. eigenvalues --   -0.55309  -0.55080  -0.55063  -0.54327  -0.54269
 Alpha  occ. eigenvalues --   -0.53778  -0.53682  -0.53086  -0.53076  -0.53002
 Alpha  occ. eigenvalues --   -0.52979  -0.52785  -0.52698  -0.52577  -0.52565
 Alpha  occ. eigenvalues --   -0.52081  -0.52029  -0.51627  -0.51575  -0.51534
 Alpha  occ. eigenvalues --   -0.51408  -0.51018  -0.50923  -0.50396  -0.50346
 Alpha  occ. eigenvalues --   -0.49846  -0.49756  -0.49669  -0.49633  -0.49368
 Alpha  occ. eigenvalues --   -0.49311  -0.49074  -0.48988  -0.48945  -0.48868
 Alpha  occ. eigenvalues --   -0.48432  -0.48371  -0.48270  -0.48229  -0.48197
 Alpha  occ. eigenvalues --   -0.48186  -0.47467  -0.47446  -0.47069  -0.46965
 Alpha  occ. eigenvalues --   -0.46527  -0.46503  -0.46410  -0.46350  -0.46089
 Alpha  occ. eigenvalues --   -0.46078  -0.45905  -0.45891  -0.45664  -0.45565
 Alpha  occ. eigenvalues --   -0.45007  -0.44922  -0.44384  -0.44360  -0.44295
 Alpha  occ. eigenvalues --   -0.44257  -0.43996  -0.43909  -0.43852  -0.43832
 Alpha  occ. eigenvalues --   -0.43823  -0.43767  -0.43440  -0.43272  -0.43232
 Alpha  occ. eigenvalues --   -0.43134  -0.42860  -0.42775  -0.42726  -0.42536
 Alpha  occ. eigenvalues --   -0.42319  -0.42313  -0.41722  -0.41671  -0.41499
 Alpha  occ. eigenvalues --   -0.41454  -0.41302  -0.41283  -0.40904  -0.40823
 Alpha  occ. eigenvalues --   -0.40685  -0.40626  -0.40601  -0.40536  -0.40263
 Alpha  occ. eigenvalues --   -0.40254  -0.40123  -0.40051  -0.39120  -0.39032
 Alpha  occ. eigenvalues --   -0.38183  -0.38144  -0.37551  -0.37540  -0.37072
 Alpha  occ. eigenvalues --   -0.37034  -0.37030  -0.37028  -0.36738  -0.36534
 Alpha  occ. eigenvalues --   -0.36045  -0.35948  -0.34070  -0.34014  -0.33847
 Alpha  occ. eigenvalues --   -0.33617  -0.32982  -0.32915  -0.31199  -0.31180
 Alpha  occ. eigenvalues --   -0.30796  -0.30781  -0.29794  -0.29781  -0.29202
 Alpha  occ. eigenvalues --   -0.29151  -0.29032  -0.29000  -0.23841  -0.23808
 Alpha  occ. eigenvalues --   -0.20915  -0.20848
 Alpha virt. eigenvalues --   -0.08600  -0.08508  -0.01496  -0.01487   0.00113
 Alpha virt. eigenvalues --    0.00151   0.02338   0.02440   0.02519   0.04494
 Alpha virt. eigenvalues --    0.04810   0.04951   0.05118   0.05226   0.05984

 Mulliken charges:
               1
     1  Mg   0.838986
     2  C   -0.003585
     3  C   -0.093916
     4  C   -0.046277
     5  C   -0.060013
     6  N   -0.256815
     7  C   -0.052373
     8  C   -0.014193
     9  C   -0.086928
    10  C    0.045940
    11  C    0.104963
    12  C    0.052906
    13  C   -0.070992
    14  H    0.033788
    15  N   -0.432929
    16  C    0.168051
    17  C   -0.177634
    18  C   -0.004986
    19  C    0.148334
    20  C    0.110353
    21  C    0.010950
    22  O   -0.251262
    23  C    0.062988
    24  N   -0.341366
    25  C    0.041264
    26  C   -0.027571
    27  C   -0.024085
    28  C    0.075242
    29  C    0.076592
    30  C    0.035197
    31  C   -0.008968
    32  N   -0.311392
    33  C    0.082710
    34  C   -0.165474
    35  C    0.008064
    36  C    0.084443
    37  C    0.127032
    38  C    0.046914
    39  O   -0.188434
    40  C   -0.005889
    41  C    0.212998
    42  O   -0.257579
    43  O   -0.304491
    44  C    0.158185
    45  H   -0.018363
    46  H   -0.018163
    47  H   -0.039630
    48  H    0.000427
    49  H   -0.004162
    50  H    0.025094
    51  H    0.016395
    52  H    0.016093
    53  H    0.012454
    54  H    0.043865
    55  H    0.017711
    56  H    0.018567
    57  H    0.005983
    58  H    0.025729
    59  H    0.038927
    60  H    0.037910
    61  H    0.033368
    62  H    0.029917
    63  H    0.015412
    64  H    0.008521
    65  H    0.021719
    66  H    0.012079
    67  H    0.004313
    68  H    0.002311
    69  H    0.005799
    70  H    0.002442
    71  H    0.030074
    72  H    0.031663
    73  H    0.050192
    74  H    0.011565
    75  H    0.044480
    76  H    0.034727
    77  H    0.042926
    78  H    0.046169
    79  H    0.051723
    80  Mg   0.838113
    81  C   -0.017396
    82  C   -0.087215
    83  C   -0.045784
    84  C   -0.062181
    85  N   -0.254551
    86  C   -0.050014
    87  C   -0.015624
    88  C   -0.090254
    89  C    0.045400
    90  C    0.114533
    91  C    0.059683
    92  C   -0.076939
    93  H    0.031670
    94  N   -0.423379
    95  C    0.162776
    96  C   -0.174900
    97  C   -0.008669
    98  C    0.151867
    99  C    0.099591
   100  C    0.014361
   101  O   -0.254412
   102  C    0.061743
   103  N   -0.350253
   104  C    0.037602
   105  C   -0.019351
   106  C   -0.035040
   107  C    0.089348
   108  C    0.074028
   109  C    0.034360
   110  C   -0.008340
   111  N   -0.324923
   112  C    0.080548
   113  C   -0.159437
   114  C    0.002117
   115  C    0.097476
   116  C    0.131242
   117  C    0.043291
   118  O   -0.187898
   119  C   -0.000166
   120  C    0.210766
   121  O   -0.250765
   122  O   -0.305037
   123  C    0.151601
   124  H   -0.020193
   125  H   -0.016564
   126  H   -0.038768
   127  H   -0.001295
   128  H   -0.004191
   129  H    0.022096
   130  H    0.014436
   131  H    0.015873
   132  H    0.015994
   133  H    0.040681
   134  H    0.020747
   135  H    0.020621
   136  H    0.009096
   137  H    0.025153
   138  H    0.039587
   139  H    0.038801
   140  H    0.034471
   141  H    0.032302
   142  H    0.013620
   143  H    0.011730
   144  H    0.023994
   145  H    0.011178
   146  H    0.005367
   147  H    0.003582
   148  H    0.005027
   149  H    0.006136
   150  H    0.026157
   151  H    0.032438
   152  H    0.048497
   153  H    0.010521
   154  H    0.045655
   155  H    0.034827
   156  H    0.044391
   157  H    0.049335
   158  H    0.052127
 Sum of Mulliken charges =  -0.00000

 Dipole moment (field-independent basis, Debye):
    X=             -0.0626    Y=              0.0481    Z=              6.4571  Tot=              6.4576
 Quadrupole moment (field-independent basis, Debye-Ang):
   XX=           -475.0000   YY=           -471.4024   ZZ=           -540.4049
   XY=             23.8753   XZ=              3.4963   YZ=             -3.0402

 Normal termination of Gaussian 16 at Wed Sep  8 18:40:36 2021.
