 Gaussian 16, Revision A.03,
 Gaussian 16:  ES64L-G16RevA.03 25-Dec-2016

 -----------------------------------
 #p cam-b3lyp/Def2SVP td=(nstates=5)
 -----------------------------------

 --------------------------------
 TDDFT excited states in gaussian
 --------------------------------
 Symbolic Z-matrix:
 Charge =  0 Multiplicity = 1

                         Standard orientation:
 ---------------------------------------------------------------------
 Center     Atomic      Atomic             Coordinates (Angstroms)
 Number     Number       Type             X           Y           Z
 ---------------------------------------------------------------------
      1         12           0       -5.193710    0.654498    0.435879
      2          6           0       -5.583103   -2.310682   -1.530919
      3          6           0       -5.799242   -1.270201    3.187593
      4          6           0       -5.305079    3.323910    2.144228
      5          6           0       -5.745765    2.483028   -2.479147
      6          7           0       -5.621229   -1.504901    0.670119
      7          6           0       -5.683532   -2.543370   -0.157451
      8          6           0       -5.790059   -3.913216    0.577089
      9          6           0       -6.412596   -3.411455    1.956467
     10          6           0       -5.884693   -1.987643    1.957549
     11          6           0       -7.937319   -3.369991    1.957476
     12          6           0       -4.391322   -4.583935    0.790161
     13          6           0       -4.429676   -6.058683    1.201259
     14          1           0       -3.395833   -6.952202    0.701119
     15          7           0       -5.023540    0.937061    2.383711
     16          6           0       -5.297056    0.037910    3.359417
     17          6           0       -5.013028    0.724688    4.637832
     18          6           0       -4.734147    2.155659    4.333460
     19          6           0       -5.039406    2.202376    2.926330
     20          6           0       -4.976916    0.020921    5.959633
     21          6           0       -4.276783    3.301878    5.179114
     22          8           0       -4.320492    4.511277    4.766782
     23          6           0       -3.853526    2.976638    6.553201
     24          7           0       -5.699908    2.623509   -0.037822
     25          6           0       -5.607435    3.598110    0.873543
     26          6           0       -5.744286    4.951507    0.241459
     27          6           0       -5.707288    4.708332   -1.336276
     28          6           0       -5.633357    3.161463   -1.334963
     29          6           0       -7.011886    5.735942    0.607328
     30          6           0       -4.646443    5.496765   -2.144607
     31          6           0       -3.260320    5.014971   -1.779046
     32          7           0       -5.419460    0.205750   -1.675687
     33          6           0       -5.664166    1.120056   -2.710500
     34          6           0       -5.847857    0.335736   -3.945476
     35          6           0       -5.712813   -0.989883   -3.537623
     36          6           0       -5.486832   -1.032319   -2.132126
     37          6           0       -6.160971    0.863606   -5.229122
     38          6           0       -5.731359   -2.381547   -3.958081
     39          8           0       -5.786916   -2.958316   -5.045161
     40          6           0       -5.769482   -3.297832   -2.656238
     41          6           0       -4.731733   -4.373571   -2.827037
     42          8           0       -3.516048   -4.092350   -2.846839
     43          8           0       -5.313415   -5.576287   -2.701888
     44          6           0       -4.333483   -6.687632   -2.831500
     45          1           0       -6.206672   -1.724382    4.092944
     46          1           0       -5.242989    4.275486    2.676287
     47          1           0       -5.837446    2.989264   -3.441838
     48          1           0       -6.461100   -4.631069    0.105057
     49          1           0       -6.014527   -3.963836    2.807430
     50          1           0       -8.341947   -3.569442    0.965298
     51          1           0       -8.200879   -2.362732    2.280675
     52          1           0       -8.342617   -4.042944    2.713548
     53          1           0       -3.918991   -4.156948    1.674834
     54          1           0       -3.771041   -4.473830   -0.100039
     55          1           0       -5.417921   -6.491166    1.042389
     56          1           0       -4.278656   -6.116791    2.279228
     57          1           0       -5.384366   -0.986756    5.888099
     58          1           0       -5.666934    0.546727    6.619263
     59          1           0       -3.978455    0.020404    6.397136
     60          1           0       -4.681242    2.503955    7.082357
     61          1           0       -3.475432    3.905328    6.979147
     62          1           0       -3.054199    2.236231    6.510528
     63          1           0       -4.915451    5.599963    0.522466
     64          1           0       -6.652598    4.969386   -1.812631
     65          1           0       -6.810555    6.715568    1.041500
     66          1           0       -7.604232    5.122011    1.285198
     67          1           0       -7.710243    5.885681   -0.215650
     68          1           0       -4.692869    6.556981   -1.898165
     69          1           0       -4.769125    5.401384   -3.223542
     70          1           0       -3.035711    5.581992   -0.876344
     71          1           0       -2.553200    5.251589   -2.574787
     72          1           0       -3.264499    3.959039   -1.507981
     73          1           0       -5.527564    0.333013   -5.939921
     74          1           0       -5.986371    1.938576   -5.268559
     75          1           0       -7.218477    0.609472   -5.299498
     76          1           0       -6.776922   -3.707577   -2.590699
     77          1           0       -4.691543   -7.340029   -3.627995
     78          1           0       -4.220561   -7.118796   -1.836637
     79          1           0       -3.347738   -6.419071   -3.212971
     80         12           0        5.347343    0.679648   -0.588848
     81          6           0        5.312691   -2.487144    1.099133
     82          6           0        4.759465    2.132321    2.440801
     83          6           0        4.924350    3.435362   -2.103636
     84          6           0        4.791722   -1.054844   -3.560125
     85          7           0        5.089566   -0.172853    1.435763
     86          6           0        5.158128   -1.384892    1.965492
     87          6           0        5.135803   -1.410757    3.517393
     88          6           0        4.394045   -0.009132    3.770606
     89          6           0        4.796960    0.715826    2.488116
     90          6           0        2.879142   -0.126142    3.797351
     91          6           0        6.577816   -1.417475    4.135900
     92          6           0        6.636122   -1.753150    5.627768
     93          1           0        7.773222   -2.523377    6.123978
     94          7           0        5.393961    2.541823    0.095772
     95          6           0        5.152219    2.950687    1.358966
     96          6           0        5.292564    4.414983    1.341700
     97          6           0        5.474729    4.852147   -0.069126
     98          6           0        5.245594    3.601428   -0.764314
     99          6           0        5.327065    5.243918    2.592737
    100          6           0        5.788903    6.179256   -0.690635
    101          8           0        5.665948    6.378633   -1.950776
    102          6           0        6.154845    7.264634    0.231068
    103          7           0        4.710531    1.148400   -2.511625
    104          6           0        4.666594    2.424336   -2.933522
    105          6           0        4.445581    2.498216   -4.425523
    106          6           0        4.592311    0.996828   -4.956440
    107          6           0        4.793192    0.270227   -3.608445
    108          6           0        3.098151    3.065909   -4.871110
    109          6           0        5.624276    0.749109   -6.090626
    110          6           0        7.026192    0.971320   -5.570408
    111          7           0        5.277710   -1.394640   -1.189276
    112          6           0        5.004179   -1.900600   -2.478954
    113          6           0        4.953929   -3.372839   -2.367418
    114          6           0        5.180685   -3.622146   -1.005464
    115          6           0        5.339550   -2.391247   -0.313250
    116          6           0        4.675958   -4.278574   -3.429724
    117          6           0        5.311208   -4.646264    0.005887
    118          8           0        5.355230   -5.875789   -0.003483
    119          6           0        5.276697   -3.952165    1.435369
    120          6           0        6.409846   -4.511870    2.250961
    121          8           0        7.590321   -4.297226    1.923820
    122          8           0        5.919347   -5.020690    3.395898
    123          6           0        7.006631   -5.578030    4.243843
    124          1           0        4.351282    2.669423    3.297409
    125          1           0        4.876450    4.353101   -2.694328
    126          1           0        4.720767   -1.671675   -4.458553
    127          1           0        4.559593   -2.219850    3.949989
    128          1           0        4.799694    0.500939    4.640456
    129          1           0        2.546637   -1.116273    3.523097
    130          1           0        2.515032    0.605303    3.087795
    131          1           0        2.494336    0.183207    4.773340
    132          1           0        6.962132   -0.389622    4.159424
    133          1           0        7.222950   -2.079076    3.591177
    134          1           0        5.693996   -2.181378    5.991043
    135          1           0        6.741196   -0.821605    6.189206
    136          1           0        5.003980    4.665882    3.467320
    137          1           0        4.562461    6.020568    2.482900
    138          1           0        6.295561    5.721871    2.754766
    139          1           0        5.344643    7.426609    0.938028
    140          1           0        6.430043    8.108019   -0.405211
    141          1           0        7.024974    6.947760    0.816787
    142          1           0        5.201108    3.113588   -4.898380
    143          1           0        3.649277    0.620084   -5.379036
    144          1           0        3.193350    3.941206   -5.541096
    145          1           0        2.527351    3.322807   -3.988652
    146          1           0        2.441520    2.357096   -5.372740
    147          1           0        5.476351    1.467419   -6.900752
    148          1           0        5.559570   -0.243231   -6.524292
    149          1           0        7.148428    2.055952   -5.645995
    150          1           0        7.752017    0.448205   -6.189752
    151          1           0        7.099276    0.704483   -4.509695
    152          1           0        5.381440   -5.093520   -3.336657
    153          1           0        4.756127   -3.791054   -4.399092
    154          1           0        3.644069   -4.549102   -3.190397
    155          1           0        4.305249   -4.168801    1.881369
    156          1           0        6.744610   -6.619231    4.455816
    157          1           0        7.091344   -4.893785    5.108936
    158          1           0        7.984964   -5.693865    3.792287
 ---------------------------------------------------------------------

 SCF Done:  E(RCAM-B3LYP) =  -4069.81188160     A.U. after   19 cycles

 Excitation energies and oscillator strengths:

 Excited State   1:      Singlet-A      1.6658 eV  744.31 nm  f=0.1941  <S**2>=0.000
     309 -> 315       -0.11041
     310 -> 316        0.13098
     311 -> 313        0.44122
     312 -> 314        0.52579
 This state for optimization and/or second-order correction.
 Total Energy, E(TD-HF/TD-DFT) =  -4069.75066620
 Copying the excited state density for this state as the 1-particle RhoCI density.

 Excited State   2:      Singlet-A      1.6856 eV  735.56 nm  f=0.5086  <S**2>=0.000
     309 -> 315       -0.13519
     310 -> 316       -0.11363
     311 -> 313        0.52483
     312 -> 314       -0.44060

 Excited State   3:      Singlet-A      2.1852 eV  567.39 nm  f=0.0785  <S**2>=0.000
     309 -> 313       -0.16560
     310 -> 314        0.62099
     312 -> 316       -0.26372

 Excited State   4:      Singlet-A      2.1912 eV  565.82 nm  f=0.1169  <S**2>=0.000
     309 -> 313        0.61923
     310 -> 314        0.16432
     311 -> 315        0.26807

 Excited State   5:      Singlet-A      2.4856 eV  498.81 nm  f=0.0000  <S**2>=0.000
     312 -> 313        0.70709

 The electronic state is 1-A.
 Alpha  occ. eigenvalues --  -46.87876 -46.87502 -19.26300 -19.26284 -19.19090
 Alpha  occ. eigenvalues --  -19.19037 -19.18955 -19.18577 -19.18239 -19.17919
 Alpha  occ. eigenvalues --  -14.42523 -14.42351 -14.41526 -14.41194 -14.39490
 Alpha  occ. eigenvalues --  -14.39197 -14.38665 -14.38437 -10.39099 -10.39016
 Alpha  occ. eigenvalues --  -10.35592 -10.35256 -10.34456 -10.34099 -10.31735
 Alpha  occ. eigenvalues --  -10.31644 -10.31468 -10.31166 -10.30982 -10.30896
 Alpha  occ. eigenvalues --  -10.30645 -10.30592 -10.30292 -10.30233 -10.30198
 Alpha  occ. eigenvalues --  -10.29994 -10.29968 -10.29720 -10.29720 -10.29347
 Alpha  occ. eigenvalues --  -10.29273 -10.29238 -10.28783 -10.28642 -10.28634
 Alpha  occ. eigenvalues --  -10.28500 -10.28447 -10.28258 -10.28160 -10.28059
 Alpha  occ. eigenvalues --  -10.27880 -10.27841 -10.27802 -10.27682 -10.27604
 Alpha  occ. eigenvalues --  -10.27566 -10.27521 -10.27520 -10.27475 -10.27339
 Alpha  occ. eigenvalues --  -10.27322 -10.27316 -10.27308 -10.27208 -10.27193
 Alpha  occ. eigenvalues --  -10.26939 -10.26711 -10.26635 -10.26602 -10.26294
 Alpha  occ. eigenvalues --  -10.26275 -10.26232 -10.26097 -10.25973 -10.25952
 Alpha  occ. eigenvalues --  -10.25923 -10.25753 -10.25613 -10.25504 -10.25205
 Alpha  occ. eigenvalues --  -10.24916 -10.24869 -10.24726 -10.24711 -10.24569
 Alpha  occ. eigenvalues --  -10.24532  -3.16619  -3.16252  -1.91500  -1.91134
 Alpha  occ. eigenvalues --   -1.91087  -1.90929  -1.90723  -1.90560  -1.16637
 Alpha  occ. eigenvalues --   -1.16589  -1.08692  -1.08531  -1.07359  -1.06875
 Alpha  occ. eigenvalues --   -1.06831  -1.06659  -1.04653  -1.04353  -1.03838
 Alpha  occ. eigenvalues --   -1.03507  -1.03316  -1.02873  -1.02491  -1.01950
 Alpha  occ. eigenvalues --   -0.92041  -0.91845  -0.89588  -0.89326  -0.89229
 Alpha  occ. eigenvalues --   -0.89060  -0.88355  -0.88048  -0.87951  -0.87740
 Alpha  occ. eigenvalues --   -0.87615  -0.87536  -0.87389  -0.86971  -0.85032
 Alpha  occ. eigenvalues --   -0.84894  -0.83998  -0.83710  -0.83095  -0.82788
 Alpha  occ. eigenvalues --   -0.82707  -0.82542  -0.81625  -0.81486  -0.80661
 Alpha  occ. eigenvalues --   -0.80317  -0.78896  -0.78478  -0.77282  -0.77017
 Alpha  occ. eigenvalues --   -0.76971  -0.76782  -0.75970  -0.75729  -0.74961
 Alpha  occ. eigenvalues --   -0.74645  -0.72850  -0.72537  -0.71737  -0.71441
 Alpha  occ. eigenvalues --   -0.69966  -0.69587  -0.68933  -0.68716  -0.67722
 Alpha  occ. eigenvalues --   -0.67460  -0.67273  -0.67098  -0.65333  -0.65167
 Alpha  occ. eigenvalues --   -0.64915  -0.64674  -0.64627  -0.64533  -0.64336
 Alpha  occ. eigenvalues --   -0.64040  -0.62330  -0.62172  -0.60544  -0.60185
 Alpha  occ. eigenvalues --   -0.59861  -0.59683  -0.59056  -0.58843  -0.58574
 Alpha  occ. eigenvalues --   -0.58283  -0.57637  -0.57437  -0.57381  -0.57083
 Alpha  occ. eigenvalues --   -0.56392  -0.56057  -0.56002  -0.55795  -0.55612
 Alpha  occ. eigenvalues --   -0.55393  -0.55329  -0.55100  -0.54566  -0.54356
 Alpha  occ. eigenvalues --   -0.53937  -0.53822  -0.53392  -0.53292  -0.53080
 Alpha  occ. eigenvalues --   -0.53024  -0.52976  -0.52848  -0.52790  -0.52547
 Alpha  occ. eigenvalues --   -0.52495  -0.52234  -0.51992  -0.51681  -0.51677
 Alpha  occ. eigenvalues --   -0.51555  -0.51254  -0.51064  -0.50708  -0.50337
 Alpha  occ. eigenvalues --   -0.50101  -0.50021  -0.49861  -0.49703  -0.49588
 Alpha  occ. eigenvalues --   -0.49366  -0.49291  -0.49144  -0.49083  -0.48986
 Alpha  occ. eigenvalues --   -0.48646  -0.48568  -0.48514  -0.48441  -0.48222
 Alpha  occ. eigenvalues --   -0.48200  -0.47766  -0.47467  -0.47376  -0.46973
 Alpha  occ. eigenvalues --   -0.46861  -0.46600  -0.46567  -0.46448  -0.46433
 Alpha  occ. eigenvalues --   -0.46224  -0.46115  -0.45925  -0.45870  -0.45688
 Alpha  occ. eigenvalues --   -0.45270  -0.45049  -0.44645  -0.44588  -0.44405
 Alpha  occ. eigenvalues --   -0.44346  -0.44219  -0.44139  -0.44091  -0.44009
 Alpha  occ. eigenvalues --   -0.43932  -0.43814  -0.43541  -0.43446  -0.43444
 Alpha  occ. eigenvalues --   -0.43260  -0.43093  -0.42835  -0.42760  -0.42749
 Alpha  occ. eigenvalues --   -0.42682  -0.42393  -0.42062  -0.41828  -0.41772
 Alpha  occ. eigenvalues --   -0.41577  -0.41535  -0.41345  -0.41205  -0.40954
 Alpha  occ. eigenvalues --   -0.40903  -0.40862  -0.40631  -0.40609  -0.40586
 Alpha  occ. eigenvalues --   -0.40334  -0.40260  -0.40150  -0.39496  -0.39252
 Alpha  occ. eigenvalues --   -0.38528  -0.38194  -0.37778  -0.37567  -0.37387
 Alpha  occ. eigenvalues --   -0.37310  -0.37110  -0.37073  -0.36744  -0.36685
 Alpha  occ. eigenvalues --   -0.36237  -0.36076  -0.34361  -0.34101  -0.33801
 Alpha  occ. eigenvalues --   -0.33774  -0.33260  -0.33018  -0.31482  -0.31136
 Alpha  occ. eigenvalues --   -0.31111  -0.30825  -0.30095  -0.29826  -0.29548
 Alpha  occ. eigenvalues --   -0.29406  -0.29171  -0.29045  -0.24156  -0.23878
 Alpha  occ. eigenvalues --   -0.21207  -0.20959
 Alpha virt. eigenvalues --   -0.08861  -0.08634  -0.01833  -0.01526  -0.00161
 Alpha virt. eigenvalues --    0.00110   0.02122   0.02362   0.03025   0.03375
 Alpha virt. eigenvalues --    0.04667   0.04858   0.05073   0.05245   0.06173

 Mulliken charges:
               1
     1  Mg   0.838608
     2  C   -0.002846
     3  C   -0.094177
     4  C   -0.046076
     5  C   -0.064002
     6  N   -0.256823
     7  C   -0.052163
     8  C   -0.014010
     9  C   -0.086963
    10  C    0.046293
    11  C    0.104796
    12  C    0.053491
    13  C   -0.072597
    14  H    0.038326
    15  N   -0.433034
    16  C    0.168133
    17  C   -0.177509
    18  C   -0.004542
    19  C    0.148579
    20  C    0.110214
    21  C    0.011503
    22  O   -0.249903
    23  C    0.062907
    24  N   -0.341199
    25  C    0.041320
    26  C   -0.028122
    27  C   -0.024074
    28  C    0.075116
    29  C    0.076157
    30  C    0.035066
    31  C   -0.004469
    32  N   -0.310523
    33  C    0.080620
    34  C   -0.169821
    35  C    0.008425
    36  C    0.083072
    37  C    0.127334
    38  C    0.046084
    39  O   -0.188124
    40  C   -0.005222
    41  C    0.212894
    42  O   -0.257089
    43  O   -0.304859
    44  C    0.157510
    45  H   -0.017539
    46  H   -0.017085
    47  H   -0.041321
    48  H    0.001208
    49  H   -0.003897
    50  H    0.025574
    51  H    0.016280
    52  H    0.016841
    53  H    0.010801
    54  H    0.044449
    55  H    0.017768
    56  H    0.017857
    57  H    0.006207
    58  H    0.026872
    59  H    0.038307
    60  H    0.037899
    61  H    0.034864
    62  H    0.029955
    63  H    0.016345
    64  H    0.009607
    65  H    0.023131
    66  H    0.012522
    67  H    0.004935
    68  H    0.006609
    69  H    0.004825
    70  H    0.008598
    71  H    0.019045
    72  H    0.028620
    73  H    0.047402
    74  H    0.009210
    75  H    0.046298
    76  H    0.035370
    77  H    0.043103
    78  H    0.046969
    79  H    0.054072
    80  Mg   0.838240
    81  C   -0.016945
    82  C   -0.087976
    83  C   -0.045384
    84  C   -0.062890
    85  N   -0.254457
    86  C   -0.049832
    87  C   -0.015049
    88  C   -0.090534
    89  C    0.045629
    90  C    0.114604
    91  C    0.062657
    92  C   -0.077525
    93  H    0.034509
    94  N   -0.423437
    95  C    0.162718
    96  C   -0.174596
    97  C   -0.007987
    98  C    0.152046
    99  C    0.099358
   100  C    0.015399
   101  O   -0.253558
   102  C    0.061243
   103  N   -0.349868
   104  C    0.037687
   105  C   -0.019978
   106  C   -0.035254
   107  C    0.088938
   108  C    0.073400
   109  C    0.034641
   110  C   -0.007584
   111  N   -0.324335
   112  C    0.078496
   113  C   -0.161716
   114  C    0.002278
   115  C    0.096512
   116  C    0.131206
   117  C    0.042699
   118  O   -0.188536
   119  C    0.000789
   120  C    0.211072
   121  O   -0.251032
   122  O   -0.305892
   123  C    0.152158
   124  H   -0.019981
   125  H   -0.015857
   126  H   -0.039304
   127  H   -0.001545
   128  H   -0.004883
   129  H    0.022134
   130  H    0.015486
   131  H    0.014291
   132  H    0.014057
   133  H    0.037711
   134  H    0.019937
   135  H    0.019391
   136  H    0.008473
   137  H    0.026500
   138  H    0.039271
   139  H    0.038387
   140  H    0.035967
   141  H    0.033677
   142  H    0.013936
   143  H    0.014585
   144  H    0.024174
   145  H    0.011550
   146  H    0.007267
   147  H    0.006135
   148  H    0.004182
   149  H    0.010588
   150  H    0.017647
   151  H    0.029876
   152  H    0.045093
   153  H    0.008849
   154  H    0.049801
   155  H    0.034594
   156  H    0.043349
   157  H    0.049149
   158  H    0.053602
 Sum of Mulliken charges =  -0.00000

 Dipole moment (field-independent basis, Debye):
    X=             -3.4403    Y=              1.8983    Z=              6.6980  Tot=              7.7655
 Quadrupole moment (field-independent basis, Debye-Ang):
   XX=           -519.0509   YY=           -524.0241   ZZ=           -475.1872
   XY=             23.5670   XZ=             -2.9440   YZ=            -23.0859

 Normal termination of Gaussian 16 at Fri Sep 10 19:52:05 2021.
