 Gaussian 16, Revision A.03,
 Gaussian 16:  ES64L-G16RevA.03 25-Dec-2016

 -----------------------------------
 #p cam-b3lyp/Def2SVP td=(nstates=5)
 -----------------------------------

 --------------------------------
 TDDFT excited states in gaussian
 --------------------------------
 Symbolic Z-matrix:
 Charge =  0 Multiplicity = 1

                         Standard orientation:
 ---------------------------------------------------------------------
 Center     Atomic      Atomic             Coordinates (Angstroms)
 Number     Number       Type             X           Y           Z
 ---------------------------------------------------------------------
      1         12           0       15.780308    0.607632    0.500495
      2          6           0       16.114287   -2.416521   -1.385021
      3          6           0       16.595706    2.298667   -2.348818
      4          6           0       15.936771    3.251786    2.244223
      5          6           0       16.112177   -1.325740    3.381051
      6          7           0       16.269181   -0.082926   -1.545178
      7          6           0       16.303740   -1.265013   -2.152342
      8          6           0       16.485404   -1.161477   -3.696250
      9          6           0       17.179919    0.271646   -3.772449
     10          6           0       16.621604    0.880194   -2.498134
     11          6           0       18.700549    0.218199   -3.666002
     12          6           0       15.117562   -1.176458   -4.458166
     13          6           0       15.213728   -1.407386   -5.969052
     14          1           0       14.171294   -2.180503   -6.627055
     15          7           0       15.723458    2.506070   -0.043149
     16          6           0       16.076073    3.014223   -1.248441
     17          6           0       15.855661    4.473509   -1.155795
     18          6           0       15.526984    4.795016    0.260785
     19          6           0       15.744425    3.517725    0.890567
     20          6           0       15.916154    5.391484   -2.337917
     21          6           0       15.096916    6.056174    0.940972
     22          8           0       15.088454    6.173513    2.214052
     23          6           0       14.765886    7.194861    0.065270
     24          7           0       16.212738    0.958374    2.512365
     25          6           0       16.154618    2.192078    3.025766
     26          6           0       16.222452    2.163777    4.523944
     27          6           0       16.094354    0.628376    4.943333
     28          6           0       16.054989   -0.000206    3.528552
     29          6           0       17.492351    2.758958    5.147746
     30          6           0       14.968783    0.264245    5.943791
     31          6           0       13.618670    0.464957    5.292632
     32          7           0       15.886284   -1.510627    0.961793
     33          6           0       16.046838   -2.090679    2.228457
     34          6           0       16.171949   -3.545622    2.024600
     35          6           0       16.091576   -3.710345    0.643205
     36          6           0       15.953050   -2.436497    0.021582
     37          6           0       16.394110   -4.513798    3.043282
     38          6           0       16.115231   -4.664022   -0.453972
     39          8           0       16.116928   -5.893246   -0.534585
     40          6           0       16.253295   -3.854704   -1.818439
     41          6           0       15.231167   -4.402148   -2.777015
     42          8           0       14.010609   -4.248188   -2.567490
     43          8           0       15.845967   -4.807685   -3.898666
     44          6           0       14.884844   -5.334882   -4.903883
     45          1           0       17.067769    2.918606   -3.113523
     46          1           0       15.886263    4.129031    2.892551
     47          1           0       16.133501   -1.999967    4.239198
     48          1           0       17.142058   -1.916841   -4.128286
     49          1           0       16.847043    0.839516   -4.641033
     50          1           0       19.048011   -0.786423   -3.425326
     51          1           0       18.960979    0.912696   -2.867038
     52          1           0       19.166202    0.612661   -4.569519
     53          1           0       14.690910   -0.173477   -4.450567
     54          1           0       14.441664   -1.913485   -4.023104
     55          1           0       16.199749   -1.775427   -6.254039
     56          1           0       15.130302   -0.441895   -6.468120
     57          1           0       16.340723    4.894731   -3.209423
     58          1           0       16.633416    6.175481   -2.095859
     59          1           0       14.946604    5.836628   -2.561863
     60          1           0       15.634727    7.444782   -0.543996
     61          1           0       14.394058    7.980836    0.721652
     62          1           0       13.982074    6.890280   -0.628861
     63          1           0       15.398187    2.724058    4.963372
     64          1           0       17.002706    0.256973    5.418339
     65          1           0       17.296283    3.565008    5.855238
     66          1           0       18.138557    3.097573    4.338396
     67          1           0       18.135526    2.037708    5.651274
     68          1           0       15.006667    0.920640    6.812501
     69          1           0       15.027278   -0.763634    6.301972
     70          1           0       13.437211    1.530100    5.431827
     71          1           0       12.859090   -0.130149    5.800667
     72          1           0       13.662867    0.279483    4.219258
     73          1           0       15.730312   -5.349027    2.820271
     74          1           0       16.193610   -4.101504    4.031926
     75          1           0       17.450704   -4.731435    2.888045
     76          1           0       17.271703   -4.009860   -2.173255
     77          1           0       15.207867   -6.344447   -5.158181
     78          1           0       14.842628   -4.599615   -5.707628
     79          1           0       13.871880   -5.526405   -4.548128
     80         12           0      -15.950485   -0.698297    0.400099
     81          6           0      -15.852122    2.091454   -1.855263
     82          6           0      -15.171254    1.487037    2.900440
     83          6           0      -15.586415   -3.190466    2.329857
     84          6           0      -15.587913   -2.776031   -2.374296
     85          7           0      -15.584496    1.483055    0.398015
     86          6           0      -15.635307    2.447954   -0.507918
     87          6           0      -15.522873    3.882784    0.073628
     88          6           0      -14.752373    3.529706    1.437646
     89          6           0      -15.221388    2.087295    1.616983
     90          6           0      -13.239849    3.525360    1.290663
     91          6           0      -16.926393    4.524815    0.356378
     92          6           0      -16.901330    6.029838    0.632117
     93          1           0      -18.015921    6.843585    0.154672
     94          7           0      -15.936807   -0.796558    2.382204
     95          6           0      -15.617416    0.191888    3.243741
     96          6           0      -15.742536   -0.390716    4.588760
     97          6           0      -16.001811   -1.849177    4.445945
     98          6           0      -15.827246   -2.009195    3.016265
     99          6           0      -15.695023    0.435612    5.841099
    100          6           0      -16.337167   -2.924600    5.434491
    101          8           0      -16.285672   -4.166520    5.121736
    102          6           0      -16.636897   -2.484965    6.805019
    103          7           0      -15.421712   -2.679904    0.059503
    104          6           0      -15.388504   -3.569549    1.067149
    105          6           0      -15.254010   -4.980160    0.545168
    106          6           0      -15.447820   -4.872502   -1.038635
    107          6           0      -15.577727   -3.339472   -1.174054
    108          6           0      -13.928725   -5.678430    0.849156
    109          6           0      -16.546750   -5.766551   -1.675571
    110          6           0      -17.913475   -5.306491   -1.221909
    111          7           0      -15.938609   -0.440735   -1.745025
    112          6           0      -15.746238   -1.440886   -2.723172
    113          6           0      -15.705645   -0.764117   -4.035712
    114          6           0      -15.855359    0.596023   -3.725731
    115          6           0      -15.960181    0.757602   -2.317747
    116          6           0      -15.499952   -1.398976   -5.293004
    117          6           0      -15.937907    1.932848   -4.268658
    118          8           0      -15.995827    2.408101   -5.402025
    119          6           0      -15.812591    2.972533   -3.072939
    120          6           0      -16.902334    3.997055   -3.232116
    121          8           0      -18.097447    3.670648   -3.123613
    122          8           0      -16.351538    5.224083   -3.269198
    123          6           0      -17.393589    6.275120   -3.415065
    124          1           0      -14.708008    2.043478    3.715708
    125          1           0      -15.563004   -4.095075    2.941923
    126          1           0      -15.576164   -3.363289   -3.294985
    127          1           0      -14.931307    4.568766   -0.520717
    128          1           0      -15.101049    4.149058    2.259952
    129          1           0      -12.934716    3.644894    0.261711
    130          1           0      -12.909742    2.568941    1.674515
    131          1           0      -12.795471    4.281867    1.943783
    132          1           0      -17.297432    4.162706    1.323831
    133          1           0      -17.609356    4.315384   -0.443824
    134          1           0      -15.944371    6.484871    0.349068
    135          1           0      -16.963334    6.185887    1.711853
    136          1           0      -15.327858    1.449631    5.640249
    137          1           0      -14.929687   -0.007297    6.487590
    138          1           0      -16.647157    0.445014    6.375907
    139          1           0      -15.785164   -1.938885    7.203515
    140          1           0      -16.939479   -3.386373    7.341476
    141          1           0      -17.474832   -1.779755    6.770843
    142          1           0      -16.029051   -5.618399    0.951466
    143          1           0      -14.535179   -5.159689   -1.581262
    144          1           0      -14.053245   -6.632186    1.395899
    145          1           0      -13.304704   -4.996498    1.411374
    146          1           0      -13.310218   -5.894006   -0.020431
    147          1           0      -16.438458   -6.799556   -1.335970
    148          1           0      -16.518273   -5.779400   -2.760009
    149          1           0      -18.028055   -5.794829   -0.249546
    150          1           0      -18.679811   -5.634746   -1.921192
    151          1           0      -17.927535   -4.223832   -1.050736
    152          1           0      -16.207667   -0.959387   -5.983222
    153          1           0      -15.631142   -2.476614   -5.220426
    154          1           0      -14.458884   -1.124026   -5.482323
    155          1           0      -14.819221    3.419234   -3.129992
    156          1           0      -17.131045    6.864855   -4.298800
    157          1           0      -17.420274    6.806024   -2.444932
    158          1           0      -18.397770    5.953918   -3.665843
 ---------------------------------------------------------------------

 SCF Done:  E(RCAM-B3LYP) =  -4069.81177716     A.U. after   19 cycles

 Excitation energies and oscillator strengths:

 Excited State   1:      Singlet-A      1.6755 eV  739.97 nm  f=0.3670  <S**2>=0.000
     310 -> 316        0.17297
     312 -> 313        0.68348
     310 <- 316        0.10426
 This state for optimization and/or second-order correction.
 Total Energy, E(TD-HF/TD-DFT) =  -4069.75020219
 Copying the excited state density for this state as the 1-particle RhoCI density.

 Excited State   2:      Singlet-A      1.6799 eV  738.05 nm  f=0.4093  <S**2>=0.000
     309 -> 315        0.17488
     311 -> 314        0.68313
     309 <- 315        0.10472

 Excited State   3:      Singlet-A      2.1861 eV  567.14 nm  f=0.1014  <S**2>=0.000
     310 -> 313        0.64242
     312 -> 316       -0.27311

 Excited State   4:      Singlet-A      2.1925 eV  565.49 nm  f=0.0995  <S**2>=0.000
     309 -> 314        0.64064
     311 -> 315       -0.27825

 Excited State   5:      Singlet-A      3.0657 eV  404.43 nm  f=0.0000  <S**2>=0.000
     311 -> 313        0.70711

 The electronic state is 1-A.
 Alpha  occ. eigenvalues --  -46.87796 -46.87661 -19.26355 -19.26279 -19.19166
 Alpha  occ. eigenvalues --  -19.19016 -19.18816 -19.18712 -19.18168 -19.18054
 Alpha  occ. eigenvalues --  -14.42498 -14.42449 -14.41449 -14.41359 -14.39402
 Alpha  occ. eigenvalues --  -14.39352 -14.38601 -14.38586 -10.39095 -10.39075
 Alpha  occ. eigenvalues --  -10.35449 -10.35389 -10.34388 -10.34232 -10.31763
 Alpha  occ. eigenvalues --  -10.31673 -10.31403 -10.31310 -10.31024 -10.30907
 Alpha  occ. eigenvalues --  -10.30569 -10.30507 -10.30398 -10.30362 -10.30207
 Alpha  occ. eigenvalues --  -10.30140 -10.29921 -10.29894 -10.29630 -10.29437
 Alpha  occ. eigenvalues --  -10.29401 -10.29254 -10.28745 -10.28721 -10.28658
 Alpha  occ. eigenvalues --  -10.28530 -10.28406 -10.28364 -10.28142 -10.28113
 Alpha  occ. eigenvalues --  -10.28002 -10.27792 -10.27726 -10.27669 -10.27584
 Alpha  occ. eigenvalues --  -10.27516 -10.27504 -10.27484 -10.27479 -10.27467
 Alpha  occ. eigenvalues --  -10.27463 -10.27452 -10.27402 -10.27373 -10.27156
 Alpha  occ. eigenvalues --  -10.27053 -10.26699 -10.26696 -10.26412 -10.26411
 Alpha  occ. eigenvalues --  -10.26230 -10.26189 -10.26136 -10.26026 -10.26019
 Alpha  occ. eigenvalues --  -10.25934 -10.25854 -10.25844 -10.25439 -10.25392
 Alpha  occ. eigenvalues --  -10.24874 -10.24832 -10.24788 -10.24730 -10.24693
 Alpha  occ. eigenvalues --  -10.24690  -3.16539  -3.16411  -1.91420  -1.91293
 Alpha  occ. eigenvalues --   -1.91007  -1.90881  -1.90849  -1.90718  -1.16649
 Alpha  occ. eigenvalues --   -1.16628  -1.08661  -1.08625  -1.07217  -1.06964
 Alpha  occ. eigenvalues --   -1.06950  -1.06638  -1.04580  -1.04496  -1.03760
 Alpha  occ. eigenvalues --   -1.03663  -1.03233  -1.03039  -1.02411  -1.02112
 Alpha  occ. eigenvalues --   -0.91989  -0.91971  -0.89521  -0.89494  -0.89184
 Alpha  occ. eigenvalues --   -0.89153  -0.88288  -0.88219  -0.87870  -0.87795
 Alpha  occ. eigenvalues --   -0.87684  -0.87671  -0.87273  -0.87119  -0.85001
 Alpha  occ. eigenvalues --   -0.84979  -0.83938  -0.83875  -0.82968  -0.82930
 Alpha  occ. eigenvalues --   -0.82653  -0.82646  -0.81599  -0.81583  -0.80595
 Alpha  occ. eigenvalues --   -0.80444  -0.78796  -0.78636  -0.77218  -0.77145
 Alpha  occ. eigenvalues --   -0.76932  -0.76900  -0.75920  -0.75840  -0.74899
 Alpha  occ. eigenvalues --   -0.74802  -0.72774  -0.72700  -0.71671  -0.71581
 Alpha  occ. eigenvalues --   -0.69910  -0.69756  -0.68871  -0.68828  -0.67640
 Alpha  occ. eigenvalues --   -0.67602  -0.67216  -0.67201  -0.65284  -0.65273
 Alpha  occ. eigenvalues --   -0.64852  -0.64771  -0.64655  -0.64619  -0.64270
 Alpha  occ. eigenvalues --   -0.64203  -0.62295  -0.62281  -0.60442  -0.60339
 Alpha  occ. eigenvalues --   -0.59802  -0.59798  -0.58994  -0.58987  -0.58503
 Alpha  occ. eigenvalues --   -0.58427  -0.57582  -0.57557  -0.57309  -0.57237
 Alpha  occ. eigenvalues --   -0.56309  -0.56205  -0.55975  -0.55890  -0.55519
 Alpha  occ. eigenvalues --   -0.55453  -0.55340  -0.55248  -0.54523  -0.54489
 Alpha  occ. eigenvalues --   -0.53914  -0.53891  -0.53298  -0.53228  -0.53220
 Alpha  occ. eigenvalues --   -0.53143  -0.52913  -0.52904  -0.52754  -0.52667
 Alpha  occ. eigenvalues --   -0.52441  -0.52400  -0.51915  -0.51887  -0.51660
 Alpha  occ. eigenvalues --   -0.51614  -0.51203  -0.51195  -0.50572  -0.50473
 Alpha  occ. eigenvalues --   -0.50033  -0.49980  -0.49918  -0.49866  -0.49513
 Alpha  occ. eigenvalues --   -0.49488  -0.49213  -0.49204  -0.49106  -0.49093
 Alpha  occ. eigenvalues --   -0.48591  -0.48560  -0.48462  -0.48444  -0.48375
 Alpha  occ. eigenvalues --   -0.48338  -0.47693  -0.47595  -0.47296  -0.47118
 Alpha  occ. eigenvalues --   -0.46796  -0.46710  -0.46555  -0.46552  -0.46359
 Alpha  occ. eigenvalues --   -0.46271  -0.46162  -0.46086  -0.45825  -0.45820
 Alpha  occ. eigenvalues --   -0.45207  -0.45202  -0.44576  -0.44516  -0.44506
 Alpha  occ. eigenvalues --   -0.44477  -0.44145  -0.44128  -0.44086  -0.44078
 Alpha  occ. eigenvalues --   -0.44018  -0.43940  -0.43556  -0.43492  -0.43387
 Alpha  occ. eigenvalues --   -0.43384  -0.43026  -0.42933  -0.42903  -0.42697
 Alpha  occ. eigenvalues --   -0.42655  -0.42553  -0.42010  -0.41965  -0.41703
 Alpha  occ. eigenvalues --   -0.41671  -0.41531  -0.41460  -0.41140  -0.40990
 Alpha  occ. eigenvalues --   -0.40867  -0.40823  -0.40722  -0.40698  -0.40572
 Alpha  occ. eigenvalues --   -0.40493  -0.40229  -0.40228  -0.39444  -0.39425
 Alpha  occ. eigenvalues --   -0.38470  -0.38349  -0.37744  -0.37656  -0.37321
 Alpha  occ. eigenvalues --   -0.37266  -0.37261  -0.37201  -0.36775  -0.36710
 Alpha  occ. eigenvalues --   -0.36218  -0.36191  -0.34285  -0.34254  -0.33866
 Alpha  occ. eigenvalues --   -0.33767  -0.33185  -0.33176  -0.31345  -0.31271
 Alpha  occ. eigenvalues --   -0.31035  -0.30973  -0.30027  -0.29959  -0.29449
 Alpha  occ. eigenvalues --   -0.29327  -0.29321  -0.29213  -0.24080  -0.24037
 Alpha  occ. eigenvalues --   -0.21127  -0.21117
 Alpha virt. eigenvalues --   -0.08792  -0.08774  -0.01749  -0.01684  -0.00057
 Alpha virt. eigenvalues --   -0.00029   0.02201   0.02205   0.03120   0.03226
 Alpha virt. eigenvalues --    0.04720   0.04729   0.05102   0.05161   0.06180

 Mulliken charges:
               1
     1  Mg   0.838679
     2  C   -0.002943
     3  C   -0.094088
     4  C   -0.045909
     5  C   -0.063967
     6  N   -0.256785
     7  C   -0.052446
     8  C   -0.014024
     9  C   -0.086994
    10  C    0.046326
    11  C    0.104808
    12  C    0.053458
    13  C   -0.071835
    14  H    0.036197
    15  N   -0.433135
    16  C    0.168419
    17  C   -0.177131
    18  C   -0.004015
    19  C    0.148732
    20  C    0.110161
    21  C    0.012280
    22  O   -0.249670
    23  C    0.062479
    24  N   -0.341127
    25  C    0.041265
    26  C   -0.028177
    27  C   -0.023949
    28  C    0.074816
    29  C    0.076175
    30  C    0.035126
    31  C   -0.004487
    32  N   -0.310459
    33  C    0.080400
    34  C   -0.169724
    35  C    0.008363
    36  C    0.082980
    37  C    0.127314
    38  C    0.046117
    39  O   -0.188430
    40  C   -0.005348
    41  C    0.212904
    42  O   -0.257107
    43  O   -0.304802
    44  C    0.157681
    45  H   -0.017574
    46  H   -0.016869
    47  H   -0.041521
    48  H    0.000952
    49  H   -0.003994
    50  H    0.025475
    51  H    0.016432
    52  H    0.016687
    53  H    0.011216
    54  H    0.044125
    55  H    0.017873
    56  H    0.017980
    57  H    0.005910
    58  H    0.026829
    59  H    0.039581
    60  H    0.037365
    61  H    0.035616
    62  H    0.031522
    63  H    0.016516
    64  H    0.009451
    65  H    0.023177
    66  H    0.012564
    67  H    0.004744
    68  H    0.006323
    69  H    0.004721
    70  H    0.008749
    71  H    0.018100
    72  H    0.029016
    73  H    0.047564
    74  H    0.009083
    75  H    0.046010
    76  H    0.035162
    77  H    0.042956
    78  H    0.046432
    79  H    0.053699
    80  Mg   0.837842
    81  C   -0.016835
    82  C   -0.087765
    83  C   -0.045473
    84  C   -0.064863
    85  N   -0.254565
    86  C   -0.049855
    87  C   -0.015111
    88  C   -0.090514
    89  C    0.045756
    90  C    0.114367
    91  C    0.062526
    92  C   -0.077893
    93  H    0.034876
    94  N   -0.423502
    95  C    0.162926
    96  C   -0.174601
    97  C   -0.007763
    98  C    0.152111
    99  C    0.099354
   100  C    0.015596
   101  O   -0.253131
   102  C    0.061191
   103  N   -0.350053
   104  C    0.037544
   105  C   -0.019867
   106  C   -0.034800
   107  C    0.088905
   108  C    0.073622
   109  C    0.034729
   110  C   -0.007677
   111  N   -0.324098
   112  C    0.078429
   113  C   -0.163152
   114  C    0.002231
   115  C    0.096201
   116  C    0.131494
   117  C    0.042365
   118  O   -0.187937
   119  C    0.000923
   120  C    0.211252
   121  O   -0.251020
   122  O   -0.305629
   123  C    0.152037
   124  H   -0.019625
   125  H   -0.015515
   126  H   -0.040449
   127  H   -0.000664
   128  H   -0.004318
   129  H    0.022447
   130  H    0.014473
   131  H    0.016307
   132  H    0.013931
   133  H    0.037665
   134  H    0.020777
   135  H    0.019609
   136  H    0.008771
   137  H    0.026211
   138  H    0.039811
   139  H    0.038289
   140  H    0.036440
   141  H    0.033886
   142  H    0.014417
   143  H    0.012457
   144  H    0.025201
   145  H    0.011681
   146  H    0.005733
   147  H    0.006307
   148  H    0.003640
   149  H    0.010949
   150  H    0.017920
   151  H    0.030078
   152  H    0.045974
   153  H    0.008524
   154  H    0.046938
   155  H    0.035010
   156  H    0.043878
   157  H    0.049500
   158  H    0.053574
 Sum of Mulliken charges =  -0.00000

 Dipole moment (field-independent basis, Debye):
    X=              3.8019    Y=              4.7849    Z=              1.3423  Tot=              6.2571
 Quadrupole moment (field-independent basis, Debye-Ang):
   XX=           -518.1701   YY=           -516.4589   ZZ=           -482.3096
   XY=             32.1605   XZ=           -104.0794   YZ=             15.8719

 Normal termination of Gaussian 16 at Sun Sep 12 15:36:28 2021.
