 Gaussian 16, Revision A.03,
 Gaussian 16:  ES64L-G16RevA.03 25-Dec-2016

 -----------------------------------
 #p cam-b3lyp/Def2SVP td=(nstates=5)
 -----------------------------------

 --------------------------------
 TDDFT excited states in gaussian
 --------------------------------
 Symbolic Z-matrix:
 Charge =  0 Multiplicity = 1

                         Standard orientation:
 ---------------------------------------------------------------------
 Center     Atomic      Atomic             Coordinates (Angstroms)
 Number     Number       Type             X           Y           Z
 ---------------------------------------------------------------------
      1         12           0        4.683503    0.347642    0.966240
      2          6           0        5.136552   -2.664686   -0.913346
      3          6           0        6.095056    2.018033   -1.652992
      4          6           0        4.711377    2.948235    2.780835
      5          6           0        4.377243   -1.646332    3.808058
      6          7           0        5.473805   -0.345878   -0.981862
      7          6           0        5.533965   -1.518429   -1.605301
      8          6           0        5.988498   -1.405478   -3.091240
      9          6           0        6.780586   -0.024301   -3.007895
     10          6           0        6.050986    0.603635   -1.833458
     11          6           0        8.252281   -0.187091   -2.641675
     12          6           0        4.776537   -1.312194   -4.078244
     13          6           0        5.118795   -1.527241   -5.555393
     14          1           0        4.157336   -2.214715   -6.404112
     15          7           0        4.850274    2.253075    0.471912
     16          6           0        5.440980    2.752494   -0.640263
     17          6           0        5.306588    4.222232   -0.548124
     18          6           0        4.758451    4.545502    0.798404
     19          6           0        4.776266    3.246925    1.421909
     20          6           0        5.633881    5.150790   -1.677021
     21          6           0        4.302348    5.823920    1.427490
     22          8           0        4.080046    5.922931    2.682620
     23          6           0        4.206472    6.995917    0.538516
     24          7           0        4.781281    0.637345    3.031221
     25          6           0        4.717795    1.864421    3.559649
     26          6           0        4.521404    1.809467    5.045701
     27          6           0        4.219051    0.281061    5.395429
     28          6           0        4.384632   -0.322382    3.978845
     29          6           0        5.700297    2.303829    5.895306
     30          6           0        2.914404   -0.016859    6.176171
     31          6           0        1.715082    0.288673    5.307048
     32          7           0        4.564541   -1.779316    1.382105
     33          6           0        4.462426   -2.387765    2.641484
     34          6           0        4.522871   -3.844780    2.423492
     35          6           0        4.673589   -3.983162    1.045094
     36          6           0        4.731645   -2.693740    0.443171
     37          6           0        4.498359   -4.841078    3.438984
     38          6           0        4.823827   -4.919963   -0.056581
     39          8           0        4.756753   -6.144897   -0.168527
     40          6           0        5.251789   -4.102615   -1.354509
     41          6           0        4.377866   -4.562054   -2.489623
     42          8           0        3.152656   -4.324935   -2.490187
     43          8           0        5.150022   -4.993755   -3.498559
     44          6           0        4.345524   -5.436648   -4.668509
     45          1           0        6.733844    2.614022   -2.307735
     46          1           0        4.607844    3.817276    3.433895
     47          1           0        4.203210   -2.332851    4.638635
     48          1           0        6.658013   -2.199143   -3.423309
     49          1           0        6.643211    0.578406   -3.905444
     50          1           0        8.484011   -1.217253   -2.371513
     51          1           0        8.415645    0.475410   -1.791441
     52          1           0        8.893779    0.186499   -3.440229
     53          1           0        4.423628   -0.281679   -4.117691
     54          1           0        3.987073   -2.005674   -3.786426
     55          1           0        6.112332   -1.960129   -5.675393
     56          1           0        5.188852   -0.551068   -6.035371
     57          1           0        6.169415    4.637956   -2.474988
     58          1           0        6.349126    5.878278   -1.293751
     59          1           0        4.750422    5.666853   -2.053201
     60          1           0        5.183034    7.192426    0.095504
     61          1           0        3.779726    7.796615    1.141524
     62          1           0        3.536934    6.757919   -0.288543
     63          1           0        3.672802    2.420350    5.350862
     64          1           0        5.003598   -0.160783    6.010192
     65          1           0        5.438659    3.111328    6.579555
     66          1           0        6.498994    2.607527    5.219184
     67          1           0        6.195804    1.531461    6.482961
     68          1           0        2.844419    0.622416    7.055589
     69          1           0        2.840210   -1.051426    6.511457
     70          1           0        1.584298    1.361859    5.441212
     71          1           0        0.840251   -0.258387    5.660044
     72          1           0        1.933093    0.116250    4.252900
     73          1           0        3.828867   -5.623737    3.082338
     74          1           0        4.156843   -4.430098    4.388755
     75          1           0        5.548742   -5.130864    3.462954
     76          1           0        6.303652   -4.324455   -1.531972
     77          1           0        4.639184   -6.462766   -4.890047
     78          1           0        4.493662   -4.688562   -5.447500
     79          1           0        3.275495   -5.560976   -4.498451
     80         12           0       -4.171090    0.620952   -0.618964
     81          6           0       -6.889892   -1.548055    0.265667
     82          6           0       -6.507277    2.956025   -1.469956
     83          6           0       -1.825170    2.383464   -1.826299
     84          6           0       -2.148906   -2.212319   -0.789545
     85          7           0       -6.382034    0.590404   -0.563844
     86          6           0       -7.304336   -0.265752   -0.150698
     87          6           0       -8.744965    0.310852   -0.109846
     88          6           0       -8.566085    1.481950   -1.194017
     89          6           0       -7.064876    1.722502   -1.048516
     90          6           0       -8.841592    1.030407   -2.618640
     91          6           0       -9.118589    0.886543    1.301174
     92          6           0      -10.606456    1.183050    1.501365
     93          1           0      -11.189259    0.959451    2.821527
     94          7           0       -4.112124    2.556336   -1.054118
     95          6           0       -5.157869    3.355546   -1.352381
     96          6           0       -4.585995    4.685330   -1.614622
     97          6           0       -3.102483    4.567567   -1.608093
     98          6           0       -2.952657    3.129209   -1.514510
     99          6           0       -5.428655    5.918959   -1.761378
    100          6           0       -2.000988    5.580777   -1.687499
    101          8           0       -0.785190    5.238026   -1.904714
    102          6           0       -2.401081    6.992578   -1.596625
    103          7           0       -2.317340    0.138307   -1.427060
    104          6           0       -1.467467    1.099192   -1.829980
    105          6           0       -0.097766    0.531200   -2.115784
    106          6           0       -0.139366   -0.977478   -1.586874
    107          6           0       -1.618554   -1.051352   -1.148778
    108          6           0        0.335337    0.544573   -3.581608
    109          6           0        0.955226   -1.396314   -0.567505
    110          6           0        0.750464   -0.664633    0.739434
    111          7           0       -4.388420   -1.475868   -0.145482
    112          6           0       -3.424655   -2.493527   -0.317532
    113          6           0       -4.073806   -3.772357    0.036879
    114          6           0       -5.387351   -3.409838    0.371092
    115          6           0       -5.551354   -2.006881    0.215187
    116          6           0       -3.466413   -5.058281   -0.023038
    117          6           0       -6.675457   -3.896382    0.810107
    118          8           0       -7.111453   -4.984026    1.185162
    119          6           0       -7.741220   -2.729515    0.639858
    120          6           0       -8.541305   -2.642168    1.910578
    121          8           0       -7.999496   -2.299803    2.976345
    122          8           0       -9.848749   -2.764639    1.617379
    123          6           0      -10.684023   -2.673410    2.844488
    124          1           0       -7.154728    3.671596   -1.977566
    125          1           0       -0.951796    2.958798   -2.142027
    126          1           0       -1.557997   -3.128310   -0.722748
    127          1           0       -9.518728   -0.376799   -0.429555
    128          1           0       -9.123876    2.370829   -0.910962
    129          1           0       -8.997795   -0.036344   -2.680079
    130          1           0       -7.970548    1.318902   -3.192313
    131          1           0       -9.679163    1.595301   -3.037807
    132          1           0       -8.710719    1.901385    1.393288
    133          1           0       -8.771234    0.237714    2.081553
    134          1           0      -11.227068    0.720947    0.724023
    135          1           0      -10.767228    2.255870    1.370129
    136          1           0       -6.489691    5.669033   -1.884418
    137          1           0       -5.147892    6.386841   -2.711174
    138          1           0       -5.269578    6.636282   -0.953410
    139          1           0       -3.103515    7.220950   -2.394677
    140          1           0       -1.468650    7.560253   -1.583027
    141          1           0       -2.936732    7.144352   -0.652886
    142          1           0        0.666662    1.073079   -1.572535
    143          1           0       -0.018064   -1.700275   -2.407052
    144          1           0        1.285764    1.085010   -3.750991
    145          1           0       -0.460931    0.982383   -4.168811
    146          1           0        0.446977   -0.436961   -4.039138
    147          1           0        1.943694   -1.107662   -0.933251
    148          1           0        0.981687   -2.463917   -0.376407
    149          1           0        1.234361    0.300212    0.560529
    150          1           0        1.228315   -1.200235    1.557259
    151          1           0       -0.313391   -0.471427    0.919827
    152          1           0       -3.753886   -5.580758    0.879655
    153          1           0       -2.384684   -4.983249   -0.112531
    154          1           0       -3.927492   -5.449513   -0.933869
    155          1           0       -8.364439   -2.977963   -0.220061
    156          1           0      -11.296695   -3.579452    2.882020
    157          1           0      -11.217659   -1.707150    2.771481
    158          1           0      -10.176619   -2.721453    3.800876
 ---------------------------------------------------------------------

 SCF Done:  E(RCAM-B3LYP) =  -4069.81589700     A.U. after   19 cycles

 Excitation energies and oscillator strengths:

 Excited State   1:      Singlet-A      1.6407 eV  755.67 nm  f=0.0029  <S**2>=0.000
     309 -> 315       -0.11263
     310 -> 316        0.11999
     311 -> 313       -0.46811
     312 -> 314        0.50363
 This state for optimization and/or second-order correction.
 Total Energy, E(TD-HF/TD-DFT) =  -4069.75560179
 Copying the excited state density for this state as the 1-particle RhoCI density.

 Excited State   2:      Singlet-A      1.7039 eV  727.63 nm  f=0.6871  <S**2>=0.000
     309 -> 315        0.13350
     310 -> 316        0.12255
     311 -> 313        0.50129
     312 -> 314        0.46577

 Excited State   3:      Singlet-A      2.1815 eV  568.33 nm  f=0.1019  <S**2>=0.000
     309 -> 313        0.10224
     310 -> 314        0.63528
     312 -> 316       -0.26568

 Excited State   4:      Singlet-A      2.1978 eV  564.12 nm  f=0.0978  <S**2>=0.000
     309 -> 313        0.63173
     310 -> 314       -0.10024
     311 -> 315       -0.27628

 Excited State   5:      Singlet-A      2.3528 eV  526.97 nm  f=0.0001  <S**2>=0.000
     312 -> 313        0.70552

 The electronic state is 1-A.
 Alpha  occ. eigenvalues --  -46.87867 -46.87389 -19.26561 -19.26180 -19.19413
 Alpha  occ. eigenvalues --  -19.18980 -19.18669 -19.18589 -19.18245 -19.17823
 Alpha  occ. eigenvalues --  -14.42517 -14.42237 -14.41451 -14.41054 -14.39414
 Alpha  occ. eigenvalues --  -14.39095 -14.38646 -14.38324 -10.39401 -10.38904
 Alpha  occ. eigenvalues --  -10.35291 -10.35272 -10.34482 -10.33999 -10.31913
 Alpha  occ. eigenvalues --  -10.31610 -10.31497 -10.31040 -10.30961 -10.30805
 Alpha  occ. eigenvalues --  -10.30629 -10.30528 -10.30155 -10.30117 -10.30074
 Alpha  occ. eigenvalues --  -10.29943 -10.29794 -10.29632 -10.29571 -10.29236
 Alpha  occ. eigenvalues --  -10.29168 -10.29134 -10.28865 -10.28700 -10.28526
 Alpha  occ. eigenvalues --  -10.28510 -10.28405 -10.28202 -10.28169 -10.27935
 Alpha  occ. eigenvalues --  -10.27799 -10.27752 -10.27741 -10.27556 -10.27472
 Alpha  occ. eigenvalues --  -10.27424 -10.27409 -10.27393 -10.27311 -10.27299
 Alpha  occ. eigenvalues --  -10.27287 -10.27228 -10.27220 -10.26995 -10.26914
 Alpha  occ. eigenvalues --  -10.26904 -10.26833 -10.26522 -10.26348 -10.26294
 Alpha  occ. eigenvalues --  -10.26094 -10.26054 -10.26025 -10.25849 -10.25840
 Alpha  occ. eigenvalues --  -10.25546 -10.25425 -10.25383 -10.25317 -10.25103
 Alpha  occ. eigenvalues --  -10.24869 -10.24797 -10.24616 -10.24507 -10.24500
 Alpha  occ. eigenvalues --  -10.24422  -3.16561  -3.16140  -1.91444  -1.91031
 Alpha  occ. eigenvalues --   -1.91022  -1.90873  -1.90610  -1.90448  -1.16917
 Alpha  occ. eigenvalues --   -1.16471  -1.08728  -1.08433  -1.07061  -1.06978
 Alpha  occ. eigenvalues --   -1.06849  -1.06764  -1.04638  -1.04243  -1.03774
 Alpha  occ. eigenvalues --   -1.03389  -1.03253  -1.02744  -1.02434  -1.01831
 Alpha  occ. eigenvalues --   -0.92046  -0.91731  -0.89491  -0.89283  -0.89115
 Alpha  occ. eigenvalues --   -0.88923  -0.88251  -0.87895  -0.87822  -0.87711
 Alpha  occ. eigenvalues --   -0.87487  -0.87405  -0.87175  -0.86917  -0.85048
 Alpha  occ. eigenvalues --   -0.84775  -0.83901  -0.83519  -0.82852  -0.82740
 Alpha  occ. eigenvalues --   -0.82636  -0.82427  -0.81694  -0.81358  -0.80635
 Alpha  occ. eigenvalues --   -0.80207  -0.78750  -0.78389  -0.77226  -0.77003
 Alpha  occ. eigenvalues --   -0.76892  -0.76638  -0.75991  -0.75608  -0.74884
 Alpha  occ. eigenvalues --   -0.74508  -0.72787  -0.72404  -0.71706  -0.71315
 Alpha  occ. eigenvalues --   -0.69829  -0.69307  -0.68915  -0.68595  -0.67665
 Alpha  occ. eigenvalues --   -0.67346  -0.67253  -0.67013  -0.65376  -0.65046
 Alpha  occ. eigenvalues --   -0.64919  -0.64662  -0.64484  -0.64389  -0.64244
 Alpha  occ. eigenvalues --   -0.63805  -0.62429  -0.62017  -0.60376  -0.60092
 Alpha  occ. eigenvalues --   -0.59877  -0.59566  -0.59022  -0.58705  -0.58541
 Alpha  occ. eigenvalues --   -0.58145  -0.57731  -0.57321  -0.57298  -0.56930
 Alpha  occ. eigenvalues --   -0.56345  -0.56113  -0.55930  -0.55670  -0.55488
 Alpha  occ. eigenvalues --   -0.55377  -0.55250  -0.54937  -0.54595  -0.54181
 Alpha  occ. eigenvalues --   -0.53989  -0.53702  -0.53312  -0.53211  -0.53017
 Alpha  occ. eigenvalues --   -0.52989  -0.52887  -0.52667  -0.52645  -0.52505
 Alpha  occ. eigenvalues --   -0.52350  -0.51978  -0.51950  -0.51649  -0.51549
 Alpha  occ. eigenvalues --   -0.51460  -0.51238  -0.50934  -0.50395  -0.50297
 Alpha  occ. eigenvalues --   -0.49976  -0.49876  -0.49769  -0.49578  -0.49491
 Alpha  occ. eigenvalues --   -0.49299  -0.49233  -0.49150  -0.48985  -0.48865
 Alpha  occ. eigenvalues --   -0.48668  -0.48474  -0.48356  -0.48334  -0.48176
 Alpha  occ. eigenvalues --   -0.48077  -0.47690  -0.47346  -0.47276  -0.46871
 Alpha  occ. eigenvalues --   -0.46816  -0.46633  -0.46421  -0.46385  -0.46306
 Alpha  occ. eigenvalues --   -0.46188  -0.45980  -0.45905  -0.45779  -0.45547
 Alpha  occ. eigenvalues --   -0.45171  -0.44937  -0.44645  -0.44483  -0.44315
 Alpha  occ. eigenvalues --   -0.44194  -0.44171  -0.44087  -0.43977  -0.43922
 Alpha  occ. eigenvalues --   -0.43785  -0.43737  -0.43581  -0.43433  -0.43298
 Alpha  occ. eigenvalues --   -0.43136  -0.43052  -0.42888  -0.42718  -0.42628
 Alpha  occ. eigenvalues --   -0.42604  -0.42225  -0.42014  -0.41749  -0.41667
 Alpha  occ. eigenvalues --   -0.41572  -0.41410  -0.41208  -0.41172  -0.40907
 Alpha  occ. eigenvalues --   -0.40765  -0.40717  -0.40574  -0.40536  -0.40447
 Alpha  occ. eigenvalues --   -0.40301  -0.40072  -0.40034  -0.39350  -0.39036
 Alpha  occ. eigenvalues --   -0.38453  -0.37992  -0.37849  -0.37442  -0.37335
 Alpha  occ. eigenvalues --   -0.37309  -0.36976  -0.36933  -0.36877  -0.36542
 Alpha  occ. eigenvalues --   -0.36262  -0.35881  -0.34326  -0.34075  -0.33973
 Alpha  occ. eigenvalues --   -0.33664  -0.33224  -0.32896  -0.31225  -0.31149
 Alpha  occ. eigenvalues --   -0.31049  -0.30706  -0.30119  -0.29725  -0.29441
 Alpha  occ. eigenvalues --   -0.29329  -0.29095  -0.28947  -0.24125  -0.23757
 Alpha  occ. eigenvalues --   -0.21147  -0.20840
 Alpha virt. eigenvalues --   -0.08777  -0.08533  -0.01762  -0.01422  -0.00014
 Alpha virt. eigenvalues --    0.00166   0.02156   0.02442   0.03064   0.03765
 Alpha virt. eigenvalues --    0.04629   0.04776   0.04974   0.05359   0.05981

 Mulliken charges:
               1
     1  Mg   0.808717
     2  C   -0.004309
     3  C   -0.092181
     4  C   -0.042949
     5  C   -0.063616
     6  N   -0.256036
     7  C   -0.057900
     8  C   -0.012976
     9  C   -0.087160
    10  C    0.046283
    11  C    0.104763
    12  C    0.049714
    13  C   -0.071871
    14  H    0.035493
    15  N   -0.430962
    16  C    0.168227
    17  C   -0.174082
    18  C   -0.000990
    19  C    0.148432
    20  C    0.109294
    21  C    0.016076
    22  O   -0.249686
    23  C    0.059131
    24  N   -0.336190
    25  C    0.040549
    26  C   -0.028524
    27  C   -0.023513
    28  C    0.074465
    29  C    0.076218
    30  C    0.034913
    31  C   -0.006354
    32  N   -0.309307
    33  C    0.078227
    34  C   -0.171853
    35  C    0.006608
    36  C    0.078331
    37  C    0.127643
    38  C    0.044179
    39  O   -0.188944
    40  C   -0.004903
    41  C    0.214807
    42  O   -0.261634
    43  O   -0.303526
    44  C    0.157326
    45  H   -0.017519
    46  H   -0.016532
    47  H   -0.042016
    48  H    0.000908
    49  H   -0.003526
    50  H    0.025648
    51  H    0.017177
    52  H    0.017033
    53  H    0.012167
    54  H    0.042474
    55  H    0.018696
    56  H    0.018999
    57  H    0.005187
    58  H    0.026449
    59  H    0.045853
    60  H    0.035656
    61  H    0.034884
    62  H    0.040849
    63  H    0.017483
    64  H    0.009282
    65  H    0.023508
    66  H    0.012399
    67  H    0.004916
    68  H    0.006519
    69  H    0.004796
    70  H    0.008921
    71  H    0.019534
    72  H    0.030491
    73  H    0.046599
    74  H    0.009826
    75  H    0.046141
    76  H    0.035826
    77  H    0.044199
    78  H    0.047106
    79  H    0.052578
    80  Mg   0.837248
    81  C   -0.017599
    82  C   -0.088468
    83  C   -0.045534
    84  C   -0.065714
    85  N   -0.254648
    86  C   -0.049768
    87  C   -0.015087
    88  C   -0.090399
    89  C    0.045499
    90  C    0.114612
    91  C    0.062625
    92  C   -0.077555
    93  H    0.034275
    94  N   -0.423189
    95  C    0.162461
    96  C   -0.175395
    97  C   -0.008874
    98  C    0.152132
    99  C    0.099592
   100  C    0.015660
   101  O   -0.256806
   102  C    0.061811
   103  N   -0.349788
   104  C    0.036633
   105  C   -0.021859
   106  C   -0.039284
   107  C    0.086020
   108  C    0.073653
   109  C    0.027756
   110  C   -0.031237
   111  N   -0.324206
   112  C    0.078752
   113  C   -0.162045
   114  C    0.001893
   115  C    0.096557
   116  C    0.130419
   117  C    0.042468
   118  O   -0.188053
   119  C    0.000975
   120  C    0.211162
   121  O   -0.251303
   122  O   -0.305642
   123  C    0.152205
   124  H   -0.020728
   125  H   -0.017477
   126  H   -0.031620
   127  H   -0.001013
   128  H   -0.004914
   129  H    0.022210
   130  H    0.014282
   131  H    0.015513
   132  H    0.013906
   133  H    0.037547
   134  H    0.020584
   135  H    0.019321
   136  H    0.008369
   137  H    0.024803
   138  H    0.039059
   139  H    0.037918
   140  H    0.033244
   141  H    0.034901
   142  H    0.013908
   143  H    0.023326
   144  H    0.022087
   145  H    0.009124
   146  H    0.009159
   147  H    0.021210
   148  H    0.020658
   149  H    0.013126
   150  H    0.042835
   151  H    0.026708
   152  H    0.045393
   153  H    0.014598
   154  H    0.046800
   155  H    0.034591
   156  H    0.043611
   157  H    0.049251
   158  H    0.053316
 Sum of Mulliken charges =  -0.00000

 Dipole moment (field-independent basis, Debye):
    X=              1.0686    Y=              6.5560    Z=             -4.2696  Tot=              7.8964
 Quadrupole moment (field-independent basis, Debye-Ang):
   XX=           -452.0018   YY=           -540.8163   ZZ=           -482.6763
   XY=            -28.6688   XZ=             -3.0307   YZ=             -6.7249

 Normal termination of Gaussian 16 at Thu Sep  9 13:43:36 2021.
