 Gaussian 16, Revision A.03,
 Gaussian 16:  ES64L-G16RevA.03 25-Dec-2016

 -----------------------------------
 #p cam-b3lyp/Def2SVP td=(nstates=5)
 -----------------------------------

 --------------------------------
 TDDFT excited states in gaussian
 --------------------------------
 Symbolic Z-matrix:
 Charge =  0 Multiplicity = 1

                         Standard orientation:
 ---------------------------------------------------------------------
 Center     Atomic      Atomic             Coordinates (Angstroms)
 Number     Number       Type             X           Y           Z
 ---------------------------------------------------------------------
      1         12           0        6.527127   -0.629891   -0.459808
      2          6           0        6.745438    2.770214    0.637387
      3          6           0        7.603762   -1.545142    2.646031
      4          6           0        6.778156   -3.600454   -1.541179
      5          6           0        6.574918    0.576770   -3.728959
      6          7           0        7.070920    0.554359    1.329741
      7          6           0        7.053964    1.847111    1.639055
      8          6           0        7.321404    2.124738    3.148615
      9          6           0        8.117290    0.792021    3.512521
     10          6           0        7.538175   -0.132773    2.456440
     11          6           0        9.623005    0.903156    3.295784
     12          6           0        5.996762    2.244650    3.974856
     13          6           0        6.153975    2.833942    5.379624
     14          1           0        5.095244    3.682300    5.905671
     15          7           0        6.630957   -2.344231    0.516465
     16          6           0        7.079582   -2.530088    1.781170
     17          6           0        6.957145   -3.979357    2.048209
     18          6           0        6.579459   -4.646949    0.771585
     19          6           0        6.674571   -3.546455   -0.153209
     20          6           0        7.142175   -4.584365    3.405957
     21          6           0        6.204169   -6.055794    0.436258
     22          8           0        6.138600   -6.473400   -0.770341
     23          6           0        5.998837   -6.969624    1.574588
     24          7           0        6.879178   -1.425299   -2.357444
     25          6           0        6.881079   -2.747068   -2.562152
     26          6           0        6.869798   -3.072851   -4.026282
     27          6           0        6.613444   -1.691203   -4.784624
     28          6           0        6.602937   -0.746795   -3.557328
     29          6           0        8.144468   -3.727866   -4.575995
     30          6           0        5.415339   -1.639221   -5.765573
     31          6           0        4.117736   -1.753850   -4.997337
     32          7           0        6.461116    1.319942   -1.411037
     33          6           0        6.515559    1.589466   -2.786198
     34          6           0        6.549064    3.055717   -2.938034
     35          6           0        6.528381    3.540129   -1.631603
     36          6           0        6.511228    2.445424   -0.720769
     37          6           0        6.650506    3.764086   -4.167813
     38          6           0        6.541657    4.727575   -0.792762
     39          8           0        6.461649    5.938729   -1.002991
     40          6           0        6.805738    4.275691    0.711196
     41          6           0        5.798419    4.977991    1.580329
     42          8           0        4.582451    4.710815    1.494275
     43          8           0        6.440149    5.672713    2.532215
     44          6           0        5.497414    6.369893    3.447280
     45          1           0        8.156582   -1.937722    3.501725
     46          1           0        6.755825   -4.608330   -1.960852
     47          1           0        6.505044    1.027197   -4.720768
     48          1           0        7.945012    2.996654    3.346859
     49          1           0        7.869894    0.429855    4.510195
     50          1           0        9.886657    1.839233    2.803677
     51          1           0        9.889950    0.053892    2.666512
     52          1           0       10.160817    0.761918    4.233646
     53          1           0        5.641362    1.246594    4.231051
     54          1           0        5.249613    2.817959    3.424935
     55          1           0        7.125212    3.313611    5.504227
     56          1           0        6.163894    2.012083    6.095621
     57          1           0        7.575184   -3.871400    4.106478
     58          1           0        7.899063   -5.362263    3.307451
     59          1           0        6.218849   -5.016602    3.791926
     60          1           0        6.913127   -7.018381    2.166404
     61          1           0        5.649607   -7.908817    1.147033
     62          1           0        5.232326   -6.552546    2.228390
     63          1           0        6.065207   -3.766710   -4.266321
     64          1           0        7.468068   -1.393698   -5.392722
     65          1           0        7.969116   -4.688916   -5.060081
     66          1           0        8.853423   -3.827340   -3.754546
     67          1           0        8.709019   -3.112715   -5.276200
     68          1           0        5.454335   -2.480555   -6.456646
     69          1           0        5.383457   -0.724687   -6.357909
     70          1           0        4.004194   -2.829882   -4.870470
     71          1           0        3.293387   -1.340196   -5.579187
     72          1           0        4.203899   -1.315779   -4.002773
     73          1           0        5.942327    4.590097   -4.103345
     74          1           0        6.428815    3.117578   -5.016626
     75          1           0        7.695894    4.070936   -4.138457
     76          1           0        7.827688    4.567391    0.951301
     77          1           0        5.761775    7.427349    3.435681
     78          1           0        5.547946    5.846154    4.402031
     79          1           0        4.456630    6.414410    3.124595
     80         12           0       -6.684101   -0.820240    0.337864
     81          6           0       -6.618510    2.415055   -1.213794
     82          6           0       -5.655570    0.702257    3.211660
     83          6           0       -6.297594   -3.701744    1.608689
     84          6           0       -6.587580   -2.202393   -2.859953
     85          7           0       -6.230228    1.291819    0.812690
     86          6           0       -6.300300    2.442255    0.160049
     87          6           0       -6.091842    3.698795    1.047295
     88          6           0       -5.249471    3.018646    2.233332
     89          6           0       -5.764373    1.586181    2.108514
     90          6           0       -3.751129    3.011407    1.979850
     91          6           0       -7.446650    4.291631    1.571767
     92          6           0       -7.342284    5.689851    2.184830
     93          1           0       -8.451365    6.619680    1.990325
     94          7           0       -6.545781   -1.378075    2.237401
     95          6           0       -6.131029   -0.625837    3.278273
     96          6           0       -6.192252   -1.502620    4.457956
     97          6           0       -6.519599   -2.880780    4.001628
     98          6           0       -6.444904   -2.707411    2.564809
     99          6           0       -6.029815   -0.992368    5.860343
    100          6           0       -6.833705   -4.148390    4.736960
    101          8           0       -6.853384   -5.284088    4.143144
    102          6           0       -7.025613   -4.033045    6.190011
    103          7           0       -6.259932   -2.680295   -0.488347
    104          6           0       -6.197728   -3.780832    0.281626
    105          6           0       -6.155139   -5.033813   -0.560167
    106          6           0       -6.446803   -4.555232   -2.057988
    107          6           0       -6.522506   -3.030135   -1.826145
    108          6           0       -4.842527   -5.816143   -0.522632
    109          6           0       -7.620367   -5.248844   -2.802521
    110          6           0       -8.934811   -4.873649   -2.156875
    111          7           0       -6.801008   -0.070163   -1.684949
    112          6           0       -6.713551   -0.819222   -2.878826
    113          6           0       -6.730655    0.143617   -3.999136
    114          6           0       -6.804262    1.397307   -3.373577
    115          6           0       -6.810765    1.228807   -1.962530
    116          6           0       -6.633130   -0.185587   -5.380518
    117          6           0       -6.867212    2.825477   -3.585859
    118          8           0       -6.979142    3.553081   -4.571666
    119          6           0       -6.622174    3.554430   -2.194831
    120          6           0       -7.677194    4.614369   -2.033669
    121          8           0       -8.875081    4.301219   -1.916907
    122          8           0       -7.080320    5.802292   -1.826474
    123          6           0       -8.085843    6.883734   -1.649757
    124          1           0       -5.118030    1.041767    4.097478
    125          1           0       -6.271453   -4.724385    1.992097
    126          1           0       -6.659630   -2.558998   -3.889666
    127          1           0       -5.512586    4.489620    0.585951
    128          1           0       -5.518436    3.437692    3.199469
    129          1           0       -3.508806    3.359918    0.986886
    130          1           0       -3.436129    1.984032    2.107581
    131          1           0       -3.234752    3.583662    2.755872
    132          1           0       -7.768567    3.723266    2.453843
    133          1           0       -8.188101    4.291370    0.796601
    134          1           0       -6.387940    6.174595    1.945684
    135          1           0       -7.327634    5.591423    3.273003
    136          1           0       -5.635363    0.031183    5.872819
    137          1           0       -5.242847   -1.592489    6.329815
    138          1           0       -6.944044   -1.084417    6.450589
    139          1           0       -6.128209   -3.616042    6.640822
    140          1           0       -7.329297   -5.026926    6.524472
    141          1           0       -7.834496   -3.318867    6.380466
    142          1           0       -6.927583   -5.729868   -0.256944
    143          1           0       -5.583810   -4.730441   -2.717062
    144          1           0       -4.970134   -6.867695   -0.203206
    145          1           0       -4.155993   -5.299628    0.134946
    146          1           0       -4.291107   -5.838281   -1.461057
    147          1           0       -7.532535   -6.334897   -2.719275
    148          1           0       -7.662897   -5.009282   -3.859772
    149          1           0       -9.005875   -5.572195   -1.317784
    150          1           0       -9.757710   -5.010890   -2.855485
    151          1           0       -8.893509   -3.860693   -1.739904
    152          1           0       -7.365622    0.420065   -5.897383
    153          1           0       -6.803239   -1.246888   -5.549285
    154          1           0       -5.596196    0.100172   -5.576387
    155          1           0       -5.617191    3.977503   -2.219239
    156          1           0       -7.857361    7.656538   -2.390193
    157          1           0       -8.027775    7.174391   -0.583970
    158          1           0       -9.116468    6.654663   -1.894265
 ---------------------------------------------------------------------

 SCF Done:  E(RCAM-B3LYP) =  -4069.81185019     A.U. after   19 cycles

 Excitation energies and oscillator strengths:

 Excited State   1:      Singlet-A      1.6684 eV  743.13 nm  f=0.1032  <S**2>=0.000
     309 -> 315       -0.10446
     310 -> 316        0.13655
     311 -> 313       -0.41520
     312 -> 314        0.54666
 This state for optimization and/or second-order correction.
 Total Energy, E(TD-HF/TD-DFT) =  -4069.75053779
 Copying the excited state density for this state as the 1-particle RhoCI density.

 Excited State   2:      Singlet-A      1.6858 eV  735.48 nm  f=0.6361  <S**2>=0.000
     309 -> 315        0.14120
     310 -> 316        0.10618
     311 -> 313        0.54570
     312 -> 314        0.41452

 Excited State   3:      Singlet-A      2.1844 eV  567.59 nm  f=0.0659  <S**2>=0.000
     309 -> 313       -0.15499
     310 -> 314        0.62412
     312 -> 316       -0.26347

 Excited State   4:      Singlet-A      2.1935 eV  565.23 nm  f=0.1270  <S**2>=0.000
     309 -> 313        0.62169
     310 -> 314        0.15359
     311 -> 315       -0.27084

 Excited State   5:      Singlet-A      2.6470 eV  468.40 nm  f=0.0000  <S**2>=0.000
     312 -> 313        0.70710

 The electronic state is 1-A.
 Alpha  occ. eigenvalues --  -46.87858 -46.87544 -19.26404 -19.26201 -19.19138
 Alpha  occ. eigenvalues --  -19.19023 -19.18862 -19.18640 -19.18235 -19.17927
 Alpha  occ. eigenvalues --  -14.42515 -14.42372 -14.41507 -14.41246 -14.39462
 Alpha  occ. eigenvalues --  -14.39241 -14.38647 -14.38484 -10.39193 -10.38951
 Alpha  occ. eigenvalues --  -10.35494 -10.35321 -10.34458 -10.34102 -10.31819
 Alpha  occ. eigenvalues --  -10.31609 -10.31472 -10.31173 -10.30980 -10.30897
 Alpha  occ. eigenvalues --  -10.30631 -10.30564 -10.30289 -10.30258 -10.30243
 Alpha  occ. eigenvalues --  -10.30038 -10.29974 -10.29784 -10.29687 -10.29331
 Alpha  occ. eigenvalues --  -10.29309 -10.29296 -10.28842 -10.28681 -10.28554
 Alpha  occ. eigenvalues --  -10.28509 -10.28428 -10.28288 -10.28198 -10.27960
 Alpha  occ. eigenvalues --  -10.27891 -10.27849 -10.27789 -10.27640 -10.27545
 Alpha  occ. eigenvalues --  -10.27540 -10.27536 -10.27491 -10.27470 -10.27425
 Alpha  occ. eigenvalues --  -10.27393 -10.27366 -10.27361 -10.27283 -10.27239
 Alpha  occ. eigenvalues --  -10.26907 -10.26828 -10.26549 -10.26447 -10.26369
 Alpha  occ. eigenvalues --  -10.26306 -10.26213 -10.26072 -10.26059 -10.25877
 Alpha  occ. eigenvalues --  -10.25826 -10.25769 -10.25751 -10.25472 -10.25306
 Alpha  occ. eigenvalues --  -10.24891 -10.24845 -10.24760 -10.24718 -10.24657
 Alpha  occ. eigenvalues --  -10.24581  -3.16601  -3.16294  -1.91482  -1.91176
 Alpha  occ. eigenvalues --   -1.91069  -1.90911  -1.90765  -1.90602  -1.16752
 Alpha  occ. eigenvalues --   -1.16498  -1.08696  -1.08531  -1.07262  -1.06895
 Alpha  occ. eigenvalues --   -1.06807  -1.06758  -1.04647  -1.04369  -1.03819
 Alpha  occ. eigenvalues --   -1.03547  -1.03292  -1.02928  -1.02470  -1.01997
 Alpha  occ. eigenvalues --   -0.92040  -0.91862  -0.89569  -0.89391  -0.89273
 Alpha  occ. eigenvalues --   -0.88987  -0.88335  -0.88120  -0.87922  -0.87740
 Alpha  occ. eigenvalues --   -0.87684  -0.87562  -0.87327  -0.87033  -0.85064
 Alpha  occ. eigenvalues --   -0.84859  -0.83985  -0.83779  -0.83014  -0.82855
 Alpha  occ. eigenvalues --   -0.82724  -0.82524  -0.81672  -0.81468  -0.80668
 Alpha  occ. eigenvalues --   -0.80323  -0.78851  -0.78536  -0.77282  -0.77023
 Alpha  occ. eigenvalues --   -0.77016  -0.76764  -0.76002  -0.75692  -0.74952
 Alpha  occ. eigenvalues --   -0.74694  -0.72831  -0.72585  -0.71736  -0.71451
 Alpha  occ. eigenvalues --   -0.69950  -0.69663  -0.68949  -0.68694  -0.67704
 Alpha  occ. eigenvalues --   -0.67490  -0.67306  -0.67080  -0.65369  -0.65130
 Alpha  occ. eigenvalues --   -0.64924  -0.64693  -0.64651  -0.64526  -0.64322
 Alpha  occ. eigenvalues --   -0.64099  -0.62388  -0.62150  -0.60494  -0.60246
 Alpha  occ. eigenvalues --   -0.59880  -0.59651  -0.59050  -0.58876  -0.58568
 Alpha  occ. eigenvalues --   -0.58308  -0.57666  -0.57423  -0.57368  -0.57132
 Alpha  occ. eigenvalues --   -0.56371  -0.56093  -0.56079  -0.55755  -0.55580
 Alpha  occ. eigenvalues --   -0.55402  -0.55344  -0.55137  -0.54597  -0.54373
 Alpha  occ. eigenvalues --   -0.53981  -0.53756  -0.53356  -0.53295  -0.53123
 Alpha  occ. eigenvalues --   -0.53021  -0.52993  -0.52819  -0.52778  -0.52566
 Alpha  occ. eigenvalues --   -0.52480  -0.52312  -0.51963  -0.51778  -0.51697
 Alpha  occ. eigenvalues --   -0.51530  -0.51262  -0.51082  -0.50621  -0.50397
 Alpha  occ. eigenvalues --   -0.50080  -0.49976  -0.49859  -0.49768  -0.49585
 Alpha  occ. eigenvalues --   -0.49371  -0.49281  -0.49172  -0.49078  -0.48953
 Alpha  occ. eigenvalues --   -0.48668  -0.48515  -0.48505  -0.48424  -0.48276
 Alpha  occ. eigenvalues --   -0.48242  -0.47761  -0.47476  -0.47357  -0.47015
 Alpha  occ. eigenvalues --   -0.46858  -0.46640  -0.46592  -0.46419  -0.46412
 Alpha  occ. eigenvalues --   -0.46224  -0.46164  -0.45973  -0.45895  -0.45695
 Alpha  occ. eigenvalues --   -0.45252  -0.45104  -0.44647  -0.44570  -0.44393
 Alpha  occ. eigenvalues --   -0.44345  -0.44203  -0.44163  -0.44086  -0.43987
 Alpha  occ. eigenvalues --   -0.43979  -0.43831  -0.43575  -0.43454  -0.43425
 Alpha  occ. eigenvalues --   -0.43257  -0.43091  -0.42803  -0.42796  -0.42774
 Alpha  occ. eigenvalues --   -0.42711  -0.42457  -0.42071  -0.41852  -0.41769
 Alpha  occ. eigenvalues --   -0.41616  -0.41545  -0.41328  -0.41206  -0.40943
 Alpha  occ. eigenvalues --   -0.40883  -0.40854  -0.40626  -0.40625  -0.40572
 Alpha  occ. eigenvalues --   -0.40379  -0.40337  -0.40091  -0.39483  -0.39335
 Alpha  occ. eigenvalues --   -0.38525  -0.38242  -0.37847  -0.37520  -0.37375
 Alpha  occ. eigenvalues --   -0.37345  -0.37155  -0.37067  -0.36809  -0.36640
 Alpha  occ. eigenvalues --   -0.36268  -0.36098  -0.34347  -0.34135  -0.33878
 Alpha  occ. eigenvalues --   -0.33729  -0.33250  -0.33061  -0.31392  -0.31198
 Alpha  occ. eigenvalues --   -0.31098  -0.30855  -0.30096  -0.29829  -0.29505
 Alpha  occ. eigenvalues --   -0.29379  -0.29226  -0.29099  -0.24142  -0.23918
 Alpha  occ. eigenvalues --   -0.21186  -0.21002
 Alpha virt. eigenvalues --   -0.08832  -0.08681  -0.01808  -0.01573  -0.00116
 Alpha virt. eigenvalues --    0.00074   0.02141   0.02322   0.03053   0.03330
 Alpha virt. eigenvalues --    0.04640   0.04864   0.04991   0.05303   0.06064

 Mulliken charges:
               1
     1  Mg   0.838580
     2  C   -0.003268
     3  C   -0.094311
     4  C   -0.045766
     5  C   -0.063730
     6  N   -0.256755
     7  C   -0.052611
     8  C   -0.013979
     9  C   -0.086964
    10  C    0.046184
    11  C    0.104781
    12  C    0.053552
    13  C   -0.071415
    14  H    0.034868
    15  N   -0.433151
    16  C    0.168374
    17  C   -0.177159
    18  C   -0.003898
    19  C    0.148681
    20  C    0.110155
    21  C    0.012343
    22  O   -0.249524
    23  C    0.062447
    24  N   -0.341124
    25  C    0.041263
    26  C   -0.028189
    27  C   -0.024017
    28  C    0.074775
    29  C    0.076124
    30  C    0.035070
    31  C   -0.004553
    32  N   -0.310486
    33  C    0.080346
    34  C   -0.169457
    35  C    0.008357
    36  C    0.082918
    37  C    0.127273
    38  C    0.046083
    39  O   -0.188417
    40  C   -0.005352
    41  C    0.212958
    42  O   -0.257724
    43  O   -0.304561
    44  C    0.157905
    45  H   -0.017598
    46  H   -0.016699
    47  H   -0.041143
    48  H    0.000955
    49  H   -0.004237
    50  H    0.025540
    51  H    0.016652
    52  H    0.016679
    53  H    0.011002
    54  H    0.043602
    55  H    0.018233
    56  H    0.017930
    57  H    0.005735
    58  H    0.026984
    59  H    0.039586
    60  H    0.037373
    61  H    0.035872
    62  H    0.031586
    63  H    0.016576
    64  H    0.009633
    65  H    0.023311
    66  H    0.012548
    67  H    0.004909
    68  H    0.006477
    69  H    0.005078
    70  H    0.008589
    71  H    0.018517
    72  H    0.028806
    73  H    0.047805
    74  H    0.009459
    75  H    0.046089
    76  H    0.035263
    77  H    0.043131
    78  H    0.046199
    79  H    0.052934
    80  Mg   0.837983
    81  C   -0.016734
    82  C   -0.087682
    83  C   -0.045788
    84  C   -0.064988
    85  N   -0.254663
    86  C   -0.049262
    87  C   -0.015243
    88  C   -0.090612
    89  C    0.045944
    90  C    0.114396
    91  C    0.062507
    92  C   -0.077808
    93  H    0.034398
    94  N   -0.423465
    95  C    0.162888
    96  C   -0.174820
    97  C   -0.008188
    98  C    0.152170
    99  C    0.099521
   100  C    0.015282
   101  O   -0.253546
   102  C    0.061304
   103  N   -0.350058
   104  C    0.037592
   105  C   -0.019819
   106  C   -0.034817
   107  C    0.089051
   108  C    0.073685
   109  C    0.034799
   110  C   -0.007625
   111  N   -0.324155
   112  C    0.078637
   113  C   -0.163184
   114  C    0.002477
   115  C    0.096203
   116  C    0.131442
   117  C    0.042478
   118  O   -0.187739
   119  C    0.000911
   120  C    0.211152
   121  O   -0.251402
   122  O   -0.305172
   123  C    0.152162
   124  H   -0.019630
   125  H   -0.015979
   126  H   -0.040690
   127  H    0.000358
   128  H   -0.004770
   129  H    0.024186
   130  H    0.014410
   131  H    0.017139
   132  H    0.013528
   133  H    0.037427
   134  H    0.021557
   135  H    0.019293
   136  H    0.008779
   137  H    0.025474
   138  H    0.039435
   139  H    0.037848
   140  H    0.035961
   141  H    0.033886
   142  H    0.014109
   143  H    0.012466
   144  H    0.024776
   145  H    0.011641
   146  H    0.005924
   147  H    0.006074
   148  H    0.003534
   149  H    0.010781
   150  H    0.017716
   151  H    0.030221
   152  H    0.045861
   153  H    0.008246
   154  H    0.047118
   155  H    0.036288
   156  H    0.044059
   157  H    0.049554
   158  H    0.053203
 Sum of Mulliken charges =  -0.00000

 Dipole moment (field-independent basis, Debye):
    X=              4.5543    Y=             -2.1202    Z=              6.7635  Tot=              8.4251
 Quadrupole moment (field-independent basis, Debye-Ang):
   XX=           -517.9232   YY=           -537.2615   ZZ=           -462.2338
   XY=            -13.1064   XZ=             -2.7694   YZ=             35.5818

 Normal termination of Gaussian 16 at Sat Sep 11 15:52:45 2021.
