 Gaussian 16, Revision A.03,
 Gaussian 16:  ES64L-G16RevA.03 25-Dec-2016

 -----------------------------------
 #p cam-b3lyp/Def2SVP td=(nstates=5)
 -----------------------------------

 --------------------------------
 TDDFT excited states in gaussian
 --------------------------------
 Symbolic Z-matrix:
 Charge =  0 Multiplicity = 1

                         Standard orientation:
 ---------------------------------------------------------------------
 Center     Atomic      Atomic             Coordinates (Angstroms)
 Number     Number       Type             X           Y           Z
 ---------------------------------------------------------------------
      1         12           0        5.177936   -0.742943    0.501189
      2          6           0        5.772679    1.819183   -1.926569
      3          6           0        6.348135    1.427488    2.859775
      4          6           0        5.090154   -3.131137    2.585761
      5          6           0        5.142525   -3.024959   -2.132594
      6          7           0        5.933498    1.333144    0.361051
      7          6           0        6.053868    2.222755   -0.619394
      8          6           0        6.434760    3.647649   -0.117425
      9          6           0        7.124892    3.251680    1.264213
     10          6           0        6.401579    1.943381    1.530855
     11          6           0        8.618931    2.970557    1.140442
     12          6           0        5.178099    4.553910    0.108910
     13          6           0        5.471871    6.046902    0.282187
     14          1           0        4.528710    7.013654   -0.259279
     15          7           0        5.181391   -0.720032    2.476616
     16          6           0        5.685235    0.252094    3.274361
     17          6           0        5.446096   -0.195711    4.663233
     18          6           0        4.933575   -1.593018    4.608922
     19          6           0        5.074472   -1.883558    3.204959
     20          6           0        5.654902    0.682684    5.858461
     21          6           0        4.411095   -2.523054    5.657817
     22          8           0        4.235959   -3.769794    5.435236
     23          6           0        4.190470   -1.946243    6.996344
     24          7           0        5.342187   -2.813813    0.295875
     25          6           0        5.210386   -3.624516    1.351513
     26          6           0        5.082383   -5.057436    0.926902
     27          6           0        4.909650   -5.034411   -0.660356
     28          6           0        5.058839   -3.510468   -0.891890
     29          6           0        6.256562   -5.973231    1.299237
     30          6           0        3.665343   -5.750606   -1.242751
     31          6           0        2.410553   -5.009701   -0.838205
     32          7           0        5.235215   -0.635066   -1.665866
     33          6           0        5.232561   -1.712087   -2.564027
     34          6           0        5.391696   -1.147019   -3.916596
     35          6           0        5.493162    0.227121   -3.708536
     36          6           0        5.429461    0.500731   -2.312338
     37          6           0        5.484736   -1.891875   -5.125301
     38          6           0        5.665304    1.525797   -4.339143
     39          8           0        5.684686    1.928882   -5.503033
     40          6           0        5.975437    2.597422   -3.202805
     41          6           0        5.090296    3.788946   -3.447966
     42          8           0        3.851957    3.703220   -3.319383
     43          8           0        5.848510    4.890272   -3.560808
     44          6           0        5.029818    6.113230   -3.775912
     45          1           0        6.912281    1.933672    3.645560
     46          1           0        4.950384   -3.977146    3.261905
     47          1           0        5.055671   -3.668845   -3.009703
     48          1           0        7.146561    4.177437   -0.750739
     49          1           0        6.904845    3.973431    2.050583
     50          1           0        8.937896    2.962959    0.098269
     51          1           0        8.768856    1.989507    1.591615
     52          1           0        9.196146    3.670065    1.745658
     53          1           0        4.748246    4.334750    1.086282
     54          1           0        4.455545    4.419788   -0.696852
     55          1           0        6.488775    6.291425   -0.026072
     56          1           0        5.448615    6.278218    1.347153
     57          1           0        6.192419    1.593375    5.597189
     58          1           0        6.329867    0.151955    6.529622
     59          1           0        4.720262    0.901983    6.374881
     60          1           0        5.129884   -1.540911    7.372849
     61          1           0        3.731613   -2.734820    7.591697
     62          1           0        3.505691   -1.102245    6.908626
     63          1           0        4.204580   -5.521174    1.375049
     64          1           0        5.750437   -5.505428   -1.170155
     65          1           0        5.965176   -6.838358    1.895354
     66          1           0        7.000829   -5.371880    1.820518
     67          1           0        6.832766   -6.344893    0.452317
     68          1           0        3.585752   -6.759868   -0.840255
     69          1           0        3.682625   -5.827544   -2.329964
     70          1           0        2.206265   -5.402338    0.157253
     71          1           0        1.594686   -5.240577   -1.523966
     72          1           0        2.595466   -3.940284   -0.735052
     73          1           0        4.860593   -1.372556   -5.852434
     74          1           0        5.154585   -2.920620   -4.982875
     75          1           0        6.553806   -1.820256   -5.324842
     76          1           0        7.032315    2.848054   -3.288331
     77          1           0        5.389146    6.583098   -4.691522
     78          1           0        5.088506    6.691582   -2.853703
     79          1           0        3.980240    5.953023   -4.025030
     80         12           0       -5.291536    0.745794    0.399286
     81          6           0       -5.421208   -1.779346   -2.147459
     82          6           0       -6.157858   -1.678248    2.637171
     83          6           0       -5.626228    3.021916    2.584390
     84          6           0       -5.565073    3.120734   -2.136570
     85          7           0       -5.707829   -1.412771    0.155253
     86          6           0       -5.666023   -2.274575   -0.849673
     87          6           0       -5.820166   -3.760852   -0.429231
     88          6           0       -6.602300   -3.539109    0.955684
     89          6           0       -6.102732   -2.136671    1.296679
     90          6           0       -8.111982   -3.481621    0.791725
     91          6           0       -4.436196   -4.464113   -0.201078
     92          6           0       -4.500131   -5.989102   -0.091183
     93          1           0       -3.397748   -6.773379   -0.640857
     94          7           0       -5.332124    0.628590    2.379993
     95          6           0       -5.686949   -0.439388    3.124839
     96          6           0       -5.568199   -0.009514    4.526718
     97          6           0       -5.273178    1.449005    4.546718
     98          6           0       -5.422926    1.767537    3.140941
     99          6           0       -5.653240   -0.965498    5.680959
    100          6           0       -4.927623    2.402177    5.650474
    101          8           0       -4.945766    3.671596    5.474213
    102          6           0       -4.658352    1.809099    6.968516
    103          7           0       -5.769256    2.765065    0.270098
    104          6           0       -5.796709    3.540601    1.368147
    105          6           0       -5.890833    5.002426    1.001287
    106          6           0       -5.676268    5.062616   -0.582354
    107          6           0       -5.579886    3.550618   -0.882319
    108          6           0       -7.203948    5.695953    1.363412
    109          6           0       -4.547689    5.993228   -1.104791
    110          6           0       -3.198807    5.453152   -0.687390
    111          7           0       -5.277793    0.723002   -1.761124
    112          6           0       -5.432559    1.827876   -2.626802
    113          6           0       -5.469466    1.298807   -4.005627
    114          6           0       -5.355836   -0.090211   -3.843793
    115          6           0       -5.275516   -0.406229   -2.460619
    116          6           0       -5.641881    2.071281   -5.188706
    117          6           0       -5.296250   -1.361820   -4.528020
    118          8           0       -5.232663   -1.712492   -5.705616
    119          6           0       -5.463186   -2.521779   -3.454238
    120          6           0       -4.395198   -3.549449   -3.710800
    121          8           0       -3.194585   -3.266249   -3.552924
    122          8           0       -4.973635   -4.751287   -3.887945
    123          6           0       -3.954144   -5.805580   -4.134760
    124          1           0       -6.645796   -2.308343    3.381323
    125          1           0       -5.637724    3.855027    3.290983
    126          1           0       -5.549663    3.804591   -2.987901
    127          1           0       -6.418629   -4.363492   -1.101865
    128          1           0       -6.280184   -4.252459    1.709828
    129          1           0       -8.404622   -3.481198   -0.247741
    130          1           0       -8.425491   -2.564710    1.273408
    131          1           0       -8.583315   -4.293397    1.353151
    132          1           0       -4.071161   -4.218423    0.804468
    133          1           0       -3.736869   -4.185909   -0.965392
    134          1           0       -5.463084   -6.387040   -0.433680
    135          1           0       -4.457648   -6.262938    0.965811
    136          1           0       -6.040776   -1.942384    5.366457
    137          1           0       -6.417563   -0.576702    6.362512
    138          1           0       -4.709562   -1.056325    6.223067
    139          1           0       -5.528270    1.244109    7.294823
    140          1           0       -4.342924    2.639226    7.603564
    141          1           0       -3.836540    1.091375    6.867906
    142          1           0       -5.107296    5.573513    1.484023
    143          1           0       -6.573935    5.429383   -1.101505
    144          1           0       -7.065455    6.581356    2.012228
    145          1           0       -7.851783    4.972571    1.840433
    146          1           0       -7.804431    6.019814    0.515040
    147          1           0       -4.637051    6.985607   -0.656063
    148          1           0       -4.559898    6.124431   -2.181651
    149          1           0       -3.087280    5.830066    0.333682
    150          1           0       -2.414866    5.836435   -1.337434
    151          1           0       -3.212319    4.358294   -0.634966
    152          1           0       -4.934441    1.691957   -5.914063
    153          1           0       -5.486875    3.131117   -4.997644
    154          1           0       -6.686137    1.844206   -5.419451
    155          1           0       -6.465664   -2.935068   -3.571624
    156          1           0       -4.217224   -6.289247   -5.080557
    157          1           0       -3.954037   -6.439175   -3.227939
    158          1           0       -2.939218   -5.483846   -4.336870
 ---------------------------------------------------------------------

 SCF Done:  E(RCAM-B3LYP) =  -4069.81150130     A.U. after   19 cycles

 Excitation energies and oscillator strengths:

 Excited State   1:      Singlet-A      1.6566 eV  748.42 nm  f=0.0049  <S**2>=0.000
     309 -> 316        0.12477
     310 -> 315       -0.11372
     311 -> 313        0.50902
     312 -> 314       -0.46160
 This state for optimization and/or second-order correction.
 Total Energy, E(TD-HF/TD-DFT) =  -4069.75062231
 Copying the excited state density for this state as the 1-particle RhoCI density.

 Excited State   2:      Singlet-A      1.6956 eV  731.19 nm  f=0.7187  <S**2>=0.000
     309 -> 316        0.11977
     310 -> 315        0.13274
     311 -> 313        0.46004
     312 -> 314        0.50714

 Excited State   3:      Singlet-A      2.1829 eV  567.98 nm  f=0.0224  <S**2>=0.000
     309 -> 313        0.57570
     310 -> 314        0.28788
     311 -> 316       -0.24218
     312 -> 315       -0.12046

 Excited State   4:      Singlet-A      2.1929 eV  565.39 nm  f=0.1610  <S**2>=0.000
     309 -> 313       -0.28534
     310 -> 314        0.57248
     311 -> 316        0.12503
     312 -> 315       -0.25012

 Excited State   5:      Singlet-A      2.5720 eV  482.05 nm  f=0.0000  <S**2>=0.000
     312 -> 313        0.70710

 The electronic state is 1-A.
 Alpha  occ. eigenvalues --  -46.87605 -46.87519 -19.26259 -19.26116 -19.19047
 Alpha  occ. eigenvalues --  -19.18832 -19.18700 -19.18632 -19.17973 -19.17909
 Alpha  occ. eigenvalues --  -14.42364 -14.42265 -14.41263 -14.41220 -14.39221
 Alpha  occ. eigenvalues --  -14.39218 -14.38451 -14.38385 -10.38977 -10.38894
 Alpha  occ. eigenvalues --  -10.35338 -10.35314 -10.34193 -10.34088 -10.31704
 Alpha  occ. eigenvalues --  -10.31536 -10.31210 -10.31167 -10.30904 -10.30741
 Alpha  occ. eigenvalues --  -10.30369 -10.30317 -10.30257 -10.30212 -10.30033
 Alpha  occ. eigenvalues --  -10.30011 -10.29751 -10.29728 -10.29443 -10.29305
 Alpha  occ. eigenvalues --  -10.29263 -10.29076 -10.28610 -10.28585 -10.28577
 Alpha  occ. eigenvalues --  -10.28394 -10.28272 -10.28183 -10.28025 -10.27950
 Alpha  occ. eigenvalues --  -10.27861 -10.27603 -10.27543 -10.27535 -10.27409
 Alpha  occ. eigenvalues --  -10.27377 -10.27360 -10.27352 -10.27339 -10.27337
 Alpha  occ. eigenvalues --  -10.27319 -10.27286 -10.27250 -10.27220 -10.26974
 Alpha  occ. eigenvalues --  -10.26926 -10.26587 -10.26542 -10.26378 -10.26348
 Alpha  occ. eigenvalues --  -10.26081 -10.25968 -10.25964 -10.25922 -10.25821
 Alpha  occ. eigenvalues --  -10.25786 -10.25660 -10.25592 -10.25304 -10.25299
 Alpha  occ. eigenvalues --  -10.24729 -10.24637 -10.24610 -10.24558 -10.24506
 Alpha  occ. eigenvalues --  -10.24399  -3.16347  -3.16268  -1.91228  -1.91150
 Alpha  occ. eigenvalues --   -1.90815  -1.90739  -1.90657  -1.90576  -1.16548
 Alpha  occ. eigenvalues --   -1.16461  -1.08516  -1.08428  -1.07106  -1.06889
 Alpha  occ. eigenvalues --   -1.06833  -1.06457  -1.04398  -1.04363  -1.03576
 Alpha  occ. eigenvalues --   -1.03528  -1.03044  -1.02899  -1.02222  -1.01971
 Alpha  occ. eigenvalues --   -0.91853  -0.91785  -0.89349  -0.89325  -0.89034
 Alpha  occ. eigenvalues --   -0.89019  -0.88103  -0.88080  -0.87660  -0.87638
 Alpha  occ. eigenvalues --   -0.87551  -0.87492  -0.87121  -0.87011  -0.84884
 Alpha  occ. eigenvalues --   -0.84815  -0.83744  -0.83732  -0.82837  -0.82836
 Alpha  occ. eigenvalues --   -0.82543  -0.82486  -0.81482  -0.81409  -0.80424
 Alpha  occ. eigenvalues --   -0.80326  -0.78625  -0.78508  -0.77034  -0.77017
 Alpha  occ. eigenvalues --   -0.76780  -0.76761  -0.75749  -0.75722  -0.74725
 Alpha  occ. eigenvalues --   -0.74676  -0.72582  -0.72557  -0.71499  -0.71457
 Alpha  occ. eigenvalues --   -0.69700  -0.69599  -0.68710  -0.68705  -0.67477
 Alpha  occ. eigenvalues --   -0.67468  -0.67096  -0.67064  -0.65152  -0.65111
 Alpha  occ. eigenvalues --   -0.64669  -0.64638  -0.64534  -0.64443  -0.64081
 Alpha  occ. eigenvalues --   -0.64063  -0.62166  -0.62121  -0.60281  -0.60222
 Alpha  occ. eigenvalues --   -0.59673  -0.59629  -0.58860  -0.58804  -0.58322
 Alpha  occ. eigenvalues --   -0.58296  -0.57428  -0.57397  -0.57134  -0.57109
 Alpha  occ. eigenvalues --   -0.56129  -0.56073  -0.55812  -0.55783  -0.55362
 Alpha  occ. eigenvalues --   -0.55347  -0.55153  -0.55115  -0.54359  -0.54339
 Alpha  occ. eigenvalues --   -0.53799  -0.53727  -0.53137  -0.53107  -0.53056
 Alpha  occ. eigenvalues --   -0.53027  -0.52784  -0.52739  -0.52615  -0.52578
 Alpha  occ. eigenvalues --   -0.52233  -0.52223  -0.51715  -0.51690  -0.51552
 Alpha  occ. eigenvalues --   -0.51455  -0.51065  -0.51005  -0.50446  -0.50381
 Alpha  occ. eigenvalues --   -0.49867  -0.49849  -0.49771  -0.49733  -0.49385
 Alpha  occ. eigenvalues --   -0.49359  -0.49085  -0.49040  -0.48981  -0.48926
 Alpha  occ. eigenvalues --   -0.48438  -0.48413  -0.48317  -0.48276  -0.48250
 Alpha  occ. eigenvalues --   -0.48239  -0.47530  -0.47478  -0.47134  -0.47003
 Alpha  occ. eigenvalues --   -0.46608  -0.46574  -0.46442  -0.46391  -0.46173
 Alpha  occ. eigenvalues --   -0.46136  -0.45974  -0.45952  -0.45690  -0.45627
 Alpha  occ. eigenvalues --   -0.45079  -0.45026  -0.44402  -0.44398  -0.44346
 Alpha  occ. eigenvalues --   -0.44339  -0.44012  -0.43964  -0.43939  -0.43923
 Alpha  occ. eigenvalues --   -0.43846  -0.43834  -0.43437  -0.43312  -0.43266
 Alpha  occ. eigenvalues --   -0.43213  -0.42846  -0.42822  -0.42771  -0.42524
 Alpha  occ. eigenvalues --   -0.42457  -0.42411  -0.41818  -0.41808  -0.41537
 Alpha  occ. eigenvalues --   -0.41523  -0.41365  -0.41336  -0.40970  -0.40866
 Alpha  occ. eigenvalues --   -0.40716  -0.40676  -0.40633  -0.40580  -0.40386
 Alpha  occ. eigenvalues --   -0.40353  -0.40128  -0.40078  -0.39261  -0.39227
 Alpha  occ. eigenvalues --   -0.38290  -0.38219  -0.37582  -0.37547  -0.37136
 Alpha  occ. eigenvalues --   -0.37130  -0.37088  -0.37076  -0.36660  -0.36532
 Alpha  occ. eigenvalues --   -0.36088  -0.36011  -0.34115  -0.34096  -0.33744
 Alpha  occ. eigenvalues --   -0.33582  -0.33038  -0.32997  -0.31229  -0.31190
 Alpha  occ. eigenvalues --   -0.30855  -0.30843  -0.29830  -0.29813  -0.29275
 Alpha  occ. eigenvalues --   -0.29200  -0.29121  -0.29063  -0.23898  -0.23892
 Alpha  occ. eigenvalues --   -0.20979  -0.20939
 Alpha virt. eigenvalues --   -0.08657  -0.08591  -0.01570  -0.01552   0.00083
 Alpha virt. eigenvalues --    0.00097   0.02348   0.02394   0.03299   0.03482
 Alpha virt. eigenvalues --    0.04848   0.04893   0.05280   0.05283   0.06263

 Mulliken charges:
               1
     1  Mg   0.839758
     2  C   -0.002911
     3  C   -0.094176
     4  C   -0.046098
     5  C   -0.063000
     6  N   -0.256727
     7  C   -0.052306
     8  C   -0.014085
     9  C   -0.086958
    10  C    0.046167
    11  C    0.104919
    12  C    0.053451
    13  C   -0.071503
    14  H    0.035548
    15  N   -0.432928
    16  C    0.168174
    17  C   -0.177526
    18  C   -0.004574
    19  C    0.148559
    20  C    0.110287
    21  C    0.011648
    22  O   -0.250637
    23  C    0.062737
    24  N   -0.341268
    25  C    0.041275
    26  C   -0.027847
    27  C   -0.024061
    28  C    0.075271
    29  C    0.076418
    30  C    0.034984
    31  C   -0.004411
    32  N   -0.310881
    33  C    0.081535
    34  C   -0.167843
    35  C    0.008533
    36  C    0.083955
    37  C    0.127025
    38  C    0.046898
    39  O   -0.188045
    40  C   -0.005681
    41  C    0.212836
    42  O   -0.256353
    43  O   -0.304948
    44  C    0.157872
    45  H   -0.018090
    46  H   -0.017662
    47  H   -0.040905
    48  H    0.000715
    49  H   -0.004216
    50  H    0.025296
    51  H    0.016312
    52  H    0.016267
    53  H    0.011514
    54  H    0.044335
    55  H    0.017633
    56  H    0.017965
    57  H    0.005829
    58  H    0.026179
    59  H    0.039006
    60  H    0.037460
    61  H    0.034295
    62  H    0.031011
    63  H    0.015869
    64  H    0.009042
    65  H    0.022336
    66  H    0.012337
    67  H    0.004485
    68  H    0.004732
    69  H    0.005283
    70  H    0.006453
    71  H    0.021222
    72  H    0.030741
    73  H    0.049261
    74  H    0.009853
    75  H    0.045319
    76  H    0.034788
    77  H    0.042679
    78  H    0.046078
    79  H    0.053491
    80  Mg   0.838772
    81  C   -0.016816
    82  C   -0.087727
    83  C   -0.045696
    84  C   -0.064307
    85  N   -0.254532
    86  C   -0.049726
    87  C   -0.015180
    88  C   -0.090527
    89  C    0.045651
    90  C    0.114463
    91  C    0.062451
    92  C   -0.077351
    93  H    0.033523
    94  N   -0.423311
    95  C    0.162763
    96  C   -0.174878
    97  C   -0.008299
    98  C    0.152020
    99  C    0.099479
   100  C    0.015049
   101  O   -0.253885
   102  C    0.061421
   103  N   -0.350177
   104  C    0.037537
   105  C   -0.019611
   106  C   -0.034942
   107  C    0.089281
   108  C    0.073861
   109  C    0.034667
   110  C   -0.007630
   111  N   -0.324436
   112  C    0.079371
   113  C   -0.161626
   114  C    0.002405
   115  C    0.097077
   116  C    0.131231
   117  C    0.043148
   118  O   -0.187567
   119  C    0.000548
   120  C    0.211244
   121  O   -0.250400
   122  O   -0.305659
   123  C    0.152364
   124  H   -0.020029
   125  H   -0.016150
   126  H   -0.039918
   127  H   -0.000908
   128  H   -0.004372
   129  H    0.022275
   130  H    0.014344
   131  H    0.015970
   132  H    0.014552
   133  H    0.037683
   134  H    0.020600
   135  H    0.019925
   136  H    0.008810
   137  H    0.025583
   138  H    0.039464
   139  H    0.038343
   140  H    0.035319
   141  H    0.033417
   142  H    0.014019
   143  H    0.012113
   144  H    0.024524
   145  H    0.011401
   146  H    0.005470
   147  H    0.005295
   148  H    0.004168
   149  H    0.009458
   150  H    0.020022
   151  H    0.031281
   152  H    0.047466
   153  H    0.009119
   154  H    0.046365
   155  H    0.034705
   156  H    0.043745
   157  H    0.049083
   158  H    0.052819
 Sum of Mulliken charges =  -0.00000

 Dipole moment (field-independent basis, Debye):
    X=              0.1805    Y=             -0.4773    Z=              6.9075  Tot=              6.9264
 Quadrupole moment (field-independent basis, Debye-Ang):
   XX=           -473.9219   YY=           -462.3420   ZZ=           -540.1694
   XY=             23.0918   XZ=              6.5619   YZ=              1.7498

 Normal termination of Gaussian 16 at Fri Sep 10 13:48:46 2021.
