 Gaussian 16, Revision A.03,
 Gaussian 16:  ES64L-G16RevA.03 25-Dec-2016

 -----------------------------------
 #p cam-b3lyp/Def2SVP td=(nstates=5)
 -----------------------------------

 --------------------------------
 TDDFT excited states in gaussian
 --------------------------------
 Symbolic Z-matrix:
 Charge =  0 Multiplicity = 1

                         Standard orientation:
 ---------------------------------------------------------------------
 Center     Atomic      Atomic             Coordinates (Angstroms)
 Number     Number       Type             X           Y           Z
 ---------------------------------------------------------------------
      1         12           0       -7.955987    0.916597    0.345758
      2          6           0       -8.425846   -1.773679   -1.968084
      3          6           0       -9.097875   -1.178891    2.784629
      4          6           0       -7.981153    3.400712    2.316838
      5          6           0       -7.946833    3.073638   -2.391530
      6          7           0       -8.642420   -1.187325    0.291251
      7          6           0       -8.717060   -2.125011   -0.648081
      8          6           0       -9.061153   -3.536705   -0.085859
      9          6           0       -9.787829   -3.099680    1.264307
     10          6           0       -9.111390   -1.757478    1.480755
     11          6           0      -11.287650   -2.873554    1.103354
     12          6           0       -7.780443   -4.389943    0.203103
     13          6           0       -8.029504   -5.882062    0.441648
     14          1           0       -7.046607   -6.841625   -0.038454
     15          7           0       -7.993574    0.985448    2.319763
     16          6           0       -8.480186    0.035526    3.154115
     17          6           0       -8.279986    0.554986    4.524065
     18          6           0       -7.811372    1.964248    4.412370
     19          6           0       -7.936655    2.184447    2.994204
     20          6           0       -8.481757   -0.273243    5.755761
     21          6           0       -7.337386    2.958607    5.424654
     22          8           0       -7.198165    4.198704    5.146534
     23          6           0       -7.122151    2.452160    6.792216
     24          7           0       -8.182494    2.969213    0.040643
     25          6           0       -8.095244    3.831988    1.058970
     26          6           0       -8.005492    5.247033    0.569552
     27          6           0       -7.804127    5.155894   -1.011871
     28          6           0       -7.900571    3.618776   -1.173847
     29          6           0       -9.214645    6.140316    0.879402
     30          6           0       -6.573189    5.884491   -1.607151
     31          6           0       -5.302762    5.204566   -1.148005
     32          7           0       -7.971545    0.706277   -1.814466
     33          6           0       -7.987360    1.739889   -2.762131
     34          6           0       -8.104513    1.107657   -4.089016
     35          6           0       -8.165797   -0.257904   -3.818219
     36          6           0       -8.118061   -0.464083   -2.409849
     37          6           0       -8.199895    1.792078   -5.332763
     38          6           0       -8.285313   -1.589421   -4.389739
     39          8           0       -8.271296   -2.046598   -5.533542
     40          6           0       -8.581148   -2.616615   -3.209407
     41          6           0       -7.654299   -3.788707   -3.383936
     42          8           0       -6.421783   -3.656703   -3.239559
     43          8           0       -8.374925   -4.918260   -3.457073
     44          6           0       -7.514010   -6.122508   -3.601176
     45          1           0       -9.659385   -1.666149    3.584145
     46          1           0       -7.880367    4.281354    2.954609
     47          1           0       -7.865075    3.678544   -3.296438
     48          1           0       -9.744423   -4.118325   -0.704959
     49          1           0       -9.558807   -3.776521    2.087203
     50          1           0      -11.588252   -2.924835    0.056965
     51          1           0      -11.476699   -1.878010    1.505405
     52          1           0      -11.852874   -3.562645    1.731407
     53          1           0       -7.375108   -4.111662    1.175895
     54          1           0       -7.048421   -4.269903   -0.596310
     55          1           0       -9.032501   -6.173729    0.128861
     56          1           0       -8.017687   -6.062734    1.516552
     57          1           0       -8.985288   -1.212162    5.528972
     58          1           0       -9.185032    0.265790    6.390234
     59          1           0       -7.549864   -0.437658    6.296940
     60          1           0       -8.054670    2.034309    7.172160
     61          1           0       -6.699233    3.282126    7.357147
     62          1           0       -6.409384    1.627810    6.755356
     63          1           0       -7.150958    5.759521    1.009499
     64          1           0       -8.650367    5.574993   -1.556764
     65          1           0       -8.961541    7.041274    1.438792
     66          1           0       -9.948456    5.539865    1.416311
     67          1           0       -9.787363    6.453187    0.006749
     68          1           0       -6.532915    6.913433   -1.251339
     69          1           0       -6.573723    5.910196   -2.696917
     70          1           0       -5.128690    5.649518   -0.168951
     71          1           0       -4.482691    5.429831   -1.830611
     72          1           0       -5.455297    4.135633   -0.997664
     73          1           0       -7.546784    1.260175   -6.024496
     74          1           0       -7.905256    2.836564   -5.233572
     75          1           0       -9.262451    1.676387   -5.545941
     76          1           0       -9.627829   -2.905331   -3.300096
     77          1           0       -7.841969   -6.645918   -4.499352
     78          1           0       -7.570506   -6.658969   -2.653852
     79          1           0       -6.465837   -5.939867   -3.840583
     80         12           0        7.818406   -0.808189    0.549881
     81          6           0        8.865803    1.384647   -2.090861
     82          6           0        9.405904    1.290558    2.720069
     83          6           0        7.301242   -2.944217    2.838401
     84          6           0        7.325835   -3.264295   -1.873049
     85          7           0        8.953278    1.063982    0.234777
     86          6           0        9.233226    1.834523   -0.805538
     87          6           0        9.875737    3.199605   -0.440454
     88          6           0       10.500736    2.798103    0.983285
     89          6           0        9.543698    1.669267    1.360771
     90          6           0       11.903389    2.221891    0.883859
     91          6           0        8.810334    4.342729   -0.298283
     92          6           0        9.388951    5.758529   -0.248518
     93          1           0        8.634867    6.841024   -0.874645
     94          7           0        7.848000   -0.607859    2.524103
     95          6           0        8.528103    0.313279    3.238428
     96          6           0        8.235212    0.023743    4.650715
     97          6           0        7.459039   -1.244194    4.718422
     98          6           0        7.525337   -1.668091    3.334226
     99          6           0        8.613554    0.953025    5.767287
    100          6           0        6.781535   -1.963536    5.845263
    101          8           0        6.369015   -3.170805    5.722122
    102          6           0        6.698941   -1.245834    7.125716
    103          7           0        7.580181   -2.873344    0.523341
    104          6           0        7.313951   -3.553111    1.652483
    105          6           0        6.911725   -4.976886    1.350067
    106          6           0        6.728430   -5.043628   -0.237238
    107          6           0        7.162047   -3.607030   -0.602672
    108          6           0        7.899395   -6.055744    1.793878
    109          6           0        5.362924   -5.560853   -0.766874
    110          6           0        4.270069   -4.572938   -0.427645
    111          7           0        7.866286   -0.895653   -1.608389
    112          6           0        7.655281   -2.031140   -2.420937
    113          6           0        7.904615   -1.619433   -3.817636
    114          6           0        8.268658   -0.268145   -3.717717
    115          6           0        8.267284    0.128560   -2.353123
    116          6           0        7.831584   -2.465528   -4.959960
    117          6           0        8.664116    0.910038   -4.455407
    118          8           0        8.753131    1.199022   -5.648011
    119          6           0        9.191061    1.998742   -3.424176
    120          6           0        8.545302    3.313455   -3.766252
    121          8           0        7.316714    3.464349   -3.646247
    122          8           0        9.503846    4.235724   -3.968691
    123          6           0        8.912504    5.559465   -4.300135
    124          1           0       10.061414    1.755250    3.457129
    125          1           0        7.009941   -3.693176    3.578458
    126          1           0        7.098509   -3.945856   -2.695531
    127          1           0       10.660453    3.526448   -1.112150
    128          1           0       10.423457    3.617079    1.693691
    129          1           0       12.203671    2.067299   -0.141847
    130          1           0       11.872696    1.279671    1.415205
    131          1           0       12.609877    2.853199    1.430358
    132          1           0        8.358752    4.289094    0.700678
    133          1           0        8.077012    4.279277   -1.078559
    134          1           0       10.438020    5.786520   -0.567287
    135          1           0        9.416702    6.085622    0.793717
    136          1           0        9.319231    1.721831    5.429121
    137          1           0        9.181979    0.363775    6.494982
    138          1           0        7.744752    1.387851    6.266061
    139          1           0        7.701300   -0.994185    7.463967
    140          1           0        6.103299   -1.884517    7.780812
    141          1           0        6.174683   -0.297674    6.962136
    142          1           0        5.968585   -5.221132    1.823302
    143          1           0        7.459128   -5.720661   -0.703659
    144          1           0        7.450746   -6.805808    2.472245
    145          1           0        8.743558   -5.571902    2.266982
    146          1           0        8.373641   -6.608684    0.984839
    147          1           0        5.096660   -6.499389   -0.274533
    148          1           0        5.355967   -5.744785   -1.836040
    149          1           0        4.011414   -4.835209    0.602598
    150          1           0        3.418532   -4.700241   -1.093009
    151          1           0        4.655702   -3.546832   -0.419675
    152          1           0        7.314431   -1.906824   -5.728669
    153          1           0        7.319028   -3.397800   -4.732092
    154          1           0        8.895889   -2.619731   -5.156817
    155          1           0       10.276996    2.039533   -3.517211
    156          1           0        9.348174    5.874348   -5.253411
    157          1           0        9.106709    6.202019   -3.420843
    158          1           0        7.854014    5.592066   -4.530328
 ---------------------------------------------------------------------

 SCF Done:  E(RCAM-B3LYP) =  -4069.81171122     A.U. after   19 cycles

 Excitation energies and oscillator strengths:

 Excited State   1:      Singlet-A      1.6698 eV  742.50 nm  f=0.0184  <S**2>=0.000
     309 -> 315       -0.10375
     310 -> 316        0.13768
     311 -> 313        0.54920
     312 -> 314       -0.41166
 This state for optimization and/or second-order correction.
 Total Energy, E(TD-HF/TD-DFT) =  -4069.75034620
 Copying the excited state density for this state as the 1-particle RhoCI density.

 Excited State   2:      Singlet-A      1.6850 eV  735.81 nm  f=0.7394  <S**2>=0.000
     309 -> 315        0.14150
     310 -> 316        0.10550
     311 -> 313        0.41115
     312 -> 314        0.54839

 Excited State   3:      Singlet-A      2.1854 eV  567.33 nm  f=0.0643  <S**2>=0.000
     309 -> 314        0.12422
     310 -> 313        0.63058
     311 -> 316       -0.26755

 Excited State   4:      Singlet-A      2.1925 eV  565.49 nm  f=0.1303  <S**2>=0.000
     309 -> 314        0.62869
     310 -> 313       -0.12334
     312 -> 315       -0.27308

 Excited State   5:      Singlet-A      2.8026 eV  442.40 nm  f=0.0000  <S**2>=0.000
     312 -> 313        0.70710

 The electronic state is 1-A.
 Alpha  occ. eigenvalues --  -46.87694 -46.87593 -19.26285 -19.26193 -19.19091
 Alpha  occ. eigenvalues --  -19.18923 -19.18727 -19.18669 -19.18068 -19.17983
 Alpha  occ. eigenvalues --  -14.42433 -14.42350 -14.41348 -14.41292 -14.39302
 Alpha  occ. eigenvalues --  -14.39287 -14.38531 -14.38483 -10.39022 -10.38983
 Alpha  occ. eigenvalues --  -10.35362 -10.35348 -10.34289 -10.34160 -10.31696
 Alpha  occ. eigenvalues --  -10.31595 -10.31304 -10.31242 -10.30964 -10.30813
 Alpha  occ. eigenvalues --  -10.30467 -10.30405 -10.30331 -10.30292 -10.30106
 Alpha  occ. eigenvalues --  -10.30076 -10.29825 -10.29817 -10.29530 -10.29374
 Alpha  occ. eigenvalues --  -10.29336 -10.29155 -10.28662 -10.28657 -10.28601
 Alpha  occ. eigenvalues --  -10.28454 -10.28341 -10.28265 -10.28084 -10.28025
 Alpha  occ. eigenvalues --  -10.27935 -10.27692 -10.27628 -10.27606 -10.27485
 Alpha  occ. eigenvalues --  -10.27443 -10.27419 -10.27417 -10.27404 -10.27395
 Alpha  occ. eigenvalues --  -10.27391 -10.27349 -10.27310 -10.27304 -10.27061
 Alpha  occ. eigenvalues --  -10.26985 -10.26634 -10.26612 -10.26385 -10.26333
 Alpha  occ. eigenvalues --  -10.26149 -10.26063 -10.26041 -10.25975 -10.25915
 Alpha  occ. eigenvalues --  -10.25863 -10.25765 -10.25729 -10.25347 -10.25346
 Alpha  occ. eigenvalues --  -10.24806 -10.24731 -10.24688 -10.24626 -10.24609
 Alpha  occ. eigenvalues --  -10.24549  -3.16437  -3.16343  -1.91318  -1.91225
 Alpha  occ. eigenvalues --   -1.90905  -1.90814  -1.90747  -1.90651  -1.16578
 Alpha  occ. eigenvalues --   -1.16540  -1.08589  -1.08526  -1.07129  -1.06922
 Alpha  occ. eigenvalues --   -1.06876  -1.06546  -1.04481  -1.04431  -1.03659
 Alpha  occ. eigenvalues --   -1.03598  -1.03132  -1.02972  -1.02310  -1.02045
 Alpha  occ. eigenvalues --   -0.91921  -0.91872  -0.89421  -0.89413  -0.89094
 Alpha  occ. eigenvalues --   -0.89092  -0.88183  -0.88148  -0.87765  -0.87722
 Alpha  occ. eigenvalues --   -0.87620  -0.87574  -0.87180  -0.87066  -0.84940
 Alpha  occ. eigenvalues --   -0.84888  -0.83830  -0.83800  -0.82879  -0.82875
 Alpha  occ. eigenvalues --   -0.82594  -0.82555  -0.81530  -0.81490  -0.80500
 Alpha  occ. eigenvalues --   -0.80380  -0.78699  -0.78574  -0.77118  -0.77080
 Alpha  occ. eigenvalues --   -0.76838  -0.76833  -0.75828  -0.75777  -0.74799
 Alpha  occ. eigenvalues --   -0.74737  -0.72672  -0.72631  -0.71575  -0.71519
 Alpha  occ. eigenvalues --   -0.69795  -0.69674  -0.68778  -0.68767  -0.67543
 Alpha  occ. eigenvalues --   -0.67539  -0.67144  -0.67127  -0.65210  -0.65190
 Alpha  occ. eigenvalues --   -0.64754  -0.64703  -0.64589  -0.64522  -0.64165
 Alpha  occ. eigenvalues --   -0.64131  -0.62212  -0.62201  -0.60345  -0.60281
 Alpha  occ. eigenvalues --   -0.59736  -0.59708  -0.58927  -0.58887  -0.58404
 Alpha  occ. eigenvalues --   -0.58360  -0.57487  -0.57486  -0.57209  -0.57171
 Alpha  occ. eigenvalues --   -0.56211  -0.56139  -0.55886  -0.55824  -0.55426
 Alpha  occ. eigenvalues --   -0.55395  -0.55237  -0.55177  -0.54422  -0.54415
 Alpha  occ. eigenvalues --   -0.53854  -0.53801  -0.53201  -0.53164  -0.53128
 Alpha  occ. eigenvalues --   -0.53082  -0.52837  -0.52816  -0.52665  -0.52619
 Alpha  occ. eigenvalues --   -0.52323  -0.52311  -0.51807  -0.51807  -0.51602
 Alpha  occ. eigenvalues --   -0.51524  -0.51131  -0.51094  -0.50483  -0.50425
 Alpha  occ. eigenvalues --   -0.49928  -0.49921  -0.49826  -0.49799  -0.49433
 Alpha  occ. eigenvalues --   -0.49422  -0.49142  -0.49117  -0.49042  -0.49002
 Alpha  occ. eigenvalues --   -0.48496  -0.48495  -0.48365  -0.48351  -0.48310
 Alpha  occ. eigenvalues --   -0.48287  -0.47599  -0.47534  -0.47202  -0.47060
 Alpha  occ. eigenvalues --   -0.46695  -0.46641  -0.46495  -0.46462  -0.46258
 Alpha  occ. eigenvalues --   -0.46203  -0.46062  -0.46018  -0.45753  -0.45722
 Alpha  occ. eigenvalues --   -0.45142  -0.45101  -0.44479  -0.44452  -0.44411
 Alpha  occ. eigenvalues --   -0.44411  -0.44066  -0.44042  -0.44006  -0.43995
 Alpha  occ. eigenvalues --   -0.43924  -0.43883  -0.43485  -0.43397  -0.43323
 Alpha  occ. eigenvalues --   -0.43288  -0.42928  -0.42865  -0.42834  -0.42602
 Alpha  occ. eigenvalues --   -0.42548  -0.42480  -0.41903  -0.41887  -0.41605
 Alpha  occ. eigenvalues --   -0.41603  -0.41439  -0.41394  -0.41045  -0.40928
 Alpha  occ. eigenvalues --   -0.40772  -0.40733  -0.40671  -0.40637  -0.40468
 Alpha  occ. eigenvalues --   -0.40421  -0.40173  -0.40143  -0.39338  -0.39325
 Alpha  occ. eigenvalues --   -0.38367  -0.38282  -0.37654  -0.37594  -0.37217
 Alpha  occ. eigenvalues --   -0.37196  -0.37167  -0.37137  -0.36703  -0.36616
 Alpha  occ. eigenvalues --   -0.36149  -0.36093  -0.34187  -0.34184  -0.33793
 Alpha  occ. eigenvalues --   -0.33672  -0.33109  -0.33085  -0.31257  -0.31227
 Alpha  occ. eigenvalues --   -0.30936  -0.30909  -0.29928  -0.29886  -0.29350
 Alpha  occ. eigenvalues --   -0.29266  -0.29219  -0.29143  -0.23979  -0.23970
 Alpha  occ. eigenvalues --   -0.21051  -0.21026
 Alpha virt. eigenvalues --   -0.08728  -0.08674  -0.01650  -0.01619   0.00027
 Alpha virt. eigenvalues --    0.00037   0.02275   0.02302   0.03241   0.03312
 Alpha virt. eigenvalues --    0.04792   0.04815   0.05195   0.05233   0.06240

 Mulliken charges:
               1
     1  Mg   0.839041
     2  C   -0.002931
     3  C   -0.094147
     4  C   -0.045874
     5  C   -0.063856
     6  N   -0.256769
     7  C   -0.052456
     8  C   -0.014014
     9  C   -0.086998
    10  C    0.046334
    11  C    0.104848
    12  C    0.053457
    13  C   -0.071712
    14  H    0.035954
    15  N   -0.433093
    16  C    0.168432
    17  C   -0.177218
    18  C   -0.004084
    19  C    0.148708
    20  C    0.110218
    21  C    0.012251
    22  O   -0.249825
    23  C    0.062483
    24  N   -0.341181
    25  C    0.041263
    26  C   -0.028112
    27  C   -0.024021
    28  C    0.074962
    29  C    0.076251
    30  C    0.035094
    31  C   -0.004550
    32  N   -0.310530
    33  C    0.080572
    34  C   -0.169416
    35  C    0.008377
    36  C    0.083167
    37  C    0.127234
    38  C    0.046254
    39  O   -0.188375
    40  C   -0.005412
    41  C    0.212867
    42  O   -0.256906
    43  O   -0.304855
    44  C    0.157734
    45  H   -0.017776
    46  H   -0.016999
    47  H   -0.041325
    48  H    0.000827
    49  H   -0.004089
    50  H    0.025405
    51  H    0.016400
    52  H    0.016500
    53  H    0.011345
    54  H    0.044209
    55  H    0.017752
    56  H    0.017948
    57  H    0.005813
    58  H    0.026590
    59  H    0.039553
    60  H    0.037246
    61  H    0.035327
    62  H    0.031612
    63  H    0.016531
    64  H    0.009338
    65  H    0.023012
    66  H    0.012408
    67  H    0.004659
    68  H    0.006169
    69  H    0.004923
    70  H    0.008550
    71  H    0.018898
    72  H    0.029104
    73  H    0.047915
    74  H    0.009331
    75  H    0.045834
    76  H    0.035013
    77  H    0.042837
    78  H    0.046293
    79  H    0.053679
    80  Mg   0.838176
    81  C   -0.016833
    82  C   -0.087870
    83  C   -0.045550
    84  C   -0.064746
    85  N   -0.254544
    86  C   -0.049783
    87  C   -0.015124
    88  C   -0.090479
    89  C    0.045730
    90  C    0.114419
    91  C    0.062544
    92  C   -0.077837
    93  H    0.034868
    94  N   -0.423443
    95  C    0.162897
    96  C   -0.174741
    97  C   -0.007959
    98  C    0.152126
    99  C    0.099409
   100  C    0.015487
   101  O   -0.253475
   102  C    0.061254
   103  N   -0.350134
   104  C    0.037564
   105  C   -0.019749
   106  C   -0.034890
   107  C    0.089096
   108  C    0.073762
   109  C    0.034689
   110  C   -0.007769
   111  N   -0.324190
   112  C    0.078684
   113  C   -0.162732
   114  C    0.002268
   115  C    0.096418
   116  C    0.131392
   117  C    0.042575
   118  O   -0.187712
   119  C    0.000851
   120  C    0.211250
   121  O   -0.250748
   122  O   -0.305721
   123  C    0.152035
   124  H   -0.019858
   125  H   -0.015801
   126  H   -0.040163
   127  H   -0.000723
   128  H   -0.004406
   129  H    0.022399
   130  H    0.014361
   131  H    0.016121
   132  H    0.013979
   133  H    0.037820
   134  H    0.020678
   135  H    0.019522
   136  H    0.008694
   137  H    0.025889
   138  H    0.039675
   139  H    0.038176
   140  H    0.035953
   141  H    0.033932
   142  H    0.014336
   143  H    0.012284
   144  H    0.024845
   145  H    0.011474
   146  H    0.005581
   147  H    0.005975
   148  H    0.003983
   149  H    0.010526
   150  H    0.019231
   151  H    0.030178
   152  H    0.046476
   153  H    0.008860
   154  H    0.046749
   155  H    0.034886
   156  H    0.043838
   157  H    0.049376
   158  H    0.053689
 Sum of Mulliken charges =  -0.00000

 Dipole moment (field-independent basis, Debye):
    X=              0.1496    Y=              0.0545    Z=              7.3511  Tot=              7.3528
 Quadrupole moment (field-independent basis, Debye-Ang):
   XX=           -439.7656   YY=           -466.3443   ZZ=           -539.3882
   XY=             33.2554   XZ=              3.2504   YZ=             -5.5216

 Normal termination of Gaussian 16 at Sat Sep 11 21:47:37 2021.
