 Gaussian 16, Revision A.03,
 Gaussian 16:  ES64L-G16RevA.03 25-Dec-2016

 -----------------------------------
 #p cam-b3lyp/Def2SVP td=(nstates=5)
 -----------------------------------

 --------------------------------
 TDDFT excited states in gaussian
 --------------------------------
 Symbolic Z-matrix:
 Charge =  0 Multiplicity = 1

                         Standard orientation:
 ---------------------------------------------------------------------
 Center     Atomic      Atomic             Coordinates (Angstroms)
 Number     Number       Type             X           Y           Z
 ---------------------------------------------------------------------
      1         12           0       -3.970120   -0.053796    0.265591
      2          6           0       -3.501934    3.485625    0.521550
      3          6           0       -4.931484    0.457201   -2.968250
      4          6           0       -4.822715   -3.106102    0.150999
      5          6           0       -4.074745   -0.143087    3.747938
      6          7           0       -4.150680    1.784274   -0.954878
      7          6           0       -3.883424    3.071284   -0.756508
      8          6           0       -3.973736    3.928246   -2.054519
      9          6           0       -4.957120    3.001130   -2.900338
     10          6           0       -4.636561    1.661077   -2.262039
     11          6           0       -6.433055    3.312445   -2.674058
     12          6           0       -2.585261    4.085294   -2.761062
     13          6           0       -2.521692    5.166450   -3.843843
     14          1           0       -1.291828    5.927922   -4.001775
     15          7           0       -4.290698   -1.237185   -1.283496
     16          6           0       -4.659638   -0.857035   -2.530354
     17          6           0       -4.770136   -2.102299   -3.320158
     18          6           0       -4.620498   -3.250209   -2.383139
     19          6           0       -4.597880   -2.568604   -1.114170
     20          6           0       -4.945824   -2.120380   -4.807624
     21          6           0       -4.525212   -4.727858   -2.596693
     22          8           0       -4.632549   -5.562514   -1.634195
     23          6           0       -4.389642   -5.182510   -3.992385
     24          7           0       -4.609740   -1.405178    1.722398
     25          6           0       -4.858703   -2.683197    1.416346
     26          6           0       -5.024424   -3.518118    2.651410
     27          6           0       -4.594282   -2.587154    3.875353
     28          6           0       -4.318801   -1.279912    3.092092
     29          6           0       -6.434435   -4.070706    2.901462
     30          6           0       -3.489956   -3.129385    4.817091
     31          6           0       -2.173638   -3.201919    4.076049
     32          7           0       -3.643564    1.360444    1.879385
     33          6           0       -3.762752    1.112745    3.254563
     34          6           0       -3.552583    2.398557    3.944914
     35          6           0       -3.340784    3.314011    2.915872
     36          6           0       -3.440038    2.647554    1.661170
     37          6           0       -3.629505    2.612683    5.349431
     38          6           0       -3.078136    4.704859    2.583583
     39          8           0       -2.805815    5.715207    3.233606
     40          6           0       -3.292727    4.894929    1.017169
     41          6           0       -2.110639    5.658938    0.485880
     42          8           0       -0.971040    5.150385    0.478598
     43          8           0       -2.541272    6.763402   -0.142814
     44          6           0       -1.419685    7.551985   -0.719299
     45          1           0       -5.472218    0.519397   -3.914653
     46          1           0       -5.010826   -4.181707    0.162203
     47          1           0       -4.008996   -0.109606    4.836979
     48          1           0       -4.417491    4.914584   -1.917984
     49          1           0       -4.695678    2.989155   -3.958273
     50          1           0       -6.569002    4.035200   -1.869655
     51          1           0       -6.894573    2.360116   -2.412210
     52          1           0       -6.908530    3.630683   -3.602188
     53          1           0       -2.389422    3.202082   -3.369046
     54          1           0       -1.797277    4.262250   -2.028194
     55          1           0       -3.380954    5.835533   -3.789939
     56          1           0       -2.615939    4.682268   -4.815896
     57          1           0       -5.189069   -1.131481   -5.194220
     58          1           0       -5.832170   -2.719177   -5.016294
     59          1           0       -4.083457   -2.550104   -5.317518
     60          1           0       -5.246801   -4.834404   -4.569143
     61          1           0       -4.245652   -6.261319   -3.944572
     62          1           0       -3.511207   -4.710738   -4.433669
     63          1           0       -4.375474   -4.392443    2.622363
     64          1           0       -5.430919   -2.374647    4.541351
     65          1           0       -6.469511   -5.156686    2.991593
     66          1           0       -7.080115   -3.724168    2.095051
     67          1           0       -6.938630   -3.658492    3.775123
     68          1           0       -3.731476   -4.140950    5.141668
     69          1           0       -3.347871   -2.519766    5.709519
     70          1           0       -2.239319   -4.156982    3.556074
     71          1           0       -1.340337   -3.196858    4.779464
     72          1           0       -2.100325   -2.422315    3.317545
     73          1           0       -2.785363    3.252186    5.607171
     74          1           0       -3.594199    1.670617    5.896121
     75          1           0       -4.599452    3.103799    5.425996
     76          1           0       -4.225039    5.444919    0.892957
     77          1           0       -1.495788    8.561341   -0.314770
     78          1           0       -1.482267    7.434468   -1.801278
     79          1           0       -0.417076    7.274250   -0.392225
     80         12           0        3.829624   -1.508562   -0.140780
     81          6           0        4.451688    2.016752    0.112739
     82          6           0        2.733155   -0.935015   -3.319361
     83          6           0        2.851812   -4.525376   -0.241665
     84          6           0        3.881522   -1.627304    3.341880
     85          7           0        3.663019    0.344600   -1.336728
     86          6           0        3.987322    1.616224   -1.157455
     87          6           0        3.879695    2.493509   -2.433513
     88          6           0        2.811138    1.609758   -3.243481
     89          6           0        3.104791    0.244245   -2.625576
     90          6           0        1.369116    1.974646   -2.932390
     91          6           0        5.242290    2.596546   -3.204711
     92          6           0        5.290322    3.680927   -4.283392
     93          1           0        6.546872    4.393027   -4.498999
     94          7           0        3.389667   -2.664781   -1.692604
     95          6           0        2.982745   -2.265084   -2.915688
     96          6           0        2.770289   -3.496843   -3.691452
     97          6           0        2.926287   -4.660171   -2.776561
     98          6           0        3.044015   -3.979665   -1.502536
     99          6           0        2.531577   -3.494091   -5.173491
    100          6           0        2.950953   -6.140688   -3.008239
    101          8           0        2.859013   -6.975379   -2.039898
    102          6           0        2.991840   -6.584425   -4.409271
    103          7           0        3.214671   -2.841413    1.331537
    104          6           0        2.892577   -4.110250    1.024567
    105          6           0        2.749320   -4.953081    2.269346
    106          6           0        3.281447   -4.040260    3.469846
    107          6           0        3.569539   -2.738823    2.689685
    108          6           0        1.334243   -5.436252    2.586358
    109          6           0        4.408182   -4.633719    4.359201
    110          6           0        5.683104   -4.765340    3.557547
    111          7           0        4.292904   -0.128599    1.455823
    112          6           0        4.225131   -0.376812    2.844302
    113          6           0        4.521210    0.898076    3.529444
    114          6           0        4.719626    1.812126    2.483668
    115          6           0        4.538707    1.158004    1.235112
    116          6           0        4.531060    1.102749    4.938036
    117          6           0        5.030528    3.184041    2.152191
    118          8           0        5.367240    4.178001    2.794389
    119          6           0        4.746517    3.406748    0.604256
    120          6           0        5.930026    4.122598    0.013151
    121          8           0        7.042420    3.568957   -0.038434
    122          8           0        5.508046    5.250339   -0.587265
    123          6           0        6.644605    5.989714   -1.198315
    124          1           0        2.158436   -0.835663   -4.240615
    125          1           0        2.621404   -5.593045   -0.220100
    126          1           0        4.013339   -1.603895    4.425747
    127          1           0        3.488623    3.490211   -2.267890
    128          1           0        3.030917    1.601842   -4.307906
    129          1           0        1.299441    2.690406   -2.126803
    130          1           0        0.883744    1.047314   -2.657608
    131          1           0        0.864332    2.322091   -3.838385
    132          1           0        5.368056    1.703506   -3.830331
    133          1           0        6.057868    2.730609   -2.520976
    134          1           0        4.457787    4.389230   -4.193178
    135          1           0        5.136477    3.209076   -5.256889
    136          1           0        2.304448   -2.486285   -5.542476
    137          1           0        1.611601   -4.061791   -5.350240
    138          1           0        3.346615   -3.959010   -5.732274
    139          1           0        2.125885   -6.192667   -4.937578
    140          1           0        3.095063   -7.670521   -4.368932
    141          1           0        3.876092   -6.149452   -4.888352
    142          1           0        3.362842   -5.843427    2.206256
    143          1           0        2.482401   -3.805584    4.188374
    144          1           0        1.257387   -6.536750    2.670471
    145          1           0        0.667257   -5.066013    1.819161
    146          1           0        0.896771   -5.021241    3.492771
    147          1           0        4.141464   -5.641858    4.685819
    148          1           0        4.608084   -4.048701    5.250697
    149          1           0        5.547180   -5.715286    3.031979
    150          1           0        6.548266   -4.799174    4.216625
    151          1           0        5.754645   -3.976600    2.799645
    152          1           0        5.403851    1.702520    5.159404
    153          1           0        4.549960    0.157787    5.476980
    154          1           0        3.581224    1.628957    5.065311
    155          1           0        3.830140    3.992210    0.520234
    156          1           0        6.626572    7.002483   -0.784000
    157          1           0        6.512024    5.890494   -2.292076
    158          1           0        7.647348    5.672219   -0.937220
 ---------------------------------------------------------------------

 SCF Done:  E(RCAM-B3LYP) =  -4069.81152650     A.U. after   19 cycles

 Excitation energies and oscillator strengths:

 Excited State   1:      Singlet-A      1.6378 eV  757.04 nm  f=0.0017  <S**2>=0.000
     309 -> 315       -0.11350
     310 -> 316        0.11868
     311 -> 313       -0.47301
     312 -> 314        0.50001
 This state for optimization and/or second-order correction.
 Total Energy, E(TD-HF/TD-DFT) =  -4069.75134023
 Copying the excited state density for this state as the 1-particle RhoCI density.

 Excited State   2:      Singlet-A      1.7115 eV  724.43 nm  f=0.6779  <S**2>=0.000
     309 -> 315        0.13386
     310 -> 316        0.12525
     311 -> 313        0.49661
     312 -> 314        0.46981

 Excited State   3:      Singlet-A      2.1772 eV  569.46 nm  f=0.0101  <S**2>=0.000
     309 -> 313       -0.33877
     310 -> 314        0.55064
     311 -> 315        0.13814
     312 -> 316       -0.22620

 Excited State   4:      Singlet-A      2.1979 eV  564.11 nm  f=0.1574  <S**2>=0.000
     309 -> 313        0.54412
     310 -> 314        0.33248
     311 -> 315       -0.24179
     312 -> 316       -0.14943

 Excited State   5:      Singlet-A      2.2312 eV  555.69 nm  f=0.0000  <S**2>=0.000
     312 -> 313        0.70707

 The electronic state is 1-A.
 Alpha  occ. eigenvalues --  -46.87929 -46.87388 -19.26433 -19.26042 -19.19188
 Alpha  occ. eigenvalues --  -19.18898 -19.18850 -19.18488 -19.18260 -19.17684
 Alpha  occ. eigenvalues --  -14.42599 -14.42222 -14.41584 -14.41090 -14.39532
 Alpha  occ. eigenvalues --  -14.39085 -14.38712 -14.38308 -10.39242 -10.38765
 Alpha  occ. eigenvalues --  -10.35534 -10.35172 -10.34486 -10.33850 -10.31814
 Alpha  occ. eigenvalues --  -10.31559 -10.31515 -10.31071 -10.31013 -10.30747
 Alpha  occ. eigenvalues --  -10.30707 -10.30624 -10.30342 -10.30110 -10.30070
 Alpha  occ. eigenvalues --  -10.30039 -10.29915 -10.29753 -10.29610 -10.29383
 Alpha  occ. eigenvalues --  -10.29191 -10.29126 -10.28974 -10.28886 -10.28499
 Alpha  occ. eigenvalues --  -10.28496 -10.28419 -10.28316 -10.28110 -10.27912
 Alpha  occ. eigenvalues --  -10.27877 -10.27852 -10.27716 -10.27710 -10.27669
 Alpha  occ. eigenvalues --  -10.27639 -10.27564 -10.27544 -10.27417 -10.27356
 Alpha  occ. eigenvalues --  -10.27324 -10.27286 -10.27204 -10.27185 -10.27149
 Alpha  occ. eigenvalues --  -10.27036 -10.26615 -10.26519 -10.26473 -10.26402
 Alpha  occ. eigenvalues --  -10.26358 -10.26272 -10.26155 -10.25979 -10.25926
 Alpha  occ. eigenvalues --  -10.25682 -10.25644 -10.25540 -10.25530 -10.25158
 Alpha  occ. eigenvalues --  -10.24948 -10.24912 -10.24909 -10.24570 -10.24568
 Alpha  occ. eigenvalues --  -10.24407  -3.16672  -3.16139  -1.91553  -1.91140
 Alpha  occ. eigenvalues --   -1.91021  -1.90982  -1.90609  -1.90446  -1.16783
 Alpha  occ. eigenvalues --   -1.16335  -1.08718  -1.08278  -1.07293  -1.06801
 Alpha  occ. eigenvalues --   -1.06741  -1.06634  -1.04731  -1.04212  -1.03895
 Alpha  occ. eigenvalues --   -1.03388  -1.03361  -1.02767  -1.02541  -1.01831
 Alpha  occ. eigenvalues --   -0.92106  -0.91664  -0.89662  -0.89397  -0.89249
 Alpha  occ. eigenvalues --   -0.88868  -0.88424  -0.87985  -0.87984  -0.87836
 Alpha  occ. eigenvalues --   -0.87498  -0.87424  -0.87408  -0.86908  -0.85178
 Alpha  occ. eigenvalues --   -0.84737  -0.84079  -0.83643  -0.83095  -0.82819
 Alpha  occ. eigenvalues --   -0.82739  -0.82396  -0.81728  -0.81313  -0.80738
 Alpha  occ. eigenvalues --   -0.80172  -0.78931  -0.78395  -0.77385  -0.77111
 Alpha  occ. eigenvalues --   -0.76897  -0.76635  -0.76080  -0.75550  -0.75031
 Alpha  occ. eigenvalues --   -0.74550  -0.72908  -0.72426  -0.71812  -0.71297
 Alpha  occ. eigenvalues --   -0.70065  -0.69549  -0.69053  -0.68568  -0.67776
 Alpha  occ. eigenvalues --   -0.67427  -0.67334  -0.66975  -0.65475  -0.64995
 Alpha  occ. eigenvalues --   -0.64992  -0.64777  -0.64501  -0.64410  -0.64383
 Alpha  occ. eigenvalues --   -0.63961  -0.62436  -0.61996  -0.60571  -0.60108
 Alpha  occ. eigenvalues --   -0.59982  -0.59513  -0.59125  -0.58717  -0.58639
 Alpha  occ. eigenvalues --   -0.58144  -0.57716  -0.57441  -0.57208  -0.56967
 Alpha  occ. eigenvalues --   -0.56443  -0.56137  -0.55944  -0.55652  -0.55614
 Alpha  occ. eigenvalues --   -0.55478  -0.55203  -0.54991  -0.54670  -0.54231
 Alpha  occ. eigenvalues --   -0.54103  -0.53645  -0.53433  -0.53387  -0.53072
 Alpha  occ. eigenvalues --   -0.52983  -0.52916  -0.52882  -0.52643  -0.52601
 Alpha  occ. eigenvalues --   -0.52459  -0.52199  -0.52019  -0.51806  -0.51575
 Alpha  occ. eigenvalues --   -0.51411  -0.51336  -0.50919  -0.50721  -0.50303
 Alpha  occ. eigenvalues --   -0.50190  -0.50065  -0.49738  -0.49676  -0.49635
 Alpha  occ. eigenvalues --   -0.49356  -0.49262  -0.49239  -0.48917  -0.48794
 Alpha  occ. eigenvalues --   -0.48735  -0.48582  -0.48558  -0.48275  -0.48138
 Alpha  occ. eigenvalues --   -0.48085  -0.47850  -0.47435  -0.47351  -0.46955
 Alpha  occ. eigenvalues --   -0.46894  -0.46751  -0.46496  -0.46458  -0.46303
 Alpha  occ. eigenvalues --   -0.46290  -0.46029  -0.45953  -0.45809  -0.45526
 Alpha  occ. eigenvalues --   -0.45329  -0.44954  -0.44709  -0.44674  -0.44293
 Alpha  occ. eigenvalues --   -0.44263  -0.44238  -0.44220  -0.44148  -0.43850
 Alpha  occ. eigenvalues --   -0.43847  -0.43671  -0.43632  -0.43549  -0.43281
 Alpha  occ. eigenvalues --   -0.43166  -0.43114  -0.42839  -0.42808  -0.42653
 Alpha  occ. eigenvalues --   -0.42603  -0.42329  -0.42177  -0.41842  -0.41727
 Alpha  occ. eigenvalues --   -0.41726  -0.41359  -0.41285  -0.41210  -0.41061
 Alpha  occ. eigenvalues --   -0.40962  -0.40726  -0.40704  -0.40503  -0.40485
 Alpha  occ. eigenvalues --   -0.40455  -0.40242  -0.39998  -0.39602  -0.39226
 Alpha  occ. eigenvalues --   -0.38623  -0.38116  -0.37989  -0.37464  -0.37446
 Alpha  occ. eigenvalues --   -0.37423  -0.37019  -0.36933  -0.36862  -0.36488
 Alpha  occ. eigenvalues --   -0.36345  -0.35956  -0.34421  -0.33974  -0.33929
 Alpha  occ. eigenvalues --   -0.33553  -0.33321  -0.32900  -0.31431  -0.31171
 Alpha  occ. eigenvalues --   -0.31045  -0.30688  -0.30122  -0.29581  -0.29568
 Alpha  occ. eigenvalues --   -0.29436  -0.29071  -0.28901  -0.24217  -0.23747
 Alpha  occ. eigenvalues --   -0.21263  -0.20844
 Alpha virt. eigenvalues --   -0.08902  -0.08513  -0.01881  -0.01419  -0.00180
 Alpha virt. eigenvalues --    0.00228   0.02084   0.02379   0.02620   0.03599
 Alpha virt. eigenvalues --    0.04524   0.04875   0.05028   0.05492   0.05861

 Mulliken charges:
               1
     1  Mg   0.838468
     2  C   -0.003543
     3  C   -0.095596
     4  C   -0.044948
     5  C   -0.063695
     6  N   -0.256654
     7  C   -0.053232
     8  C   -0.013596
     9  C   -0.086870
    10  C    0.046010
    11  C    0.104799
    12  C    0.050658
    13  C   -0.071508
    14  H    0.034314
    15  N   -0.433328
    16  C    0.168388
    17  C   -0.178132
    18  C   -0.003533
    19  C    0.149328
    20  C    0.110433
    21  C    0.013683
    22  O   -0.248083
    23  C    0.062558
    24  N   -0.340899
    25  C    0.040993
    26  C   -0.028673
    27  C   -0.024210
    28  C    0.074644
    29  C    0.075996
    30  C    0.036633
    31  C   -0.011607
    32  N   -0.310749
    33  C    0.080785
    34  C   -0.169331
    35  C    0.008922
    36  C    0.083377
    37  C    0.127127
    38  C    0.046788
    39  O   -0.186847
    40  C   -0.005941
    41  C    0.213718
    42  O   -0.258462
    43  O   -0.304664
    44  C    0.156887
    45  H   -0.017922
    46  H   -0.016122
    47  H   -0.041370
    48  H    0.001525
    49  H   -0.005082
    50  H    0.025874
    51  H    0.016934
    52  H    0.016670
    53  H    0.010439
    54  H    0.044884
    55  H    0.019482
    56  H    0.016890
    57  H    0.005246
    58  H    0.027384
    59  H    0.037447
    60  H    0.036985
    61  H    0.037017
    62  H    0.029587
    63  H    0.017334
    64  H    0.009887
    65  H    0.023727
    66  H    0.012691
    67  H    0.004897
    68  H    0.006517
    69  H    0.004352
    70  H    0.012475
    71  H    0.018553
    72  H    0.031011
    73  H    0.048584
    74  H    0.008933
    75  H    0.046335
    76  H    0.035438
    77  H    0.044358
    78  H    0.045223
    79  H    0.054618
    80  Mg   0.837107
    81  C   -0.014953
    82  C   -0.088302
    83  C   -0.045169
    84  C   -0.065406
    85  N   -0.254706
    86  C   -0.047211
    87  C   -0.015115
    88  C   -0.092172
    89  C    0.045960
    90  C    0.109543
    91  C    0.062761
    92  C   -0.076948
    93  H    0.033874
    94  N   -0.423425
    95  C    0.162760
    96  C   -0.176136
    97  C   -0.007911
    98  C    0.151506
    99  C    0.100407
   100  C    0.015278
   101  O   -0.253010
   102  C    0.061629
   103  N   -0.350193
   104  C    0.036921
   105  C   -0.020055
   106  C   -0.034744
   107  C    0.089522
   108  C    0.072946
   109  C    0.034791
   110  C   -0.007417
   111  N   -0.324813
   112  C    0.079639
   113  C   -0.162396
   114  C    0.004663
   115  C    0.095927
   116  C    0.130706
   117  C    0.045127
   118  O   -0.186654
   119  C   -0.001060
   120  C    0.210314
   121  O   -0.252221
   122  O   -0.304546
   123  C    0.152385
   124  H   -0.022088
   125  H   -0.015534
   126  H   -0.041247
   127  H    0.001794
   128  H   -0.006715
   129  H    0.036474
   130  H    0.013522
   131  H    0.011825
   132  H    0.013181
   133  H    0.037602
   134  H    0.020081
   135  H    0.018420
   136  H    0.007172
   137  H    0.022805
   138  H    0.039057
   139  H    0.036623
   140  H    0.036005
   141  H    0.033409
   142  H    0.013823
   143  H    0.010999
   144  H    0.024292
   145  H    0.014297
   146  H    0.004284
   147  H    0.005517
   148  H    0.003115
   149  H    0.010808
   150  H    0.017441
   151  H    0.030533
   152  H    0.045646
   153  H    0.007094
   154  H    0.049952
   155  H    0.044603
   156  H    0.043456
   157  H    0.048367
   158  H    0.052976
 Sum of Mulliken charges =  -0.00000

 Dipole moment (field-independent basis, Debye):
    X=             -5.0695    Y=             -0.9495    Z=             -6.8536  Tot=              8.5775
 Quadrupole moment (field-independent basis, Debye-Ang):
   XX=           -523.7748   YY=           -545.9083   ZZ=           -450.4482
   XY=            -12.8588   XZ=             -3.9764   YZ=            -48.2756

 Normal termination of Gaussian 16 at Thu Sep  9 08:03:26 2021.
