 Gaussian 16, Revision A.03,
 Gaussian 16:  ES64L-G16RevA.03 25-Dec-2016

 -----------------------------------
 #p cam-b3lyp/Def2SVP td=(nstates=5)
 -----------------------------------

 --------------------------------
 TDDFT excited states in gaussian
 --------------------------------
 Symbolic Z-matrix:
 Charge =  0 Multiplicity = 1

                         Standard orientation:
 ---------------------------------------------------------------------
 Center     Atomic      Atomic             Coordinates (Angstroms)
 Number     Number       Type             X           Y           Z
 ---------------------------------------------------------------------
      1         12           0       -4.427065   -0.639128   -0.219431
      2          6           0       -4.641255    2.693401    1.069206
      3          6           0       -5.067080    0.671795   -3.304059
      4          6           0       -4.693275   -3.606632   -1.305558
      5          6           0       -4.933823   -1.772920    3.036851
      6          7           0       -4.788309    1.435139   -0.903218
      7          6           0       -4.784226    2.629040   -0.318620
      8          6           0       -4.870544    3.811936   -1.328907
      9          6           0       -5.560471    3.051433   -2.548593
     10          6           0       -5.082320    1.640050   -2.256547
     11          6           0       -7.084716    3.074187   -2.497006
     12          6           0       -3.458351    4.362308   -1.722016
     13          6           0       -3.461033    5.714323   -2.441323
     14          1           0       -2.379278    6.650738   -2.176221
     15          7           0       -4.338724   -1.341070   -2.063969
     16          6           0       -4.616929   -0.662375   -3.202944
     17          6           0       -4.404094   -1.619382   -4.309976
     18          6           0       -4.163622   -2.961658   -3.711174
     19          6           0       -4.418174   -2.691728   -2.319154
     20          6           0       -4.392566   -1.218680   -5.753255
     21          6           0       -3.777526   -4.281015   -4.301393
     22          8           0       -3.847618   -5.370454   -3.635973
     23          6           0       -3.394314   -4.276993   -5.724830
     24          7           0       -4.982955   -2.437263    0.683526
     25          6           0       -4.957798   -3.588137    0.002467
     26          6           0       -5.117763   -4.766908    0.916169
     27          6           0       -5.014215   -4.191658    2.402143
     28          6           0       -4.887149   -2.685762    2.063913
     29          6           0       -6.424267   -5.558272    0.765170
     30          6           0       -3.952048   -4.831099    3.331301
     31          6           0       -2.564588   -4.497349    2.830637
     32          7           0       -4.559150    0.262505    1.750508
     33          6           0       -4.796848   -0.396698    2.965260
     34          6           0       -4.907717    0.641957    4.005920
     35          6           0       -4.742239    1.841955    3.317103
     36          6           0       -4.566951    1.571497    1.929869
     37          6           0       -5.191243    0.416187    5.381810
     38          6           0       -4.697314    3.291032    3.426707
     39          8           0       -4.692819    4.090026    4.364301
     40          6           0       -4.751870    3.906468    1.959026
     41          6           0       -3.672090    4.949635    1.863177
     42          8           0       -2.466911    4.628943    1.908614
     43          8           0       -4.216225    6.120371    1.497341
     44          6           0       -3.194483    7.191821    1.355245
     45          1           0       -5.491757    0.937050   -4.274229
     46          1           0       -4.683673   -4.652150   -1.620579
     47          1           0       -5.007298   -2.055863    4.088516
     48          1           0       -5.498585    4.641830   -1.004463
     49          1           0       -5.175287    3.390697   -3.509976
     50          1           0       -7.445344    3.499135   -1.560370
     51          1           0       -7.394559    2.032832   -2.586840
     52          1           0       -7.494220    3.584931   -3.368914
     53          1           0       -3.033975    3.735674   -2.506424
     54          1           0       -2.809803    4.420646   -0.847197
     55          1           0       -4.427260    6.211588   -2.351643
     56          1           0       -3.347984    5.532758   -3.510179
     57          1           0       -4.762150   -0.203162   -5.889918
     58          1           0       -5.124157   -1.844948   -6.263424
     59          1           0       -3.411506   -1.353861   -6.208863
     60          1           0       -4.224221   -3.895244   -6.319869
     61          1           0       -3.064407   -5.290492   -5.950287
     62          1           0       -2.568929   -3.578657   -5.866311
     63          1           0       -4.322689   -5.494547    0.758608
     64          1           0       -5.949732   -4.304530    2.950542
     65          1           0       -6.272955   -6.615885    0.547767
     66          1           0       -7.019727   -5.080505   -0.012298
     67          1           0       -7.096520   -5.498215    1.620673
     68          1           0       -4.044025   -5.916637    3.321627
     69          1           0       -4.031474   -4.500747    4.367067
     70          1           0       -2.393107   -5.254186    2.066030
     71          1           0       -1.837154   -4.586387    3.638179
     72          1           0       -2.542397   -3.525252    2.337666
     73          1           0       -4.514138    1.060492    5.942496
     74          1           0       -5.052435   -0.631421    5.647991
     75          1           0       -6.236052    0.723277    5.425715
     76          1           0       -5.746332    4.334054    1.835181
     77          1           0       -3.500223    8.014654    2.001544
     78          1           0       -3.103567    7.393711    0.287827
     79          1           0       -2.205167    6.970876    1.757459
     80         12           0        4.554079   -0.842368    0.377449
     81          6           0        4.489050    2.621254   -0.559645
     82          6           0        3.877426   -1.582931   -2.882666
     83          6           0        4.158931   -3.867232    1.250088
     84          6           0        4.087432    0.184390    3.674977
     85          7           0        4.245718    0.440188   -1.397997
     86          6           0        4.305774    1.739987   -1.645561
     87          6           0        4.241587    2.111566   -3.151339
     88          6           0        3.486503    0.800832   -3.690498
     89          6           0        3.920464   -0.191562   -2.613689
     90          6           0        1.972010    0.918836   -3.648850
     91          6           0        5.666360    2.258106   -3.792091
     92          6           0        5.685887    2.918381   -5.172457
     93          1           0        6.812849    3.781457   -5.515293
     94          7           0        4.573166   -2.504690   -0.706487
     95          6           0        4.295359   -2.621594   -2.021941
     96          6           0        4.429060   -4.052619   -2.335751
     97          6           0        4.647219   -4.793410   -1.063607
     98          6           0        4.443017   -3.729737   -0.100817
     99          6           0        4.425682   -4.581344   -3.740694
    100          6           0        4.971681   -6.225342   -0.762801
    101          8           0        4.881908   -6.701142    0.423961
    102          6           0        5.307307   -7.077122   -1.913156
    103          7           0        3.967274   -1.729339    2.163873
    104          6           0        3.928607   -3.067307    2.291430
    105          6           0        3.747687   -3.472649    3.734802
    106          6           0        3.915980   -2.127455    4.583158
    107          6           0        4.083810   -1.118035    3.426310
    108          6           0        2.410095   -4.127289    4.079287
    109          6           0        4.979438   -2.137766    5.715252
    110          6           0        6.365678   -2.236380    5.120276
    111          7           0        4.510719    1.045467    1.427319
    112          6           0        4.274637    1.250432    2.804397
    113          6           0        4.228488    2.710338    3.025643
    114          6           0        4.419506    3.257667    1.747976
    115          6           0        4.553651    2.212548    0.794431
    116          6           0        3.983747    3.355740    4.270507
    117          6           0        4.527561    4.481873    0.987491
    118          8           0        4.577758    5.678337    1.269793
    119          6           0        4.451034    4.124306   -0.559338
    120          6           0        5.564390    4.853460   -1.260259
    121          8           0        6.752233    4.572787   -1.021804
    122          8           0        5.045544    5.604341   -2.248870
    123          6           0        6.112168    6.338346   -2.980572
    124          1           0        3.443631   -1.915821   -3.825993
    125          1           0        4.122603   -4.893737    1.622170
    126          1           0        4.043787    0.585024    4.689996
    127          1           0        3.657792    2.996031   -3.376474
    128          1           0        3.865994    0.498333   -4.663043
    129          1           0        1.651821    1.822328   -3.151532
    130          1           0        1.623707    0.046983   -3.110702
    131          1           0        1.559444    0.834630   -4.658315
    132          1           0        6.044929    1.261947   -4.054952
    133          1           0        6.329182    2.782282   -3.131389
    134          1           0        4.736357    3.415636   -5.404995
    135          1           0        5.771234    2.135810   -5.930286
    136          1           0        4.081848   -3.823110   -4.455016
    137          1           0        3.660600   -5.363934   -3.785989
    138          1           0        5.387123   -5.009767   -4.031810
    139          1           0        4.477500   -7.078288   -2.615929
    140          1           0        5.595551   -8.040882   -1.488937
    141          1           0        6.162788   -6.636343   -2.437070
    142          1           0        4.512767   -4.177035    4.037490
    143          1           0        2.986559   -1.855807    5.104898
    144          1           0        2.519161   -5.129913    4.534169
    145          1           0        1.814391   -4.181489    3.177765
    146          1           0        1.770703   -3.549200    4.744273
    147          1           0        4.850029   -3.018980    6.348394
    148          1           0        4.931285   -1.267353    6.361040
    149          1           0        6.484683   -3.310354    4.948521
    150          1           0        7.110504   -1.863736    5.820574
    151          1           0        6.411319   -1.739417    4.144264
    152          1           0        4.690369    4.171839    4.342326
    153          1           0        4.087755    2.664250    5.104057
    154          1           0        2.947066    3.671477    4.126007
    155          1           0        3.468926    4.433740   -0.918909
    156          1           0        5.849530    7.400245   -2.947563
    157          1           0        6.170138    5.864581   -3.978536
    158          1           0        7.102903    6.351772   -2.541581
 ---------------------------------------------------------------------

 SCF Done:  E(RCAM-B3LYP) =  -4069.81156935     A.U. after   19 cycles

 Excitation energies and oscillator strengths:

 Excited State   1:      Singlet-A      1.6516 eV  750.68 nm  f=0.0692  <S**2>=0.000
     309 -> 315       -0.11561
     310 -> 316        0.12143
     311 -> 313        0.47248
     312 -> 314        0.49910
 This state for optimization and/or second-order correction.
 Total Energy, E(TD-HF/TD-DFT) =  -4069.75087300
 Copying the excited state density for this state as the 1-particle RhoCI density.

 Excited State   2:      Singlet-A      1.6984 eV  730.00 nm  f=0.6136  <S**2>=0.000
     309 -> 315       -0.13067
     310 -> 316       -0.12372
     311 -> 313        0.49693
     312 -> 314       -0.47063

 Excited State   3:      Singlet-A      2.1830 eV  567.96 nm  f=0.0285  <S**2>=0.000
     309 -> 313       -0.35758
     310 -> 314        0.53561
     311 -> 315       -0.14930
     312 -> 316       -0.22536

 Excited State   4:      Singlet-A      2.1933 eV  565.27 nm  f=0.1548  <S**2>=0.000
     309 -> 313        0.53219
     310 -> 314        0.35403
     311 -> 315        0.23291
     312 -> 316       -0.15615

 Excited State   5:      Singlet-A      2.3489 eV  527.83 nm  f=0.0000  <S**2>=0.000
     312 -> 313        0.70708

 The electronic state is 1-A.
 Alpha  occ. eigenvalues --  -46.87891 -46.87446 -19.26239 -19.26233 -19.19023
 Alpha  occ. eigenvalues --  -19.18992 -19.18963 -19.18511 -19.18237 -19.17811
 Alpha  occ. eigenvalues --  -14.42544 -14.42297 -14.41539 -14.41148 -14.39506
 Alpha  occ. eigenvalues --  -14.39138 -14.38679 -14.38366 -10.39059 -10.38946
 Alpha  occ. eigenvalues --  -10.35602 -10.35191 -10.34452 -10.33990 -10.31689
 Alpha  occ. eigenvalues --  -10.31562 -10.31490 -10.31105 -10.31004 -10.30848
 Alpha  occ. eigenvalues --  -10.30664 -10.30602 -10.30309 -10.30161 -10.30125
 Alpha  occ. eigenvalues --  -10.30000 -10.29939 -10.29737 -10.29667 -10.29366
 Alpha  occ. eigenvalues --  -10.29217 -10.29163 -10.28821 -10.28621 -10.28604
 Alpha  occ. eigenvalues --  -10.28572 -10.28461 -10.28198 -10.28188 -10.28030
 Alpha  occ. eigenvalues --  -10.27896 -10.27827 -10.27760 -10.27701 -10.27657
 Alpha  occ. eigenvalues --  -10.27575 -10.27514 -10.27488 -10.27475 -10.27327
 Alpha  occ. eigenvalues --  -10.27288 -10.27275 -10.27237 -10.27203 -10.27199
 Alpha  occ. eigenvalues --  -10.26838 -10.26776 -10.26631 -10.26607 -10.26306
 Alpha  occ. eigenvalues --  -10.26246 -10.26235 -10.26116 -10.25965 -10.25958
 Alpha  occ. eigenvalues --  -10.25942 -10.25707 -10.25494 -10.25455 -10.25263
 Alpha  occ. eigenvalues --  -10.24929 -10.24877 -10.24740 -10.24619 -10.24570
 Alpha  occ. eigenvalues --  -10.24478  -3.16634  -3.16196  -1.91515  -1.91102
 Alpha  occ. eigenvalues --   -1.91078  -1.90944  -1.90667  -1.90503  -1.16588
 Alpha  occ. eigenvalues --   -1.16526  -1.08686  -1.08420  -1.07366  -1.06807
 Alpha  occ. eigenvalues --   -1.06765  -1.06615  -1.04674  -1.04296  -1.03852
 Alpha  occ. eigenvalues --   -1.03451  -1.03331  -1.02817  -1.02505  -1.01889
 Alpha  occ. eigenvalues --   -0.92049  -0.91771  -0.89599  -0.89292  -0.89265
 Alpha  occ. eigenvalues --   -0.89026  -0.88363  -0.88032  -0.87969  -0.87765
 Alpha  occ. eigenvalues --   -0.87531  -0.87470  -0.87415  -0.86911  -0.85064
 Alpha  occ. eigenvalues --   -0.84854  -0.84001  -0.83695  -0.83117  -0.82743
 Alpha  occ. eigenvalues --   -0.82725  -0.82498  -0.81613  -0.81423  -0.80664
 Alpha  occ. eigenvalues --   -0.80257  -0.78920  -0.78410  -0.77304  -0.76984
 Alpha  occ. eigenvalues --   -0.76972  -0.76748  -0.75979  -0.75677  -0.74962
 Alpha  occ. eigenvalues --   -0.74631  -0.72867  -0.72471  -0.71748  -0.71403
 Alpha  occ. eigenvalues --   -0.69975  -0.69581  -0.68959  -0.68671  -0.67733
 Alpha  occ. eigenvalues --   -0.67402  -0.67313  -0.67052  -0.65359  -0.65120
 Alpha  occ. eigenvalues --   -0.64921  -0.64681  -0.64575  -0.64486  -0.64344
 Alpha  occ. eigenvalues --   -0.64014  -0.62306  -0.62118  -0.60562  -0.60134
 Alpha  occ. eigenvalues --   -0.59890  -0.59635  -0.59067  -0.58791  -0.58582
 Alpha  occ. eigenvalues --   -0.58227  -0.57630  -0.57382  -0.57350  -0.57034
 Alpha  occ. eigenvalues --   -0.56410  -0.55989  -0.55984  -0.55744  -0.55625
 Alpha  occ. eigenvalues --   -0.55388  -0.55265  -0.55066  -0.54552  -0.54327
 Alpha  occ. eigenvalues --   -0.53971  -0.53785  -0.53409  -0.53313  -0.53024
 Alpha  occ. eigenvalues --   -0.52977  -0.52972  -0.52872  -0.52741  -0.52502
 Alpha  occ. eigenvalues --   -0.52494  -0.52223  -0.52006  -0.51706  -0.51556
 Alpha  occ. eigenvalues --   -0.51502  -0.51262  -0.51001  -0.50744  -0.50294
 Alpha  occ. eigenvalues --   -0.50117  -0.50043  -0.49822  -0.49687  -0.49611
 Alpha  occ. eigenvalues --   -0.49312  -0.49302  -0.49170  -0.49028  -0.48919
 Alpha  occ. eigenvalues --   -0.48648  -0.48581  -0.48510  -0.48379  -0.48192
 Alpha  occ. eigenvalues --   -0.48147  -0.47783  -0.47427  -0.47387  -0.46936
 Alpha  occ. eigenvalues --   -0.46878  -0.46632  -0.46526  -0.46443  -0.46413
 Alpha  occ. eigenvalues --   -0.46224  -0.46066  -0.45872  -0.45869  -0.45613
 Alpha  occ. eigenvalues --   -0.45276  -0.45032  -0.44655  -0.44607  -0.44365
 Alpha  occ. eigenvalues --   -0.44281  -0.44232  -0.44172  -0.44094  -0.43955
 Alpha  occ. eigenvalues --   -0.43892  -0.43746  -0.43529  -0.43466  -0.43395
 Alpha  occ. eigenvalues --   -0.43215  -0.43104  -0.42773  -0.42754  -0.42701
 Alpha  occ. eigenvalues --   -0.42640  -0.42366  -0.42075  -0.41799  -0.41781
 Alpha  occ. eigenvalues --   -0.41609  -0.41469  -0.41310  -0.41220  -0.40974
 Alpha  occ. eigenvalues --   -0.40930  -0.40822  -0.40641  -0.40569  -0.40544
 Alpha  occ. eigenvalues --   -0.40316  -0.40313  -0.40111  -0.39504  -0.39245
 Alpha  occ. eigenvalues --   -0.38540  -0.38183  -0.37815  -0.37537  -0.37400
 Alpha  occ. eigenvalues --   -0.37341  -0.37077  -0.37024  -0.36722  -0.36633
 Alpha  occ. eigenvalues --   -0.36229  -0.36044  -0.34376  -0.34042  -0.33767
 Alpha  occ. eigenvalues --   -0.33708  -0.33269  -0.32960  -0.31489  -0.31123
 Alpha  occ. eigenvalues --   -0.31072  -0.30767  -0.30091  -0.29719  -0.29565
 Alpha  occ. eigenvalues --   -0.29419  -0.29100  -0.28950  -0.24170  -0.23818
 Alpha  occ. eigenvalues --   -0.21225  -0.20899
 Alpha virt. eigenvalues --   -0.08877  -0.08565  -0.01847  -0.01474  -0.00178
 Alpha virt. eigenvalues --    0.00177   0.02115   0.02445   0.02853   0.03487
 Alpha virt. eigenvalues --    0.04640   0.04908   0.05105   0.05317   0.06135

 Mulliken charges:
               1
     1  Mg   0.838742
     2  C   -0.002730
     3  C   -0.094859
     4  C   -0.045614
     5  C   -0.064195
     6  N   -0.256761
     7  C   -0.052378
     8  C   -0.013836
     9  C   -0.086853
    10  C    0.046144
    11  C    0.104815
    12  C    0.053632
    13  C   -0.072552
    14  H    0.038362
    15  N   -0.433067
    16  C    0.168059
    17  C   -0.178032
    18  C   -0.004541
    19  C    0.148756
    20  C    0.110331
    21  C    0.011696
    22  O   -0.249196
    23  C    0.063040
    24  N   -0.341245
    25  C    0.041286
    26  C   -0.028335
    27  C   -0.024073
    28  C    0.075289
    29  C    0.076080
    30  C    0.034972
    31  C   -0.005704
    32  N   -0.310596
    33  C    0.080821
    34  C   -0.169960
    35  C    0.008561
    36  C    0.083228
    37  C    0.127337
    38  C    0.046201
    39  O   -0.187643
    40  C   -0.005251
    41  C    0.212847
    42  O   -0.256571
    43  O   -0.305186
    44  C    0.156806
    45  H   -0.017756
    46  H   -0.016686
    47  H   -0.041471
    48  H    0.001470
    49  H   -0.004448
    50  H    0.025728
    51  H    0.016386
    52  H    0.016710
    53  H    0.009503
    54  H    0.044846
    55  H    0.018196
    56  H    0.016962
    57  H    0.005899
    58  H    0.027055
    59  H    0.037281
    60  H    0.037833
    61  H    0.035174
    62  H    0.029042
    63  H    0.017122
    64  H    0.009630
    65  H    0.023501
    66  H    0.012438
    67  H    0.004866
    68  H    0.007033
    69  H    0.004157
    70  H    0.010569
    71  H    0.018261
    72  H    0.028847
    73  H    0.047454
    74  H    0.008942
    75  H    0.046439
    76  H    0.035324
    77  H    0.043379
    78  H    0.046358
    79  H    0.056106
    80  Mg   0.837990
    81  C   -0.016288
    82  C   -0.088012
    83  C   -0.045172
    84  C   -0.063062
    85  N   -0.254408
    86  C   -0.049497
    87  C   -0.014998
    88  C   -0.090685
    89  C    0.045671
    90  C    0.114543
    91  C    0.062721
    92  C   -0.077346
    93  H    0.034450
    94  N   -0.423419
    95  C    0.162525
    96  C   -0.174642
    97  C   -0.007818
    98  C    0.151708
    99  C    0.099357
   100  C    0.015622
   101  O   -0.253805
   102  C    0.061193
   103  N   -0.349772
   104  C    0.037007
   105  C   -0.019823
   106  C   -0.035232
   107  C    0.089022
   108  C    0.072884
   109  C    0.034726
   110  C   -0.007540
   111  N   -0.324711
   112  C    0.078933
   113  C   -0.160141
   114  C    0.003779
   115  C    0.096441
   116  C    0.130045
   117  C    0.044485
   118  O   -0.187943
   119  C    0.000183
   120  C    0.210861
   121  O   -0.251262
   122  O   -0.305834
   123  C    0.152225
   124  H   -0.021369
   125  H   -0.016081
   126  H   -0.039482
   127  H   -0.001413
   128  H   -0.005528
   129  H    0.023488
   130  H    0.015195
   131  H    0.012827
   132  H    0.013938
   133  H    0.037824
   134  H    0.019755
   135  H    0.019026
   136  H    0.007345
   137  H    0.026592
   138  H    0.038994
   139  H    0.038703
   140  H    0.035854
   141  H    0.033340
   142  H    0.013943
   143  H    0.013330
   144  H    0.023909
   145  H    0.013093
   146  H    0.005046
   147  H    0.005574
   148  H    0.004123
   149  H    0.010555
   150  H    0.017665
   151  H    0.030251
   152  H    0.044814
   153  H    0.007820
   154  H    0.054077
   155  H    0.036236
   156  H    0.043218
   157  H    0.048863
   158  H    0.053537
 Sum of Mulliken charges =  -0.00000

 Dipole moment (field-independent basis, Debye):
    X=             -3.6619    Y=             -1.8608    Z=             -7.1285  Tot=              8.2273
 Quadrupole moment (field-independent basis, Debye-Ang):
   XX=           -519.0312   YY=           -540.7873   ZZ=           -458.4617
   XY=            -13.3283   XZ=             -0.9951   YZ=            -38.4943

 Normal termination of Gaussian 16 at Fri Sep 10 02:32:35 2021.
