 Gaussian 16, Revision A.03,
 Gaussian 16:  ES64L-G16RevA.03 25-Dec-2016

 -----------------------------------
 #p cam-b3lyp/Def2SVP td=(nstates=5)
 -----------------------------------

 --------------------------------
 TDDFT excited states in gaussian
 --------------------------------
 Symbolic Z-matrix:
 Charge =  0 Multiplicity = 1

                         Standard orientation:
 ---------------------------------------------------------------------
 Center     Atomic      Atomic             Coordinates (Angstroms)
 Number     Number       Type             X           Y           Z
 ---------------------------------------------------------------------
      1         12           0        5.542910    0.153389    0.107382
      2          6           0        5.416814   -3.223213   -1.073664
      3          6           0        6.410898    1.072350   -3.062030
      4          6           0        6.102614    3.068817    1.222564
      5          6           0        5.784980   -1.140243    3.334390
      6          7           0        5.842060   -1.018375   -1.746836
      7          6           0        5.704124   -2.297974   -2.079661
      8          6           0        5.819070   -2.553575   -3.612250
      9          6           0        6.675645   -1.271445   -4.017737
     10          6           0        6.259048   -0.336356   -2.896140
     11          6           0        8.182319   -1.494824   -3.936883
     12          6           0        4.422746   -2.557193   -4.320767
     13          6           0        4.414488   -3.118536   -5.745611
     14          1           0        3.255160   -3.875360   -6.193411
     15          7           0        5.686778    1.881434   -0.839199
     16          6           0        6.036741    2.068614   -2.134489
     17          6           0        5.997770    3.529513   -2.360184
     18          6           0        5.781606    4.187980   -1.041932
     19          6           0        5.875750    3.059278   -0.151681
     20          6           0        6.108376    4.155811   -3.716379
     21          6           0        5.540537    5.610465   -0.646263
     22          8           0        5.610188    5.999392    0.569656
     23          6           0        5.304795    6.566542   -1.743252
     24          7           0        6.114818    0.871013    1.982368
     25          6           0        6.230868    2.183399    2.212933
     26          6           0        6.370024    2.470060    3.678675
     27          6           0        6.080048    1.090371    4.428425
     28          6           0        5.894574    0.182102    3.187893
     29          6           0        7.731840    3.018150    4.127079
     30          6           0        4.970655    1.097393    5.509912
     31          6           0        3.623329    1.324180    4.861546
     32          7           0        5.417266   -1.811488    1.020900
     33          6           0        5.570584   -2.120715    2.380145
     34          6           0        5.509994   -3.589171    2.498604
     35          6           0        5.341138   -4.035938    1.189508
     36          6           0        5.325237   -2.918910    0.306170
     37          6           0        5.665414   -4.335445    3.700001
     38          6           0        5.195143   -5.198577    0.328803
     39          8           0        5.045434   -6.406175    0.520607
     40          6           0        5.360475   -4.726675   -1.183083
     41          6           0        4.233226   -5.332371   -1.974127
     42          8           0        3.052005   -4.982013   -1.775803
     43          8           0        4.737834   -6.045265   -2.992800
     44          6           0        3.671156   -6.649213   -3.835177
     45          1           0        6.914836    1.447379   -3.954970
     46          1           0        6.190266    4.064206    1.662968
     47          1           0        5.768433   -1.610829    4.319137
     48          1           0        6.357901   -3.461935   -3.882375
     49          1           0        6.370010   -0.866208   -4.982150
     50          1           0        8.418510   -2.460013   -3.489061
     51          1           0        8.563936   -0.683689   -3.316463
     52          1           0        8.645898   -1.367163   -4.915440
     53          1           0        4.120316   -1.529977   -4.524296
     54          1           0        3.686101   -3.090506   -3.718889
     55          1           0        5.333708   -3.662394   -5.965070
     56          1           0        4.422418   -2.280678   -6.442842
     57          1           0        6.426005    3.432838   -4.466690
     58          1           0        6.925692    4.875170   -3.669190
     59          1           0        5.189153    4.662570   -4.010586
     60          1           0        6.165604    6.566072   -2.412248
     61          1           0        5.063317    7.516420   -1.267575
     62          1           0        4.456241    6.222435   -2.335278
     63          1           0        5.641991    3.212598    4.002760
     64          1           0        6.960048    0.716915    4.952644
     65          1           0        7.669606    3.975986    4.644170
     66          1           0        8.372480    3.088930    3.248522
     67          1           0        8.308411    2.346082    4.762142
     68          1           0        5.130552    1.915142    6.211814
     69          1           0        4.923448    0.171976    6.084043
     70          1           0        3.578077    2.408550    4.767077
     71          1           0        2.824392    0.954688    5.505273
     72          1           0        3.590979    0.907739    3.854561
     73          1           0        4.895925   -5.107139    3.681439
     74          1           0        5.565717   -3.697673    4.578017
     75          1           0        6.679157   -4.714775    3.572374
     76          1           0        6.333816   -5.083625   -1.518221
     77          1           0        3.857649   -7.722688   -3.868421
     78          1           0        3.677039   -6.105141   -4.779823
     79          1           0        2.661706   -6.628379   -3.422970
     80         12           0       -5.005194    1.080646    0.411979
     81          6           0       -7.335880   -1.641656    0.222167
     82          6           0       -6.523427    2.377141   -2.353647
     83          6           0       -2.693420    3.250025    0.281889
     84          6           0       -2.998754   -0.958366    2.402535
     85          7           0       -6.701060    0.367836   -0.816111
     86          6           0       -7.548714   -0.648159   -0.756156
     87          6           0       -8.735688   -0.555129   -1.752153
     88          6           0       -8.056519    0.403767   -2.846738
     89          6           0       -7.052039    1.124948   -1.950311
     90          6           0       -7.285558   -0.353786   -3.914946
     91          6           0      -10.002923    0.112145   -1.111160
     92          6           0      -11.291221   -0.043101   -1.922299
     93          1           0      -12.551762   -0.203265   -1.202686
     94          7           0       -4.935794    2.828864   -0.524768
     95          6           0       -5.636210    3.194104   -1.618975
     96          6           0       -5.212227    4.568527   -1.927802
     97          6           0       -4.084119    4.925420   -1.025182
     98          6           0       -3.841720    3.646666   -0.387914
     99          6           0       -5.914835    5.429449   -2.937049
    100          6           0       -3.337544    6.202713   -0.785698
    101          8           0       -2.236981    6.226419   -0.129184
    102          6           0       -3.883784    7.410456   -1.421666
    103          7           0       -3.024856    1.070478    1.044832
    104          6           0       -2.252160    2.163251    0.915560
    105          6           0       -0.961750    2.013060    1.685405
    106          6           0       -1.134901    0.684912    2.559260
    107          6           0       -2.521177    0.228478    2.053974
    108          6           0        0.307807    1.904531    0.841117
    109          6           0       -0.912977    0.816332    4.090978
    110          6           0       -2.006586    1.663922    4.700072
    111          7           0       -5.197211   -0.861198    1.339568
    112          6           0       -4.226354   -1.538458    2.109515
    113          6           0       -4.774696   -2.873425    2.425160
    114          6           0       -6.026906   -2.888852    1.792526
    115          6           0       -6.235107   -1.658508    1.112535
    116          6           0       -4.108979   -3.893217    3.162022
    117          6           0       -7.215430   -3.670230    1.536469
    118          8           0       -7.641854   -4.756260    1.926884
    119          6           0       -8.062022   -2.945741    0.402982
    120          6           0       -9.495321   -2.892614    0.856119
    121          8           0       -9.819971   -2.216267    1.847959
    122          8           0      -10.274275   -3.468686   -0.077557
    123          6           0      -11.706457   -3.430625    0.321483
    124          1           0       -6.777965    2.752656   -3.345148
    125          1           0       -1.908337    4.005683    0.360000
    126          1           0       -2.476028   -1.615924    3.100421
    127          1           0       -9.021155   -1.495718   -2.207760
    128          1           0       -8.776352    1.107747   -3.256150
    129          1           0       -7.222641   -1.409016   -3.694344
    130          1           0       -6.297995    0.088258   -3.934172
    131          1           0       -7.720354   -0.163046   -4.900294
    132          1           0       -9.889323    1.203305   -1.145974
    133          1           0      -10.159007   -0.247497   -0.112701
    134          1           0      -11.196080   -0.805369   -2.705141
    135          1           0      -11.469305    0.884515   -2.471678
    136          1           0       -6.601206    4.841623   -3.558952
    137          1           0       -5.152773    5.787681   -3.637604
    138          1           0       -6.410876    6.290371   -2.483819
    139          1           0       -3.928072    7.263190   -2.498143
    140          1           0       -3.265612    8.235246   -1.061835
    141          1           0       -4.915664    7.549391   -1.080312
    142          1           0       -0.808205    2.853885    2.350654
    143          1           0       -0.419215   -0.095255    2.261003
    144          1           0        1.061127    2.677462    1.084325
    145          1           0        0.029260    1.960206   -0.202841
    146          1           0        0.816527    0.943463    0.893543
    147          1           0        0.028858    1.331850    4.294327
    148          1           0       -0.875303   -0.138089    4.605423
    149          1           0       -1.654369    2.684783    4.524363
    150          1           0       -2.103538    1.457482    5.764035
    151          1           0       -2.949285    1.541907    4.154100
    152          1           0       -4.838530   -4.312763    3.841909
    153          1           0       -3.246876   -3.499359    3.696266
    154          1           0       -3.817021   -4.562688    2.348488
    155          1           0       -7.943804   -3.523926   -0.514254
    156          1           0      -12.072212   -4.461815    0.297855
    157          1           0      -12.188700   -2.709273   -0.364700
    158          1           0      -11.934913   -3.148543    1.342602
 ---------------------------------------------------------------------

 SCF Done:  E(RCAM-B3LYP) =  -4069.81205462     A.U. after   19 cycles

 Excitation energies and oscillator strengths:

 Excited State   1:      Singlet-A      1.6554 eV  748.95 nm  f=0.0037  <S**2>=0.000
     309 -> 315       -0.11212
     310 -> 316        0.12609
     311 -> 313       -0.45499
     312 -> 314        0.51500
 This state for optimization and/or second-order correction.
 Total Energy, E(TD-HF/TD-DFT) =  -4069.75121847
 Copying the excited state density for this state as the 1-particle RhoCI density.

 Excited State   2:      Singlet-A      1.6978 eV  730.25 nm  f=0.7116  <S**2>=0.000
     309 -> 315        0.13520
     310 -> 316        0.11845
     311 -> 313        0.51310
     312 -> 314        0.45328

 Excited State   3:      Singlet-A      2.1838 eV  567.76 nm  f=0.0819  <S**2>=0.000
     309 -> 313       -0.16315
     310 -> 314        0.62227
     312 -> 316       -0.26244

 Excited State   4:      Singlet-A      2.1957 eV  564.66 nm  f=0.1142  <S**2>=0.000
     309 -> 313        0.61925
     310 -> 314        0.16068
     311 -> 315       -0.27110

 Excited State   5:      Singlet-A      2.4751 eV  500.93 nm  f=0.0000  <S**2>=0.000
     312 -> 313        0.70661

 The electronic state is 1-A.
 Alpha  occ. eigenvalues --  -46.87885 -46.87484 -19.26326 -19.26219 -19.19072
 Alpha  occ. eigenvalues --  -19.19024 -19.18786 -19.18577 -19.18218 -19.17878
 Alpha  occ. eigenvalues --  -14.42520 -14.42326 -14.41532 -14.41177 -14.39466
 Alpha  occ. eigenvalues --  -14.39182 -14.38669 -14.38417 -10.39131 -10.38950
 Alpha  occ. eigenvalues --  -10.35414 -10.35259 -10.34441 -10.34055 -10.31708
 Alpha  occ. eigenvalues --  -10.31642 -10.31480 -10.31133 -10.30960 -10.30874
 Alpha  occ. eigenvalues --  -10.30645 -10.30579 -10.30279 -10.30212 -10.30176
 Alpha  occ. eigenvalues --  -10.30010 -10.29958 -10.29700 -10.29686 -10.29310
 Alpha  occ. eigenvalues --  -10.29263 -10.29222 -10.28801 -10.28585 -10.28585
 Alpha  occ. eigenvalues --  -10.28555 -10.28423 -10.28240 -10.28172 -10.28002
 Alpha  occ. eigenvalues --  -10.27847 -10.27824 -10.27793 -10.27628 -10.27619
 Alpha  occ. eigenvalues --  -10.27548 -10.27501 -10.27491 -10.27467 -10.27355
 Alpha  occ. eigenvalues --  -10.27312 -10.27301 -10.27299 -10.27210 -10.27192
 Alpha  occ. eigenvalues --  -10.26887 -10.26756 -10.26575 -10.26377 -10.26326
 Alpha  occ. eigenvalues --  -10.26305 -10.26283 -10.26104 -10.25949 -10.25915
 Alpha  occ. eigenvalues --  -10.25895 -10.25732 -10.25569 -10.25502 -10.25257
 Alpha  occ. eigenvalues --  -10.24991 -10.24891 -10.24859 -10.24690 -10.24571
 Alpha  occ. eigenvalues --  -10.24515  -3.16622  -3.16234  -1.91505  -1.91116
 Alpha  occ. eigenvalues --   -1.91090  -1.90932  -1.90705  -1.90542  -1.16676
 Alpha  occ. eigenvalues --   -1.16511  -1.08677  -1.08485  -1.07181  -1.06833
 Alpha  occ. eigenvalues --   -1.06808  -1.06693  -1.04647  -1.04327  -1.03835
 Alpha  occ. eigenvalues --   -1.03488  -1.03304  -1.02857  -1.02484  -1.01932
 Alpha  occ. eigenvalues --   -0.92035  -0.91815  -0.89632  -0.89308  -0.89246
 Alpha  occ. eigenvalues --   -0.89008  -0.88390  -0.88038  -0.87936  -0.87739
 Alpha  occ. eigenvalues --   -0.87586  -0.87512  -0.87290  -0.86976  -0.85036
 Alpha  occ. eigenvalues --   -0.84853  -0.84060  -0.83703  -0.82982  -0.82799
 Alpha  occ. eigenvalues --   -0.82683  -0.82510  -0.81642  -0.81437  -0.80646
 Alpha  occ. eigenvalues --   -0.80284  -0.78836  -0.78470  -0.77298  -0.77003
 Alpha  occ. eigenvalues --   -0.76984  -0.76745  -0.75981  -0.75686  -0.74984
 Alpha  occ. eigenvalues --   -0.74641  -0.72846  -0.72514  -0.71737  -0.71417
 Alpha  occ. eigenvalues --   -0.70063  -0.69579  -0.68924  -0.68678  -0.67692
 Alpha  occ. eigenvalues --   -0.67436  -0.67253  -0.67066  -0.65350  -0.65122
 Alpha  occ. eigenvalues --   -0.64925  -0.64693  -0.64598  -0.64495  -0.64368
 Alpha  occ. eigenvalues --   -0.64023  -0.62358  -0.62123  -0.60483  -0.60182
 Alpha  occ. eigenvalues --   -0.59861  -0.59642  -0.59058  -0.58818  -0.58570
 Alpha  occ. eigenvalues --   -0.58256  -0.57641  -0.57388  -0.57376  -0.57067
 Alpha  occ. eigenvalues --   -0.56360  -0.56031  -0.56026  -0.55744  -0.55549
 Alpha  occ. eigenvalues --   -0.55433  -0.55303  -0.55071  -0.54611  -0.54324
 Alpha  occ. eigenvalues --   -0.53950  -0.53771  -0.53358  -0.53245  -0.53064
 Alpha  occ. eigenvalues --   -0.52991  -0.52983  -0.52768  -0.52751  -0.52590
 Alpha  occ. eigenvalues --   -0.52545  -0.52223  -0.51984  -0.51649  -0.51648
 Alpha  occ. eigenvalues --   -0.51520  -0.51272  -0.51030  -0.50566  -0.50352
 Alpha  occ. eigenvalues --   -0.50136  -0.49938  -0.49837  -0.49708  -0.49542
 Alpha  occ. eigenvalues --   -0.49346  -0.49259  -0.49146  -0.49049  -0.48943
 Alpha  occ. eigenvalues --   -0.48652  -0.48534  -0.48448  -0.48399  -0.48203
 Alpha  occ. eigenvalues --   -0.48196  -0.47750  -0.47445  -0.47343  -0.46963
 Alpha  occ. eigenvalues --   -0.46884  -0.46606  -0.46536  -0.46432  -0.46411
 Alpha  occ. eigenvalues --   -0.46237  -0.46099  -0.45909  -0.45884  -0.45642
 Alpha  occ. eigenvalues --   -0.45294  -0.45050  -0.44644  -0.44550  -0.44365
 Alpha  occ. eigenvalues --   -0.44310  -0.44232  -0.44139  -0.44043  -0.43978
 Alpha  occ. eigenvalues --   -0.43918  -0.43791  -0.43557  -0.43452  -0.43399
 Alpha  occ. eigenvalues --   -0.43229  -0.43098  -0.42816  -0.42782  -0.42735
 Alpha  occ. eigenvalues --   -0.42723  -0.42382  -0.42119  -0.41798  -0.41769
 Alpha  occ. eigenvalues --   -0.41594  -0.41502  -0.41307  -0.41202  -0.40956
 Alpha  occ. eigenvalues --   -0.40829  -0.40810  -0.40667  -0.40592  -0.40551
 Alpha  occ. eigenvalues --   -0.40318  -0.40274  -0.40104  -0.39611  -0.39240
 Alpha  occ. eigenvalues --   -0.38567  -0.38177  -0.37805  -0.37518  -0.37413
 Alpha  occ. eigenvalues --   -0.37321  -0.37088  -0.37043  -0.36778  -0.36626
 Alpha  occ. eigenvalues --   -0.36266  -0.36049  -0.34359  -0.34078  -0.33826
 Alpha  occ. eigenvalues --   -0.33718  -0.33255  -0.32997  -0.31324  -0.31134
 Alpha  occ. eigenvalues --   -0.31095  -0.30802  -0.30080  -0.29781  -0.29494
 Alpha  occ. eigenvalues --   -0.29383  -0.29163  -0.29024  -0.24154  -0.23856
 Alpha  occ. eigenvalues --   -0.21197  -0.20941
 Alpha virt. eigenvalues --   -0.08831  -0.08617  -0.01816  -0.01519  -0.00078
 Alpha virt. eigenvalues --    0.00120   0.02139   0.02389   0.02604   0.03392
 Alpha virt. eigenvalues --    0.04649   0.04889   0.05046   0.05309   0.06081

 Mulliken charges:
               1
     1  Mg   0.834043
     2  C   -0.002730
     3  C   -0.093746
     4  C   -0.046084
     5  C   -0.064384
     6  N   -0.256536
     7  C   -0.052835
     8  C   -0.013909
     9  C   -0.087078
    10  C    0.046510
    11  C    0.104762
    12  C    0.053373
    13  C   -0.071835
    14  H    0.036178
    15  N   -0.433472
    16  C    0.168930
    17  C   -0.176674
    18  C   -0.003075
    19  C    0.148680
    20  C    0.110199
    21  C    0.013760
    22  O   -0.248914
    23  C    0.061939
    24  N   -0.340569
    25  C    0.040963
    26  C   -0.028419
    27  C   -0.024416
    28  C    0.073836
    29  C    0.076032
    30  C    0.038518
    31  C   -0.012044
    32  N   -0.310237
    33  C    0.079174
    34  C   -0.170594
    35  C    0.008365
    36  C    0.081981
    37  C    0.127458
    38  C    0.045868
    39  O   -0.188208
    40  C   -0.005317
    41  C    0.213027
    42  O   -0.257494
    43  O   -0.304725
    44  C    0.157546
    45  H   -0.017302
    46  H   -0.016434
    47  H   -0.042041
    48  H    0.001073
    49  H   -0.003887
    50  H    0.025616
    51  H    0.016530
    52  H    0.016840
    53  H    0.011265
    54  H    0.044014
    55  H    0.017990
    56  H    0.017941
    57  H    0.005679
    58  H    0.027089
    59  H    0.040600
    60  H    0.036502
    61  H    0.037143
    62  H    0.033315
    63  H    0.016589
    64  H    0.009997
    65  H    0.023746
    66  H    0.012964
    67  H    0.004931
    68  H    0.007009
    69  H    0.004402
    70  H    0.009856
    71  H    0.020184
    72  H    0.028217
    73  H    0.047258
    74  H    0.008643
    75  H    0.046354
    76  H    0.035388
    77  H    0.043259
    78  H    0.046372
    79  H    0.053876
    80  Mg   0.838072
    81  C   -0.017056
    82  C   -0.088239
    83  C   -0.046032
    84  C   -0.062574
    85  N   -0.254570
    86  C   -0.049599
    87  C   -0.015118
    88  C   -0.090504
    89  C    0.045759
    90  C    0.114522
    91  C    0.062622
    92  C   -0.077656
    93  H    0.034533
    94  N   -0.423294
    95  C    0.162721
    96  C   -0.175434
    97  C   -0.008322
    98  C    0.151915
    99  C    0.099760
   100  C    0.014791
   101  O   -0.253091
   102  C    0.061287
   103  N   -0.349864
   104  C    0.037355
   105  C   -0.020559
   106  C   -0.036303
   107  C    0.089067
   108  C    0.069567
   109  C    0.031018
   110  C   -0.007627
   111  N   -0.324348
   112  C    0.078339
   113  C   -0.162032
   114  C    0.002318
   115  C    0.096504
   116  C    0.131748
   117  C    0.042761
   118  O   -0.187689
   119  C    0.000785
   120  C    0.211182
   121  O   -0.251205
   122  O   -0.305602
   123  C    0.152138
   124  H   -0.020517
   125  H   -0.015539
   126  H   -0.038780
   127  H   -0.000768
   128  H   -0.004822
   129  H    0.022686
   130  H    0.014410
   131  H    0.015521
   132  H    0.013821
   133  H    0.037648
   134  H    0.020655
   135  H    0.019313
   136  H    0.008345
   137  H    0.024950
   138  H    0.039291
   139  H    0.037355
   140  H    0.036032
   141  H    0.033890
   142  H    0.014735
   143  H    0.016102
   144  H    0.029681
   145  H    0.011207
   146  H    0.007056
   147  H    0.009779
   148  H    0.003684
   149  H    0.010738
   150  H    0.016867
   151  H    0.029995
   152  H    0.045350
   153  H    0.009054
   154  H    0.049748
   155  H    0.035190
   156  H    0.043774
   157  H    0.049245
   158  H    0.053432
 Sum of Mulliken charges =  -0.00000

 Dipole moment (field-independent basis, Debye):
    X=              2.0940    Y=              4.6370    Z=             -7.0745  Tot=              8.7141
 Quadrupole moment (field-independent basis, Debye-Ang):
   XX=           -474.9467   YY=           -558.0359   ZZ=           -458.0873
   XY=            -22.4834   XZ=             26.3014   YZ=             -3.2743

 Normal termination of Gaussian 16 at Sat Sep 11 00:38:47 2021.
