 Gaussian 16, Revision A.03,
 Gaussian 16:  ES64L-G16RevA.03 25-Dec-2016

 -----------------------------------
 #p cam-b3lyp/Def2SVP td=(nstates=5)
 -----------------------------------

 --------------------------------
 TDDFT excited states in gaussian
 --------------------------------
 Symbolic Z-matrix:
 Charge =  0 Multiplicity = 1

                         Standard orientation:
 ---------------------------------------------------------------------
 Center     Atomic      Atomic             Coordinates (Angstroms)
 Number     Number       Type             X           Y           Z
 ---------------------------------------------------------------------
      1         12           0       -6.372791   -0.875640    0.019360
      2          6           0       -6.679426    2.051374    2.056706
      3          6           0       -7.315701    1.053008   -2.632866
      4          6           0       -6.550057   -3.529239   -1.707953
      5          6           0       -6.568801   -2.754751    2.947872
      6          7           0       -6.901852    1.267925   -0.141484
      7          6           0       -6.922040    2.294436    0.702932
      8          6           0       -7.151052    3.666780    0.001792
      9          6           0       -7.885929    3.155826   -1.317632
     10          6           0       -7.307596    1.753620   -1.390244
     11          6           0       -9.400842    3.055348   -1.171188
     12          6           0       -5.805934    4.393379   -0.336504
     13          6           0       -5.939527    5.869778   -0.720889
     14          1           0       -4.896081    6.797359   -0.310813
     15          7           0       -6.382991   -1.130888   -1.939618
     16          6           0       -6.783944   -0.232790   -2.871252
     17          6           0       -6.600430   -0.894561   -4.180855
     18          6           0       -6.239684   -2.316780   -3.925411
     19          6           0       -6.404230   -2.390089   -2.496101
     20          6           0       -6.719886   -0.176054   -5.489758
     21          6           0       -5.824320   -3.435462   -4.827717
     22          8           0       -5.782179   -4.649918   -4.430357
     23          6           0       -5.549650   -3.079632   -6.231634
     24          7           0       -6.756112   -2.867656    0.511877
     25          6           0       -6.716492   -3.828300   -0.417950
     26          6           0       -6.740138   -5.192557    0.205093
     27          6           0       -6.558536   -4.964746    1.775085
     28          6           0       -6.543183   -3.416247    1.788633
     29          6           0       -8.007055   -6.021609   -0.047110
     30          6           0       -5.395052   -5.719960    2.465285
     31          6           0       -4.070268   -5.181018    1.973769
     32          7           0       -6.408128   -0.458216    2.149044
     33          6           0       -6.516223   -1.392151    3.189598
     34          6           0       -6.607847   -0.628573    4.447621
     35          6           0       -6.563079    0.705500    4.047506
     36          6           0       -6.477056    0.771443    2.627456
     37          6           0       -6.774199   -1.181652    5.747953
     38          6           0       -6.592723    2.090900    4.487557
     39          8           0       -6.563558    2.653614    5.583000
     40          6           0       -6.792035    3.018668    3.208750
     41          6           0       -5.783674    4.131938    3.293290
     42          8           0       -4.562165    3.897823    3.190958
     43          8           0       -6.419511    5.312472    3.242353
     44          6           0       -5.474005    6.459513    3.292025
     45          1           0       -7.826272    1.500568   -3.487821
     46          1           0       -6.504510   -4.472044   -2.257026
     47          1           0       -6.547059   -3.274260    3.907607
     48          1           0       -7.799300    4.353097    0.546924
     49          1           0       -7.593794    3.732134   -2.195269
     50          1           0       -9.713935    3.228525   -0.141672
     51          1           0       -9.656694    2.042092   -1.481585
     52          1           0       -9.902938    3.720016   -1.874675
     53          1           0       -5.406482    3.994340   -1.268848
     54          1           0       -5.098068    4.298021    0.487607
     55          1           0       -6.923086    6.261963   -0.460674
     56          1           0       -5.896687    5.945032   -1.807490
     57          1           0       -7.155937    0.814276   -5.364657
     58          1           0       -7.450750   -0.721223   -6.086699
     59          1           0       -5.769600   -0.132261   -6.022085
     60          1           0       -6.442196   -2.633821   -6.671138
     61          1           0       -5.180337   -3.988447   -6.705462
     62          1           0       -4.778322   -2.309309   -6.256229
     63          1           0       -5.918928   -5.805430   -0.164266
     64          1           0       -7.442395   -5.267217    2.337205
     65          1           0       -7.812426   -6.988078   -0.512686
     66          1           0       -8.685329   -5.423983   -0.655451
     67          1           0       -8.615672   -6.206936    0.837569
     68          1           0       -5.425484   -6.778526    2.209439
     69          1           0       -5.415375   -5.640760    3.552283
     70          1           0       -3.913685   -5.729384    1.045540
     71          1           0       -3.280506   -5.398430    2.693644
     72          1           0       -4.140495   -4.123247    1.719459
     73          1           0       -6.094822   -0.634432    6.401381
     74          1           0       -6.556370   -2.249409    5.754936
     75          1           0       -7.828581   -0.969424    5.924284
     76          1           0       -7.815725    3.389751    3.247178
     77          1           0       -5.776874    7.089135    4.128734
     78          1           0       -5.474945    6.905172    2.297142
     79          1           0       -4.446364    6.225336    3.572122
     80         12           0        6.847620   -0.401026    0.030808
     81          6           0        4.726239    1.863002   -1.772799
     82          6           0        9.204368    2.064665    0.057856
     83          6           0        8.898330   -2.511029    1.218202
     84          6           0        4.824098   -2.994573   -1.120111
     85          7           0        6.847303    1.655104   -0.784415
     86          6           0        5.962605    2.427904   -1.396329
     87          6           0        6.397947    3.910372   -1.545700
     88          6           0        7.988442    3.703041   -1.466927
     89          6           0        8.026605    2.412835   -0.650477
     90          6           0        8.627699    3.431968   -2.818670
     91          6           0        5.876691    4.807879   -0.368933
     92          6           0        5.999383    6.314656   -0.606307
     93          1           0        4.957172    7.189818   -0.076819
     94          7           0        8.564472   -0.125331    0.987345
     95          6           0        9.382454    0.944442    0.899130
     96          6           0       10.522936    0.652691    1.781372
     97          6           0       10.391969   -0.746884    2.269996
     98          6           0        9.266336   -1.198711    1.476973
     99          6           0       11.552540    1.681883    2.147557
    100          6           0       11.161558   -1.550182    3.274305
    101          8           0       11.023675   -2.821003    3.368325
    102          6           0       12.149549   -0.818652    4.080668
    103          7           0        6.989522   -2.469542   -0.122341
    104          6           0        7.946303   -3.147454    0.535629
    105          6           0        7.684973   -4.634302    0.498425
    106          6           0        6.218156   -4.797430   -0.117545
    107          6           0        5.907115   -3.316400   -0.426087
    108          6           0        8.675107   -5.463506   -0.319145
    109          6           0        5.190739   -5.610139    0.717057
    110          6           0        4.850151   -4.862661    1.986176
    111          7           0        4.990323   -0.557030   -1.061971
    112          6           0        4.332086   -1.741035   -1.460657
    113          6           0        3.168810   -1.338529   -2.277470
    114          6           0        3.244686    0.061892   -2.316820
    115          6           0        4.386829    0.500118   -1.593653
    116          6           0        2.246905   -2.223105   -2.904967
    117          6           0        2.624260    1.268546   -2.814584
    118          8           0        1.581941    1.525021   -3.415854
    119          6           0        3.626654    2.481581   -2.590663
    120          6           0        2.852511    3.617023   -1.979118
    121          8           0        2.368623    3.510063   -0.838495
    122          8           0        2.995978    4.712312   -2.747313
    123          6           0        2.255155    5.868430   -2.175994
    124          1           0       10.091755    2.684232   -0.074629
    125          1           0        9.511807   -3.276352    1.699242
    126          1           0        4.089061   -3.738972   -1.433573
    127          1           0        6.129164    4.369871   -2.489317
    128          1           0        8.465886    4.513311   -0.922074
    129          1           0        7.888609    3.305888   -3.595841
    130          1           0        9.204740    2.524955   -2.694592
    131          1           0        9.349496    4.217912   -3.058710
    132          1           0        6.550056    4.697674    0.490821
    133          1           0        4.861867    4.562255   -0.123092
    134          1           0        6.202115    6.551102   -1.657939
    135          1           0        6.881846    6.678968   -0.074747
    136          1           0       11.480465    2.568913    1.506176
    137          1           0       12.531991    1.253225    1.909220
    138          1           0       11.529274    1.942238    3.207910
    139          1           0       12.876526   -0.349016    3.422335
    140          1           0       12.532940   -1.543564    4.801362
    141          1           0       11.636978   -0.009013    4.612059
    142          1           0        7.695473   -5.053900    1.496893
    143          1           0        6.238124   -5.322271   -1.083976
    144          1           0        9.161813   -6.265382    0.267544
    145          1           0        9.416021   -4.795354   -0.737663
    146          1           0        8.259567   -5.933961   -1.208636
    147          1           0        5.624041   -6.564645    1.025821
    148          1           0        4.275211   -5.831236    0.178602
    149          1           0        5.668081   -5.134864    2.659955
    150          1           0        3.889798   -5.191283    2.378316
    151          1           0        4.898834   -3.778785    1.829672
    152          1           0        1.259341   -1.815015   -2.735590
    153          1           0        2.333580   -3.233252   -2.510185
    154          1           0        2.587822   -2.156873   -3.941622
    155          1           0        4.042541    2.746732   -3.563445
    156          1           0        1.579614    6.232186   -2.956392
    157          1           0        3.029843    6.569871   -1.813245
    158          1           0        1.558960    5.668676   -1.369860
 ---------------------------------------------------------------------

 SCF Done:  E(RCAM-B3LYP) =  -4069.81154456     A.U. after   19 cycles

 Excitation energies and oscillator strengths:

 Excited State   1:      Singlet-A      1.6687 eV  743.01 nm  f=0.2187  <S**2>=0.000
     309 -> 315        0.13861
     310 -> 316        0.10167
     311 -> 313        0.55344
     312 -> 314        0.40612
 This state for optimization and/or second-order correction.
 Total Energy, E(TD-HF/TD-DFT) =  -4069.75022191
 Copying the excited state density for this state as the 1-particle RhoCI density.

 Excited State   2:      Singlet-A      1.6863 eV  735.26 nm  f=0.5547  <S**2>=0.000
     309 -> 315       -0.10422
     310 -> 316        0.14262
     311 -> 313       -0.40548
     312 -> 314        0.55251

 Excited State   3:      Singlet-A      2.1842 eV  567.65 nm  f=0.0298  <S**2>=0.000
     309 -> 313        0.59437
     310 -> 314        0.24648
     311 -> 315       -0.25098
     312 -> 316       -0.10337

 Excited State   4:      Singlet-A      2.1929 eV  565.39 nm  f=0.1570  <S**2>=0.000
     309 -> 313       -0.24465
     310 -> 314        0.59171
     311 -> 315        0.10647
     312 -> 316       -0.25742

 Excited State   5:      Singlet-A      2.6047 eV  476.01 nm  f=0.0000  <S**2>=0.000
     312 -> 313        0.70667

 The electronic state is 1-A.
 Alpha  occ. eigenvalues --  -46.87579 -46.87432 -19.26280 -19.25944 -19.19056
 Alpha  occ. eigenvalues --  -19.18643 -19.18640 -19.18487 -19.17999 -19.17836
 Alpha  occ. eigenvalues --  -14.42420 -14.42092 -14.41281 -14.41110 -14.39273
 Alpha  occ. eigenvalues --  -14.39040 -14.38518 -14.38229 -10.38994 -10.38710
 Alpha  occ. eigenvalues --  -10.35318 -10.35120 -10.34174 -10.34055 -10.31709
 Alpha  occ. eigenvalues --  -10.31372 -10.31234 -10.31054 -10.30948 -10.30545
 Alpha  occ. eigenvalues --  -10.30319 -10.30283 -10.30217 -10.30166 -10.30064
 Alpha  occ. eigenvalues --  -10.29878 -10.29818 -10.29602 -10.29359 -10.29324
 Alpha  occ. eigenvalues --  -10.29288 -10.28904 -10.28649 -10.28582 -10.28386
 Alpha  occ. eigenvalues --  -10.28328 -10.28188 -10.28076 -10.28006 -10.27926
 Alpha  occ. eigenvalues --  -10.27771 -10.27595 -10.27447 -10.27442 -10.27407
 Alpha  occ. eigenvalues --  -10.27395 -10.27389 -10.27376 -10.27304 -10.27233
 Alpha  occ. eigenvalues --  -10.27233 -10.27186 -10.27104 -10.27053 -10.26986
 Alpha  occ. eigenvalues --  -10.26817 -10.26605 -10.26343 -10.26285 -10.26067
 Alpha  occ. eigenvalues --  -10.26054 -10.25978 -10.25951 -10.25931 -10.25854
 Alpha  occ. eigenvalues --  -10.25776 -10.25688 -10.25549 -10.25337 -10.25201
 Alpha  occ. eigenvalues --  -10.24798 -10.24635 -10.24614 -10.24487 -10.24458
 Alpha  occ. eigenvalues --  -10.24455  -3.16328  -3.16173  -1.91210  -1.91054
 Alpha  occ. eigenvalues --   -1.90799  -1.90642  -1.90636  -1.90484  -1.16568
 Alpha  occ. eigenvalues --   -1.16286  -1.08604  -1.08295  -1.06892  -1.06891
 Alpha  occ. eigenvalues --   -1.06849  -1.06272  -1.04418  -1.04224  -1.03585
 Alpha  occ. eigenvalues --   -1.03419  -1.02961  -1.02884  -1.02064  -1.02033
 Alpha  occ. eigenvalues --   -0.91913  -0.91625  -0.89416  -0.89218  -0.89081
 Alpha  occ. eigenvalues --   -0.88834  -0.88144  -0.87992  -0.87718  -0.87608
 Alpha  occ. eigenvalues --   -0.87539  -0.87323  -0.87045  -0.86920  -0.84927
 Alpha  occ. eigenvalues --   -0.84633  -0.83800  -0.83656  -0.82857  -0.82638
 Alpha  occ. eigenvalues --   -0.82581  -0.82309  -0.81528  -0.81254  -0.80371
 Alpha  occ. eigenvalues --   -0.80257  -0.78561  -0.78450  -0.77071  -0.76896
 Alpha  occ. eigenvalues --   -0.76829  -0.76607  -0.75772  -0.75591  -0.74733
 Alpha  occ. eigenvalues --   -0.74605  -0.72624  -0.72441  -0.71511  -0.71348
 Alpha  occ. eigenvalues --   -0.69677  -0.69636  -0.68755  -0.68531  -0.67528
 Alpha  occ. eigenvalues --   -0.67303  -0.67124  -0.66858  -0.65199  -0.64935
 Alpha  occ. eigenvalues --   -0.64695  -0.64581  -0.64519  -0.64293  -0.64128
 Alpha  occ. eigenvalues --   -0.63962  -0.62207  -0.61967  -0.60265  -0.60105
 Alpha  occ. eigenvalues --   -0.59725  -0.59453  -0.58918  -0.58655  -0.58351
 Alpha  occ. eigenvalues --   -0.58170  -0.57480  -0.57242  -0.57162  -0.56987
 Alpha  occ. eigenvalues --   -0.56130  -0.55973  -0.55817  -0.55641  -0.55381
 Alpha  occ. eigenvalues --   -0.55187  -0.55174  -0.55040  -0.54412  -0.54213
 Alpha  occ. eigenvalues --   -0.53841  -0.53540  -0.53154  -0.53068  -0.52970
 Alpha  occ. eigenvalues --   -0.52875  -0.52822  -0.52596  -0.52577  -0.52409
 Alpha  occ. eigenvalues --   -0.52319  -0.52166  -0.51809  -0.51597  -0.51585
 Alpha  occ. eigenvalues --   -0.51260  -0.51132  -0.50871  -0.50402  -0.50221
 Alpha  occ. eigenvalues --   -0.49908  -0.49795  -0.49742  -0.49577  -0.49414
 Alpha  occ. eigenvalues --   -0.49174  -0.49129  -0.49042  -0.48875  -0.48765
 Alpha  occ. eigenvalues --   -0.48487  -0.48308  -0.48269  -0.48269  -0.48158
 Alpha  occ. eigenvalues --   -0.48112  -0.47524  -0.47364  -0.47046  -0.46968
 Alpha  occ. eigenvalues --   -0.46634  -0.46482  -0.46475  -0.46206  -0.46194
 Alpha  occ. eigenvalues --   -0.46027  -0.46010  -0.45843  -0.45753  -0.45501
 Alpha  occ. eigenvalues --   -0.45136  -0.44911  -0.44445  -0.44405  -0.44251
 Alpha  occ. eigenvalues --   -0.44179  -0.44062  -0.44002  -0.43869  -0.43830
 Alpha  occ. eigenvalues --   -0.43758  -0.43683  -0.43484  -0.43314  -0.43168
 Alpha  occ. eigenvalues --   -0.43054  -0.42858  -0.42830  -0.42701  -0.42476
 Alpha  occ. eigenvalues --   -0.42393  -0.42342  -0.41886  -0.41702  -0.41602
 Alpha  occ. eigenvalues --   -0.41384  -0.41373  -0.41193  -0.40921  -0.40815
 Alpha  occ. eigenvalues --   -0.40648  -0.40624  -0.40545  -0.40486  -0.40419
 Alpha  occ. eigenvalues --   -0.40272  -0.40151  -0.39855  -0.39343  -0.39175
 Alpha  occ. eigenvalues --   -0.38275  -0.38171  -0.37577  -0.37391  -0.37189
 Alpha  occ. eigenvalues --   -0.37123  -0.37008  -0.36903  -0.36688  -0.36377
 Alpha  occ. eigenvalues --   -0.36138  -0.35860  -0.34175  -0.33938  -0.33759
 Alpha  occ. eigenvalues --   -0.33395  -0.33096  -0.32838  -0.31199  -0.31019
 Alpha  occ. eigenvalues --   -0.30896  -0.30693  -0.29903  -0.29696  -0.29251
 Alpha  occ. eigenvalues --   -0.29136  -0.29095  -0.28973  -0.23958  -0.23730
 Alpha  occ. eigenvalues --   -0.21040  -0.20781
 Alpha virt. eigenvalues --   -0.08716  -0.08425  -0.01606  -0.01406   0.00045
 Alpha virt. eigenvalues --    0.00291   0.02276   0.02534   0.03347   0.03609
 Alpha virt. eigenvalues --    0.04804   0.05063   0.05253   0.05462   0.06255

 Mulliken charges:
               1
     1  Mg   0.841452
     2  C   -0.001904
     3  C   -0.092916
     4  C   -0.046366
     5  C   -0.064452
     6  N   -0.256685
     7  C   -0.051921
     8  C   -0.014468
     9  C   -0.087294
    10  C    0.047126
    11  C    0.104982
    12  C    0.053177
    13  C   -0.071124
    14  H    0.034869
    15  N   -0.433024
    16  C    0.169613
    17  C   -0.176090
    18  C   -0.003721
    19  C    0.149119
    20  C    0.110195
    21  C    0.012546
    22  O   -0.250807
    23  C    0.061930
    24  N   -0.341159
    25  C    0.041300
    26  C   -0.027982
    27  C   -0.023794
    28  C    0.074816
    29  C    0.076450
    30  C    0.035362
    31  C   -0.004450
    32  N   -0.310413
    33  C    0.080575
    34  C   -0.169990
    35  C    0.008089
    36  C    0.083572
    37  C    0.127333
    38  C    0.046314
    39  O   -0.189273
    40  C   -0.005581
    41  C    0.212296
    42  O   -0.255017
    43  O   -0.305293
    44  C    0.157929
    45  H   -0.018085
    46  H   -0.017688
    47  H   -0.042348
    48  H    0.000113
    49  H   -0.003833
    50  H    0.025034
    51  H    0.016100
    52  H    0.016001
    53  H    0.013760
    54  H    0.045786
    55  H    0.016721
    56  H    0.017862
    57  H    0.005745
    58  H    0.025745
    59  H    0.041653
    60  H    0.036790
    61  H    0.034617
    62  H    0.033785
    63  H    0.015847
    64  H    0.008862
    65  H    0.022449
    66  H    0.012498
    67  H    0.004224
    68  H    0.005349
    69  H    0.004409
    70  H    0.007842
    71  H    0.017223
    72  H    0.030570
    73  H    0.047353
    74  H    0.008551
    75  H    0.045289
    76  H    0.034369
    77  H    0.041851
    78  H    0.046015
    79  H    0.054216
    80  Mg   0.838624
    81  C   -0.016433
    82  C   -0.087804
    83  C   -0.045505
    84  C   -0.064876
    85  N   -0.254557
    86  C   -0.049802
    87  C   -0.015192
    88  C   -0.090505
    89  C    0.045880
    90  C    0.114464
    91  C    0.062484
    92  C   -0.077873
    93  H    0.035120
    94  N   -0.423446
    95  C    0.163047
    96  C   -0.174671
    97  C   -0.007779
    98  C    0.152199
    99  C    0.099423
   100  C    0.015640
   101  O   -0.253261
   102  C    0.061147
   103  N   -0.350104
   104  C    0.037520
   105  C   -0.019782
   106  C   -0.034835
   107  C    0.088962
   108  C    0.073726
   109  C    0.034692
   110  C   -0.007652
   111  N   -0.324191
   112  C    0.078693
   113  C   -0.162669
   114  C    0.001946
   115  C    0.096815
   116  C    0.131277
   117  C    0.043058
   118  O   -0.189177
   119  C    0.000720
   120  C    0.210656
   121  O   -0.248918
   122  O   -0.306223
   123  C    0.151969
   124  H   -0.019882
   125  H   -0.015663
   126  H   -0.040302
   127  H   -0.001089
   128  H   -0.004348
   129  H    0.022138
   130  H    0.014356
   131  H    0.016025
   132  H    0.014233
   133  H    0.038493
   134  H    0.020214
   135  H    0.019533
   136  H    0.008654
   137  H    0.025934
   138  H    0.039926
   139  H    0.038090
   140  H    0.036331
   141  H    0.034109
   142  H    0.014441
   143  H    0.012284
   144  H    0.025025
   145  H    0.011483
   146  H    0.005530
   147  H    0.006010
   148  H    0.003810
   149  H    0.010820
   150  H    0.018003
   151  H    0.030572
   152  H    0.046161
   153  H    0.009206
   154  H    0.046198
   155  H    0.034251
   156  H    0.042324
   157  H    0.049401
   158  H    0.054927
 Sum of Mulliken charges =  -0.00000

 Dipole moment (field-independent basis, Debye):
    X=              2.1429    Y=              2.7246    Z=             -4.2380  Tot=              5.4751
 Quadrupole moment (field-independent basis, Debye-Ang):
   XX=           -451.6753   YY=           -466.5065   ZZ=           -525.8941
   XY=             27.4063   XZ=             16.0363   YZ=            -26.2291

 Normal termination of Gaussian 16 at Sat Sep 11 09:37:50 2021.
