 Gaussian 16, Revision A.03,
 Gaussian 16:  ES64L-G16RevA.03 25-Dec-2016

 -----------------------------------
 #p cam-b3lyp/Def2SVP td=(nstates=5)
 -----------------------------------

 --------------------------------
 TDDFT excited states in gaussian
 --------------------------------
 Symbolic Z-matrix:
 Charge =  0 Multiplicity = 1

                         Standard orientation:
 ---------------------------------------------------------------------
 Center     Atomic      Atomic             Coordinates (Angstroms)
 Number     Number       Type             X           Y           Z
 ---------------------------------------------------------------------
      1         12           0       -5.177049    0.525024   -0.710654
      2          6           0       -5.509535   -2.629693    0.947484
      3          6           0       -6.454964    1.970652    2.103624
      4          6           0       -5.318766    3.259260   -2.310808
      5          6           0       -5.012869   -1.237118   -3.712913
      6          7           0       -5.856620   -0.326955    1.216250
      7          6           0       -5.875874   -1.545267    1.747772
      8          6           0       -6.250052   -1.553662    3.260152
      9          6           0       -7.053835   -0.178419    3.328243
     10          6           0       -6.392636    0.546995    2.169574
     11          6           0       -8.542170   -0.327167    3.029519
     12          6           0       -4.987070   -1.525469    4.185253
     13          6           0       -5.247629   -1.858996    5.657063
     14          1           0       -4.237531   -2.600874    6.396431
     15          7           0       -5.328372    2.384099   -0.059661
     16          6           0       -5.861076    2.788823    1.118351
     17          6           0       -5.740764    4.262568    1.135146
     18          6           0       -5.268222    4.695872   -0.209118
     19          6           0       -5.311871    3.449973   -0.931067
     20          6           0       -6.012138    5.096491    2.349510
     21          6           0       -4.854557    6.024235   -0.759087
     22          8           0       -4.701067    6.223474   -2.012609
     23          6           0       -4.717839    7.123969    0.212990
     24          7           0       -5.388119    0.974465   -2.738236
     25          6           0       -5.360735    2.239729   -3.171065
     26          6           0       -5.244674    2.303294   -4.665196
     27          6           0       -4.952431    0.810145   -5.149812
     28          6           0       -5.037499    0.095993   -3.778309
     29          6           0       -6.470763    2.850497   -5.409028
     30          6           0       -3.690140    0.587689   -6.020187
     31          6           0       -2.447439    0.836566   -5.195048
     32          7           0       -5.067879   -1.561516   -1.298425
     33          6           0       -5.030344   -2.068432   -2.605445
     34          6           0       -5.070089   -3.538585   -2.499908
     35          6           0       -5.145197   -3.785985   -1.130603
     36          6           0       -5.178418   -2.548304   -0.426804
     37          6           0       -5.094504   -4.452028   -3.590532
     38          6           0       -5.229958   -4.807646   -0.099642
     39          8           0       -5.149513   -6.036829   -0.088216
     40          6           0       -5.592036   -4.098853    1.279611
     41          6           0       -4.655236   -4.636727    2.326704
     42          8           0       -3.433246   -4.387792    2.280455
     43          8           0       -5.369067   -5.154001    3.338345
     44          6           0       -4.499803   -5.678822    4.425128
     45          1           0       -7.061001    2.506958    2.836451
     46          1           0       -5.255967    4.177774   -2.898027
     47          1           0       -4.879860   -1.854686   -4.603065
     48          1           0       -6.895810   -2.377730    3.564018
     49          1           0       -6.871769    0.353559    4.261824
     50          1           0       -8.781931   -1.335348    2.691871
     51          1           0       -8.755287    0.398142    2.244025
     52          1           0       -9.141790   -0.023851    3.888141
     53          1           0       -4.638789   -0.497630    4.286784
     54          1           0       -4.210360   -2.185822    3.797978
     55          1           0       -6.230583   -2.310143    5.795537
     56          1           0       -5.297532   -0.924164    6.215452
     57          1           0       -6.500615    4.517285    3.132105
     58          1           0       -6.751455    5.844355    2.063470
     59          1           0       -5.112766    5.590581    2.717394
     60          1           0       -5.670184    7.275144    0.721650
     61          1           0       -4.329186    7.973760   -0.347058
     62          1           0       -4.003122    6.828858    0.981780
     63          1           0       -4.417532    2.944885   -4.966234
     64          1           0       -5.766390    0.409736   -5.754640
     65          1           0       -6.251408    3.711728   -6.040588
     66          1           0       -7.233547    3.092106   -4.669383
     67          1           0       -6.992642    2.121446   -6.028337
     68          1           0       -3.671691    1.294529   -6.849031
     69          1           0       -3.627926   -0.416640   -6.439358
     70          1           0       -2.330602    1.918249   -5.251111
     71          1           0       -1.589685    0.327842   -5.636260
     72          1           0       -2.607070    0.579920   -4.147605
     73          1           0       -4.401978   -5.253276   -3.332894
     74          1           0       -4.807350   -3.964470   -4.521893
     75          1           0       -6.142873   -4.749835   -3.581072
     76          1           0       -6.631400   -4.344709    1.495018
     77          1           0       -4.774834   -6.722099    4.580578
     78          1           0       -4.610119   -4.995574    5.267392
     79          1           0       -3.439805   -5.778445    4.188871
     80         12           0        5.325327    0.793043    0.628312
     81          6           0        5.467640   -2.062715   -1.540427
     82          6           0        4.185772   -1.302410    3.066561
     83          6           0        4.761218    3.348491    2.422442
     84          6           0        5.366550    2.790040   -2.227570
     85          7           0        4.920964   -1.381489    0.640419
     86          6           0        5.070653   -2.374378   -0.223349
     87          6           0        4.856050   -3.788811    0.379063
     88          6           0        3.921607   -3.382326    1.620215
     89          6           0        4.390880   -1.942441    1.818209
     90          6           0        2.441413   -3.359342    1.276944
     91          6           0        6.198310   -4.443280    0.860770
     92          6           0        6.108746   -5.938576    1.173507
     93          1           0        7.260162   -6.783550    0.868981
     94          7           0        5.055867    0.952233    2.588057
     95          6           0        4.608255   -0.004330    3.428246
     96          6           0        4.568534    0.617264    4.760992
     97          6           0        4.872095    2.066520    4.611886
     98          6           0        4.888041    2.185268    3.167684
     99          6           0        4.342724   -0.169457    6.019371
    100          6           0        5.096590    3.166488    5.604798
    101          8           0        5.110019    4.398880    5.252851
    102          6           0        5.207049    2.764538    7.014664
    103          7           0        4.883431    2.771134    0.165437
    104          6           0        4.736517    3.691657    1.134444
    105          6           0        4.698121    5.087503    0.559517
    106          6           0        5.094153    4.928375   -0.981721
    107          6           0        5.211159    3.390105   -1.055419
    108          6           0        3.358183    5.814970    0.667904
    109          6           0        6.283527    5.785555   -1.494862
    110          6           0        7.570567    5.318745   -0.853758
    111          7           0        5.587591    0.470035   -1.491821
    112          6           0        5.543269    1.442554   -2.514719
    113          6           0        5.660759    0.726567   -3.801570
    114          6           0        5.742785   -0.625568   -3.436179
    115          6           0        5.660485   -0.745476   -2.022549
    116          6           0        5.632536    1.325646   -5.092470
    117          6           0        5.869597   -1.979521   -3.925489
    118          8           0        6.065302   -2.490124   -5.027633
    119          6           0        5.569927   -2.980016   -2.727323
    120          6           0        6.651279   -4.025481   -2.713691
    121          8           0        7.828162   -3.714239   -2.459394
    122          8           0        6.086550   -5.244511   -2.787497
    123          6           0        7.118376   -6.315348   -2.766152
    124          1           0        3.609850   -1.826440    3.829842
    125          1           0        4.675751    4.271686    3.000265
    126          1           0        5.485906    3.348905   -3.158206
    127          1           0        4.333762   -4.483558   -0.267707
    128          1           0        4.148437   -3.981440    2.498267
    129          1           0        2.270456   -3.505682    0.220773
    130          1           0        2.082580   -2.386659    1.587084
    131          1           0        1.901449   -4.088571    1.887675
    132          1           0        6.447256   -4.057401    1.857698
    133          1           0        6.983422   -4.268954    0.150957
    134          1           0        5.188176   -6.387379    0.780969
    135          1           0        6.026799   -6.062380    2.256085
    136          1           0        3.985422   -1.183422    5.801190
    137          1           0        3.508435    0.304729    6.547559
    138          1           0        5.216852   -0.177026    6.673961
    139          1           0        4.300411    2.244039    7.313893
    140          1           0        5.454523    3.677239    7.560215
    141          1           0        6.028636    2.045874    7.110227
    142          1           0        5.425827    5.725956    1.045229
    143          1           0        4.265511    5.212722   -1.646804
    144          1           0        3.428797    6.783016    1.198910
    145          1           0        2.653387    5.160218    1.162980
    146          1           0        2.862261    6.013219   -0.280765
    147          1           0        6.151807    6.830021   -1.201791
    148          1           0        6.396573    5.765575   -2.573666
    149          1           0        7.567064    5.834865    0.110977
    150          1           0        8.427497    5.613644   -1.456044
    151          1           0        7.541488    4.241753   -0.651529
    152          1           0        6.415441    0.854324   -5.671611
    153          1           0        5.773809    2.402861   -5.034029
    154          1           0        4.619852    1.060986   -5.408211
    155          1           0        4.584037   -3.413001   -2.900878
    156          1           0        6.961745   -6.927805   -3.659483
    157          1           0        7.008488   -6.816603   -1.786138
    158          1           0        8.152619   -6.017385   -2.892686
 ---------------------------------------------------------------------

 SCF Done:  E(RCAM-B3LYP) =  -4069.81228658     A.U. after   19 cycles

 Excitation energies and oscillator strengths:

 Excited State   1:      Singlet-A      1.6673 eV  743.63 nm  f=0.2017  <S**2>=0.000
     309 -> 315       -0.10095
     310 -> 316        0.13835
     311 -> 313       -0.40223
     312 -> 314        0.55629
 This state for optimization and/or second-order correction.
 Total Energy, E(TD-HF/TD-DFT) =  -4069.75101517
 Copying the excited state density for this state as the 1-particle RhoCI density.

 Excited State   2:      Singlet-A      1.6838 eV  736.34 nm  f=0.5047  <S**2>=0.000
     309 -> 315        0.14336
     310 -> 316        0.10203
     311 -> 313        0.55528
     312 -> 314        0.40153

 Excited State   3:      Singlet-A      2.1834 eV  567.85 nm  f=0.0807  <S**2>=0.000
     309 -> 313       -0.16020
     310 -> 314        0.62312
     312 -> 316       -0.26132

 Excited State   4:      Singlet-A      2.1938 eV  565.15 nm  f=0.1136  <S**2>=0.000
     309 -> 313        0.62025
     310 -> 314        0.15860
     311 -> 315       -0.27044

 Excited State   5:      Singlet-A      2.4752 eV  500.91 nm  f=0.0000  <S**2>=0.000
     312 -> 313        0.70709

 The electronic state is 1-A.
 Alpha  occ. eigenvalues --  -46.87896 -46.87473 -19.26527 -19.26139 -19.19268
 Alpha  occ. eigenvalues --  -19.18963 -19.18897 -19.18607 -19.18304 -19.17880
 Alpha  occ. eigenvalues --  -14.42555 -14.42281 -14.41541 -14.41179 -14.39500
 Alpha  occ. eigenvalues --  -14.39173 -14.38690 -14.38418 -10.39315 -10.38890
 Alpha  occ. eigenvalues --  -10.35528 -10.35288 -10.34528 -10.34052 -10.31954
 Alpha  occ. eigenvalues --  -10.31549 -10.31518 -10.31070 -10.31024 -10.30804
 Alpha  occ. eigenvalues --  -10.30674 -10.30605 -10.30283 -10.30232 -10.30173
 Alpha  occ. eigenvalues --  -10.30011 -10.29974 -10.29731 -10.29727 -10.29343
 Alpha  occ. eigenvalues --  -10.29263 -10.29240 -10.28898 -10.28757 -10.28473
 Alpha  occ. eigenvalues --  -10.28405 -10.28380 -10.28245 -10.28218 -10.27891
 Alpha  occ. eigenvalues --  -10.27829 -10.27827 -10.27762 -10.27678 -10.27552
 Alpha  occ. eigenvalues --  -10.27550 -10.27518 -10.27509 -10.27446 -10.27379
 Alpha  occ. eigenvalues --  -10.27332 -10.27316 -10.27311 -10.27286 -10.27249
 Alpha  occ. eigenvalues --  -10.26900 -10.26846 -10.26471 -10.26426 -10.26347
 Alpha  occ. eigenvalues --  -10.26347 -10.26202 -10.26102 -10.26019 -10.25919
 Alpha  occ. eigenvalues --  -10.25761 -10.25719 -10.25487 -10.25429 -10.25295
 Alpha  occ. eigenvalues --  -10.24938 -10.24882 -10.24700 -10.24700 -10.24621
 Alpha  occ. eigenvalues --  -10.24523  -3.16639  -3.16223  -1.91521  -1.91107
 Alpha  occ. eigenvalues --   -1.91105  -1.90949  -1.90694  -1.90531  -1.16874
 Alpha  occ. eigenvalues --   -1.16435  -1.08771  -1.08486  -1.07297  -1.06885
 Alpha  occ. eigenvalues --   -1.06863  -1.06747  -1.04690  -1.04280  -1.03856
 Alpha  occ. eigenvalues --   -1.03474  -1.03331  -1.02864  -1.02509  -1.01930
 Alpha  occ. eigenvalues --   -0.92093  -0.91791  -0.89594  -0.89335  -0.89324
 Alpha  occ. eigenvalues --   -0.88828  -0.88358  -0.88070  -0.87966  -0.87781
 Alpha  occ. eigenvalues --   -0.87628  -0.87474  -0.87358  -0.86981  -0.85114
 Alpha  occ. eigenvalues --   -0.84739  -0.84009  -0.83735  -0.83041  -0.82814
 Alpha  occ. eigenvalues --   -0.82774  -0.82419  -0.81747  -0.81399  -0.80722
 Alpha  occ. eigenvalues --   -0.80253  -0.78887  -0.78476  -0.77320  -0.77071
 Alpha  occ. eigenvalues --   -0.76942  -0.76662  -0.76058  -0.75568  -0.74983
 Alpha  occ. eigenvalues --   -0.74639  -0.72869  -0.72514  -0.71778  -0.71358
 Alpha  occ. eigenvalues --   -0.69960  -0.69613  -0.68997  -0.68584  -0.67751
 Alpha  occ. eigenvalues --   -0.67428  -0.67357  -0.66985  -0.65422  -0.65022
 Alpha  occ. eigenvalues --   -0.64977  -0.64741  -0.64577  -0.64440  -0.64349
 Alpha  occ. eigenvalues --   -0.64041  -0.62467  -0.62086  -0.60525  -0.60194
 Alpha  occ. eigenvalues --   -0.59927  -0.59527  -0.59094  -0.58805  -0.58615
 Alpha  occ. eigenvalues --   -0.58242  -0.57744  -0.57407  -0.57362  -0.57079
 Alpha  occ. eigenvalues --   -0.56420  -0.56163  -0.56025  -0.55682  -0.55624
 Alpha  occ. eigenvalues --   -0.55448  -0.55278  -0.55085  -0.54655  -0.54318
 Alpha  occ. eigenvalues --   -0.54035  -0.53609  -0.53396  -0.53345  -0.53063
 Alpha  occ. eigenvalues --   -0.53058  -0.52943  -0.52855  -0.52702  -0.52489
 Alpha  occ. eigenvalues --   -0.52471  -0.52266  -0.52010  -0.51750  -0.51734
 Alpha  occ. eigenvalues --   -0.51426  -0.51311  -0.51013  -0.50643  -0.50345
 Alpha  occ. eigenvalues --   -0.50101  -0.50010  -0.49789  -0.49697  -0.49633
 Alpha  occ. eigenvalues --   -0.49333  -0.49276  -0.49224  -0.49002  -0.48816
 Alpha  occ. eigenvalues --   -0.48731  -0.48564  -0.48536  -0.48329  -0.48233
 Alpha  occ. eigenvalues --   -0.48182  -0.47803  -0.47396  -0.47391  -0.46952
 Alpha  occ. eigenvalues --   -0.46896  -0.46694  -0.46514  -0.46462  -0.46281
 Alpha  occ. eigenvalues --   -0.46269  -0.46102  -0.45959  -0.45920  -0.45622
 Alpha  occ. eigenvalues --   -0.45278  -0.45055  -0.44707  -0.44606  -0.44334
 Alpha  occ. eigenvalues --   -0.44247  -0.44245  -0.44201  -0.44135  -0.43928
 Alpha  occ. eigenvalues --   -0.43856  -0.43761  -0.43645  -0.43496  -0.43355
 Alpha  occ. eigenvalues --   -0.43162  -0.43136  -0.42897  -0.42735  -0.42729
 Alpha  occ. eigenvalues --   -0.42706  -0.42405  -0.42105  -0.41818  -0.41782
 Alpha  occ. eigenvalues --   -0.41663  -0.41474  -0.41249  -0.41223  -0.40986
 Alpha  occ. eigenvalues --   -0.40920  -0.40750  -0.40649  -0.40569  -0.40470
 Alpha  occ. eigenvalues --   -0.40395  -0.40286  -0.39972  -0.39489  -0.39287
 Alpha  occ. eigenvalues --   -0.38551  -0.38179  -0.37907  -0.37416  -0.37404
 Alpha  occ. eigenvalues --   -0.37396  -0.37085  -0.36961  -0.36905  -0.36580
 Alpha  occ. eigenvalues --   -0.36322  -0.36029  -0.34390  -0.34062  -0.33995
 Alpha  occ. eigenvalues --   -0.33668  -0.33294  -0.32991  -0.31428  -0.31164
 Alpha  occ. eigenvalues --   -0.31141  -0.30780  -0.30167  -0.29781  -0.29544
 Alpha  occ. eigenvalues --   -0.29425  -0.29171  -0.29042  -0.24184  -0.23846
 Alpha  occ. eigenvalues --   -0.21225  -0.20929
 Alpha virt. eigenvalues --   -0.08872  -0.08617  -0.01844  -0.01505  -0.00157
 Alpha virt. eigenvalues --    0.00139   0.02089   0.02374   0.03007   0.03400
 Alpha virt. eigenvalues --    0.04593   0.04879   0.04965   0.05365   0.05996

 Mulliken charges:
               1
     1  Mg   0.838697
     2  C   -0.003634
     3  C   -0.094175
     4  C   -0.045729
     5  C   -0.063502
     6  N   -0.256812
     7  C   -0.052686
     8  C   -0.014044
     9  C   -0.087016
    10  C    0.046240
    11  C    0.104746
    12  C    0.053554
    13  C   -0.071303
    14  H    0.034038
    15  N   -0.433208
    16  C    0.168550
    17  C   -0.176883
    18  C   -0.003762
    19  C    0.148763
    20  C    0.110038
    21  C    0.012298
    22  O   -0.249575
    23  C    0.062351
    24  N   -0.341137
    25  C    0.041416
    26  C   -0.028243
    27  C   -0.024040
    28  C    0.074731
    29  C    0.076109
    30  C    0.035002
    31  C   -0.004687
    32  N   -0.310356
    33  C    0.080154
    34  C   -0.169645
    35  C    0.008077
    36  C    0.082683
    37  C    0.127362
    38  C    0.045581
    39  O   -0.188972
    40  C   -0.005203
    41  C    0.213103
    42  O   -0.259045
    43  O   -0.304179
    44  C    0.158217
    45  H   -0.017435
    46  H   -0.016612
    47  H   -0.040892
    48  H    0.000884
    49  H   -0.004063
    50  H    0.025514
    51  H    0.016771
    52  H    0.016828
    53  H    0.011379
    54  H    0.042763
    55  H    0.018427
    56  H    0.018373
    57  H    0.005875
    58  H    0.027061
    59  H    0.040189
    60  H    0.037534
    61  H    0.035715
    62  H    0.031948
    63  H    0.016634
    64  H    0.009710
    65  H    0.023402
    66  H    0.012487
    67  H    0.005041
    68  H    0.006673
    69  H    0.005402
    70  H    0.008331
    71  H    0.019488
    72  H    0.028519
    73  H    0.047310
    74  H    0.009845
    75  H    0.046141
    76  H    0.035424
    77  H    0.043298
    78  H    0.046495
    79  H    0.051667
    80  Mg   0.837837
    81  C   -0.016843
    82  C   -0.087343
    83  C   -0.046254
    84  C   -0.065137
    85  N   -0.254865
    86  C   -0.048856
    87  C   -0.015296
    88  C   -0.090567
    89  C    0.045948
    90  C    0.114402
    91  C    0.062416
    92  C   -0.077737
    93  H    0.033634
    94  N   -0.423495
    95  C    0.162891
    96  C   -0.174655
    97  C   -0.008567
    98  C    0.152399
    99  C    0.099550
   100  C    0.015040
   101  O   -0.254020
   102  C    0.061388
   103  N   -0.350117
   104  C    0.037650
   105  C   -0.019755
   106  C   -0.034872
   107  C    0.088982
   108  C    0.073687
   109  C    0.034866
   110  C   -0.007578
   111  N   -0.324077
   112  C    0.078550
   113  C   -0.163522
   114  C    0.002216
   115  C    0.096181
   116  C    0.131573
   117  C    0.042020
   118  O   -0.188408
   119  C    0.001125
   120  C    0.211180
   121  O   -0.251455
   122  O   -0.305118
   123  C    0.152240
   124  H   -0.018335
   125  H   -0.016537
   126  H   -0.040898
   127  H    0.000714
   128  H   -0.004892
   129  H    0.023684
   130  H    0.014785
   131  H    0.022147
   132  H    0.013255
   133  H    0.036920
   134  H    0.022359
   135  H    0.019412
   136  H    0.009347
   137  H    0.025168
   138  H    0.039223
   139  H    0.037674
   140  H    0.035621
   141  H    0.033999
   142  H    0.013895
   143  H    0.012714
   144  H    0.024090
   145  H    0.011012
   146  H    0.006444
   147  H    0.005847
   148  H    0.003545
   149  H    0.010605
   150  H    0.017584
   151  H    0.030345
   152  H    0.045642
   153  H    0.008262
   154  H    0.046384
   155  H    0.036097
   156  H    0.043676
   157  H    0.049954
   158  H    0.053021
 Sum of Mulliken charges =  -0.00000

 Dipole moment (field-independent basis, Debye):
    X=             -5.0465    Y=              1.7568    Z=              5.7777  Tot=              7.8699
 Quadrupole moment (field-independent basis, Debye-Ang):
   XX=           -518.4846   YY=           -521.1774   ZZ=           -478.9951
   XY=            -16.8465   XZ=              2.2689   YZ=            -21.5855

 Normal termination of Gaussian 16 at Sat Sep  4 06:12:41 2021.
