 Gaussian 16, Revision A.03,
 Gaussian 16:  ES64L-G16RevA.03 25-Dec-2016

 -----------------------------------
 #p cam-b3lyp/Def2SVP td=(nstates=5)
 -----------------------------------

 --------------------------------
 TDDFT excited states in gaussian
 --------------------------------
 Symbolic Z-matrix:
 Charge =  0 Multiplicity = 1

                         Standard orientation:
 ---------------------------------------------------------------------
 Center     Atomic      Atomic             Coordinates (Angstroms)
 Number     Number       Type             X           Y           Z
 ---------------------------------------------------------------------
      1         12           0        7.744957    0.677471    0.010373
      2          6           0        8.101825   -2.802316   -0.748537
      3          6           0        8.696387    1.323149   -3.202250
      4          6           0        7.877372    3.750474    0.782216
      5          6           0        7.934665   -0.189335    3.380584
      6          7           0        8.300636   -0.655052   -1.667796
      7          6           0        8.339245   -1.971828   -1.846064
      8          6           0        8.581640   -2.387836   -3.327805
      9          6           0        9.301757   -1.063323   -3.846550
     10          6           0        8.704945   -0.064364   -2.870938
     11          6           0       10.816117   -1.082268   -3.665285
     12          6           0        7.243960   -2.651697   -4.097688
     13          6           0        7.394231   -3.371953   -5.440820
     14          1           0        6.365374   -4.317139   -5.847546
     15          7           0        7.739847    2.287400   -1.134595
     16          6           0        8.146632    2.365115   -2.424468
     17          6           0        7.946565    3.772784   -2.830819
     18          6           0        7.569073    4.547721   -1.616296
     19          6           0        7.741424    3.551837   -0.589705
     20          6           0        8.067251    4.245472   -4.247065
     21          6           0        7.133783    5.964365   -1.411907
     22          8           0        7.078414    6.498219   -0.251516
     23          6           0        6.855121    6.748076   -2.628947
     24          7           0        8.105559    1.675891    1.807804
     25          6           0        8.047844    3.010244    1.879598
     26          6           0        8.057707    3.481365    3.303637
     27          6           0        7.888693    2.173005    4.203294
     28          6           0        7.893405    1.110002    3.077118
     29          6           0        9.312250    4.246778    3.746665
     30          6           0        6.719817    2.165028    5.220193
     31          6           0        5.399107    2.141365    4.483807
     32          7           0        7.798740   -1.167276    1.152766
     33          6           0        7.901156   -1.293725    2.545675
     34          6           0        8.010340   -2.734018    2.841822
     35          6           0        7.980335   -3.348337    1.591399
     36          6           0        7.886462   -2.353192    0.576921
     37          6           0        8.177515   -3.309108    4.132465
     38          6           0        8.030551   -4.612542    0.875075
     39          8           0        8.015368   -5.798668    1.207291
     40          6           0        8.233969   -4.303143   -0.673705
     41          6           0        7.240593   -5.135449   -1.437761
     42          8           0        6.015561   -4.917453   -1.342165
     43          8           0        7.891285   -5.892343   -2.334563
     44          6           0        6.960980   -6.721214   -3.146757
     45          1           0        9.207437    1.652434   -4.109079
     46          1           0        7.816297    4.793467    1.099822
     47          1           0        7.912109   -0.540033    4.414003
     48          1           0        9.242021   -3.245547   -3.456855
     49          1           0        9.011704   -0.815600   -4.867444
     50          1           0       11.137727   -1.950660   -3.090496
     51          1           0       11.056965   -0.162362   -3.132126
     52          1           0       11.322422   -1.011762   -4.628333
     53          1           0        6.833681   -1.702124   -4.441260
     54          1           0        6.539990   -3.200459   -3.471100
     55          1           0        8.384346   -3.816336   -5.546201
     56          1           0        7.345701   -2.627036   -6.235140
     57          1           0        8.516803    3.486187   -4.885762
     58          1           0        8.787345    5.063499   -4.249437
     59          1           0        7.114362    4.593364   -4.646196
     60          1           0        7.750631    6.779029   -3.249955
     61          1           0        6.471212    7.708494   -2.286804
     62          1           0        6.093659    6.232108   -3.214526
     63          1           0        7.226407    4.157975    3.497456
     64          1           0        8.772007    1.978270    4.811987
     65          1           0        9.102316    5.242666    4.137612
     66          1           0        9.994434    4.295448    2.898404
     67          1           0        9.923841    3.732254    4.487366
     68          1           0        6.735018    3.072756    5.822476
     69          1           0        6.747827    1.314505    5.901424
     70          1           0        5.229771    3.192675    4.253800
     71          1           0        4.611036    1.750925    5.128565
     72          1           0        5.481415    1.609539    3.535718
     73          1           0        7.509276   -4.169260    4.172018
     74          1           0        7.945973   -2.591121    4.918904
     75          1           0        9.235609   -3.568693    4.102353
     76          1           0        9.262578   -4.570041   -0.914224
     77          1           0        7.277074   -7.758732   -3.037787
     78          1           0        6.961568   -6.294809   -4.150044
     79          1           0        5.932141   -6.780984   -2.790028
     80         12           0       -8.101995    0.086765   -0.480291
     81          6           0       -7.030292   -0.673512    2.859249
     82          6           0       -7.789107    3.385234    0.330128
     83          6           0       -9.468091    0.795757   -3.254914
     84          6           0       -9.402048   -3.142323   -0.649510
     85          7           0       -7.480693    1.099545    1.385322
     86          6           0       -7.036791    0.706949    2.569874
     87          6           0       -6.498326    1.853394    3.467246
     88          6           0       -7.311819    3.073465    2.812611
     89          6           0       -7.514026    2.507091    1.408691
     90          6           0       -8.678154    3.291718    3.440968
     91          6           0       -4.948807    2.050955    3.318997
     92          6           0       -4.308673    2.939732    4.387674
     93          1           0       -2.963003    2.612216    4.850667
     94          7           0       -8.108287    1.781638   -1.512714
     95          6           0       -7.943655    3.030328   -1.027986
     96          6           0       -8.051841    3.929449   -2.187315
     97          6           0       -8.457683    3.122809   -3.370260
     98          6           0       -8.719702    1.844351   -2.740211
     99          6           0       -7.703618    5.388140   -2.121062
    100          6           0       -8.600286    3.451517   -4.825533
    101          8           0       -9.195550    2.660221   -5.639376
    102          6           0       -8.105243    4.768638   -5.251705
    103          7           0       -9.449711   -0.934304   -1.690012
    104          6           0       -9.842471   -0.424707   -2.870686
    105          6           0      -10.591079   -1.451814   -3.686180
    106          6           0      -10.408816   -2.835837   -2.905901
    107          6           0       -9.627186   -2.330459   -1.673408
    108          6           0      -12.080274   -1.178206   -3.895561
    109          6           0       -9.825418   -4.027518   -3.713502
    110          6           0       -8.384104   -3.749585   -4.075075
    111          7           0       -8.053283   -1.676884    0.766806
    112          6           0       -8.686340   -2.914578    0.518947
    113          6           0       -8.460266   -3.764625    1.705851
    114          6           0       -7.725170   -2.947979    2.578330
    115          6           0       -7.525759   -1.671757    1.985879
    116          6           0       -8.952970   -5.087616    1.887602
    117          6           0       -7.081692   -2.871789    3.870162
    118          8           0       -6.850400   -3.673760    4.774087
    119          6           0       -6.711888   -1.353700    4.161772
    120          6           0       -5.288872   -1.307218    4.646944
    121          8           0       -4.353198   -1.627007    3.892714
    122          8           0       -5.250601   -0.689419    5.841608
    123          6           0       -3.858618   -0.608996    6.359033
    124          1           0       -7.943304    4.442377    0.548173
    125          1           0       -9.868306    0.950720   -4.259551
    126          1           0       -9.691221   -4.195322   -0.664882
    127          1           0       -6.746258    1.762453    4.517975
    128          1           0       -6.707933    3.976440    2.776160
    129          1           0       -8.925947    2.513068    4.146970
    130          1           0       -9.382501    3.295682    2.619434
    131          1           0       -8.732187    4.288013    3.889092
    132          1           0       -4.748948    2.657177    2.426076
    133          1           0       -4.445337    1.104312    3.287258
    134          1           0       -4.978326    3.106792    5.240081
    135          1           0       -4.158277    3.936368    3.965634
    136          1           0       -7.596989    5.729538   -1.084007
    137          1           0       -8.569281    5.941133   -2.501422
    138          1           0       -6.829699    5.640438   -2.725455
    139          1           0       -8.623762    5.546386   -4.696103
    140          1           0       -8.212618    4.783687   -6.338035
    141          1           0       -7.044863    4.846318   -4.986804
    142          1           0      -10.161904   -1.547279   -4.676022
    143          1           0      -11.368457   -3.222531   -2.532537
    144          1           0      -12.370413   -1.135432   -4.962369
    145          1           0      -12.330658   -0.251805   -3.395956
    146          1           0      -12.752119   -1.888136   -3.416169
    147          1           0      -10.364677   -4.146055   -4.656528
    148          1           0       -9.883363   -4.974937   -3.188098
    149          1           0       -8.469876   -3.133783   -4.975361
    150          1           0       -7.854904   -4.677852   -4.280757
    151          1           0       -7.895407   -3.141411   -3.305044
    152          1           0       -8.141683   -5.667003    2.307868
    153          1           0       -9.302789   -5.513948    0.949712
    154          1           0       -9.774472   -4.895980    2.583074
    155          1           0       -7.412362   -0.984110    4.911657
    156          1           0       -3.859595   -1.069935    7.351618
    157          1           0       -3.579330    0.459789    6.300254
    158          1           0       -3.101305   -1.196793    5.853638
 ---------------------------------------------------------------------

 SCF Done:  E(RCAM-B3LYP) =  -4069.81154740     A.U. after   19 cycles

 Excitation energies and oscillator strengths:

 Excited State   1:      Singlet-A      1.6697 eV  742.54 nm  f=0.0173  <S**2>=0.000
     309 -> 315       -0.10465
     310 -> 316        0.13682
     311 -> 314       -0.41575
     312 -> 313        0.54612
 This state for optimization and/or second-order correction.
 Total Energy, E(TD-HF/TD-DFT) =  -4069.75018562
 Copying the excited state density for this state as the 1-particle RhoCI density.

 Excited State   2:      Singlet-A      1.6853 eV  735.67 nm  f=0.7394  <S**2>=0.000
     309 -> 315        0.14060
     310 -> 316        0.10655
     311 -> 314        0.54528
     312 -> 313        0.41522

 Excited State   3:      Singlet-A      2.1853 eV  567.35 nm  f=0.0656  <S**2>=0.000
     309 -> 314        0.13979
     310 -> 313        0.62734
     312 -> 316       -0.26606

 Excited State   4:      Singlet-A      2.1922 eV  565.57 nm  f=0.1295  <S**2>=0.000
     309 -> 314        0.62543
     310 -> 313       -0.13886
     311 -> 315       -0.27149

 Excited State   5:      Singlet-A      2.8070 eV  441.69 nm  f=0.0000  <S**2>=0.000
     311 -> 313        0.70710

 The electronic state is 1-A.
 Alpha  occ. eigenvalues --  -46.87728 -46.87591 -19.26245 -19.26165 -19.19048
 Alpha  occ. eigenvalues --  -19.18896 -19.18780 -19.18665 -19.18080 -19.17968
 Alpha  occ. eigenvalues --  -14.42428 -14.42381 -14.41387 -14.41292 -14.39338
 Alpha  occ. eigenvalues --  -14.39284 -14.38528 -14.38514 -10.38982 -10.38960
 Alpha  occ. eigenvalues --  -10.35415 -10.35344 -10.34299 -10.34145 -10.31650
 Alpha  occ. eigenvalues --  -10.31553 -10.31329 -10.31235 -10.30955 -10.30840
 Alpha  occ. eigenvalues --  -10.30496 -10.30441 -10.30329 -10.30287 -10.30155
 Alpha  occ. eigenvalues --  -10.30081 -10.29858 -10.29827 -10.29565 -10.29373
 Alpha  occ. eigenvalues --  -10.29333 -10.29194 -10.28668 -10.28643 -10.28566
 Alpha  occ. eigenvalues --  -10.28441 -10.28335 -10.28295 -10.28069 -10.28041
 Alpha  occ. eigenvalues --  -10.27931 -10.27723 -10.27660 -10.27601 -10.27523
 Alpha  occ. eigenvalues --  -10.27462 -10.27462 -10.27433 -10.27414 -10.27412
 Alpha  occ. eigenvalues --  -10.27412 -10.27401 -10.27331 -10.27321 -10.27066
 Alpha  occ. eigenvalues --  -10.26966 -10.26610 -10.26603 -10.26396 -10.26383
 Alpha  occ. eigenvalues --  -10.26166 -10.26156 -10.26080 -10.25963 -10.25957
 Alpha  occ. eigenvalues --  -10.25867 -10.25773 -10.25758 -10.25406 -10.25353
 Alpha  occ. eigenvalues --  -10.24801 -10.24758 -10.24727 -10.24667 -10.24661
 Alpha  occ. eigenvalues --  -10.24624  -3.16471  -3.16340  -1.91352  -1.91222
 Alpha  occ. eigenvalues --   -1.90939  -1.90811  -1.90781  -1.90648  -1.16537
 Alpha  occ. eigenvalues --   -1.16513  -1.08572  -1.08534  -1.07183  -1.06919
 Alpha  occ. eigenvalues --   -1.06835  -1.06520  -1.04511  -1.04425  -1.03697
 Alpha  occ. eigenvalues --   -1.03595  -1.03167  -1.02971  -1.02345  -1.02043
 Alpha  occ. eigenvalues --   -0.91912  -0.91896  -0.89467  -0.89429  -0.89110
 Alpha  occ. eigenvalues --   -0.89078  -0.88237  -0.88159  -0.87794  -0.87720
 Alpha  occ. eigenvalues --   -0.87614  -0.87604  -0.87222  -0.87063  -0.84927
 Alpha  occ. eigenvalues --   -0.84908  -0.83888  -0.83814  -0.82929  -0.82881
 Alpha  occ. eigenvalues --   -0.82584  -0.82579  -0.81513  -0.81497  -0.80522
 Alpha  occ. eigenvalues --   -0.80368  -0.78737  -0.78572  -0.77155  -0.77076
 Alpha  occ. eigenvalues --   -0.76858  -0.76824  -0.75844  -0.75764  -0.74844
 Alpha  occ. eigenvalues --   -0.74740  -0.72707  -0.72630  -0.71606  -0.71514
 Alpha  occ. eigenvalues --   -0.69865  -0.69697  -0.68803  -0.68756  -0.67575
 Alpha  occ. eigenvalues --   -0.67532  -0.67147  -0.67129  -0.65209  -0.65196
 Alpha  occ. eigenvalues --   -0.64781  -0.64699  -0.64578  -0.64549  -0.64214
 Alpha  occ. eigenvalues --   -0.64139  -0.62205  -0.62193  -0.60390  -0.60280
 Alpha  occ. eigenvalues --   -0.59730  -0.59724  -0.58923  -0.58920  -0.58434
 Alpha  occ. eigenvalues --   -0.58353  -0.57494  -0.57468  -0.57245  -0.57170
 Alpha  occ. eigenvalues --   -0.56242  -0.56135  -0.55881  -0.55801  -0.55460
 Alpha  occ. eigenvalues --   -0.55384  -0.55275  -0.55176  -0.54447  -0.54411
 Alpha  occ. eigenvalues --   -0.53838  -0.53817  -0.53240  -0.53162  -0.53153
 Alpha  occ. eigenvalues --   -0.53070  -0.52837  -0.52823  -0.52701  -0.52612
 Alpha  occ. eigenvalues --   -0.52395  -0.52338  -0.51834  -0.51808  -0.51587
 Alpha  occ. eigenvalues --   -0.51543  -0.51126  -0.51122  -0.50534  -0.50425
 Alpha  occ. eigenvalues --   -0.49987  -0.49916  -0.49866  -0.49809  -0.49449
 Alpha  occ. eigenvalues --   -0.49424  -0.49142  -0.49130  -0.49031  -0.49020
 Alpha  occ. eigenvalues --   -0.48513  -0.48481  -0.48414  -0.48380  -0.48313
 Alpha  occ. eigenvalues --   -0.48278  -0.47631  -0.47527  -0.47236  -0.47055
 Alpha  occ. eigenvalues --   -0.46733  -0.46640  -0.46482  -0.46479  -0.46294
 Alpha  occ. eigenvalues --   -0.46202  -0.46090  -0.46013  -0.45742  -0.45735
 Alpha  occ. eigenvalues --   -0.45151  -0.45147  -0.44498  -0.44452  -0.44439
 Alpha  occ. eigenvalues --   -0.44407  -0.44088  -0.44059  -0.44019  -0.44012
 Alpha  occ. eigenvalues --   -0.43946  -0.43873  -0.43471  -0.43408  -0.43321
 Alpha  occ. eigenvalues --   -0.43313  -0.42958  -0.42850  -0.42817  -0.42634
 Alpha  occ. eigenvalues --   -0.42566  -0.42492  -0.41948  -0.41895  -0.41632
 Alpha  occ. eigenvalues --   -0.41595  -0.41460  -0.41387  -0.41075  -0.40922
 Alpha  occ. eigenvalues --   -0.40806  -0.40777  -0.40663  -0.40632  -0.40516
 Alpha  occ. eigenvalues --   -0.40429  -0.40153  -0.40151  -0.39402  -0.39364
 Alpha  occ. eigenvalues --   -0.38417  -0.38288  -0.37667  -0.37576  -0.37265
 Alpha  occ. eigenvalues --   -0.37200  -0.37185  -0.37125  -0.36676  -0.36618
 Alpha  occ. eigenvalues --   -0.36141  -0.36112  -0.34217  -0.34182  -0.33756
 Alpha  occ. eigenvalues --   -0.33657  -0.33115  -0.33104  -0.31309  -0.31224
 Alpha  occ. eigenvalues --   -0.30969  -0.30904  -0.29938  -0.29871  -0.29387
 Alpha  occ. eigenvalues --   -0.29262  -0.29248  -0.29139  -0.24012  -0.23966
 Alpha  occ. eigenvalues --   -0.21061  -0.21049
 Alpha virt. eigenvalues --   -0.08724  -0.08708  -0.01688  -0.01618  -0.00000
 Alpha virt. eigenvalues --    0.00033   0.02276   0.02281   0.03207   0.03310
 Alpha virt. eigenvalues --    0.04790   0.04801   0.05212   0.05269   0.06263

 Mulliken charges:
               1
     1  Mg   0.839086
     2  C   -0.002682
     3  C   -0.094057
     4  C   -0.046046
     5  C   -0.063998
     6  N   -0.256744
     7  C   -0.052311
     8  C   -0.014052
     9  C   -0.086999
    10  C    0.046324
    11  C    0.104848
    12  C    0.053470
    13  C   -0.071883
    14  H    0.036559
    15  N   -0.433048
    16  C    0.168323
    17  C   -0.177260
    18  C   -0.004256
    19  C    0.148670
    20  C    0.110216
    21  C    0.012041
    22  O   -0.250132
    23  C    0.062581
    24  N   -0.341119
    25  C    0.041185
    26  C   -0.028075
    27  C   -0.023919
    28  C    0.074877
    29  C    0.076246
    30  C    0.035155
    31  C   -0.004367
    32  N   -0.310623
    33  C    0.080715
    34  C   -0.169327
    35  C    0.008574
    36  C    0.083322
    37  C    0.127196
    38  C    0.046531
    39  O   -0.187917
    40  C   -0.005500
    41  C    0.212880
    42  O   -0.256358
    43  O   -0.305013
    44  C    0.157532
    45  H   -0.017743
    46  H   -0.017258
    47  H   -0.041509
    48  H    0.000969
    49  H   -0.004056
    50  H    0.025458
    51  H    0.016303
    52  H    0.016545
    53  H    0.011219
    54  H    0.044585
    55  H    0.017716
    56  H    0.017805
    57  H    0.005904
    58  H    0.026568
    59  H    0.039289
    60  H    0.037384
    61  H    0.035061
    62  H    0.031366
    63  H    0.016125
    64  H    0.009404
    65  H    0.022830
    66  H    0.012581
    67  H    0.004676
    68  H    0.005886
    69  H    0.004848
    70  H    0.008198
    71  H    0.017867
    72  H    0.029656
    73  H    0.048235
    74  H    0.009049
    75  H    0.045902
    76  H    0.035044
    77  H    0.042922
    78  H    0.046242
    79  H    0.054285
    80  Mg   0.838109
    81  C   -0.016541
    82  C   -0.087737
    83  C   -0.045606
    84  C   -0.064943
    85  N   -0.254550
    86  C   -0.049769
    87  C   -0.015104
    88  C   -0.090530
    89  C    0.045768
    90  C    0.114418
    91  C    0.062473
    92  C   -0.077886
    93  H    0.035149
    94  N   -0.423435
    95  C    0.162858
    96  C   -0.174741
    97  C   -0.007962
    98  C    0.152093
    99  C    0.099420
   100  C    0.015430
   101  O   -0.253426
   102  C    0.061268
   103  N   -0.350101
   104  C    0.037486
   105  C   -0.019763
   106  C   -0.034837
   107  C    0.089046
   108  C    0.073735
   109  C    0.034723
   110  C   -0.007650
   111  N   -0.324198
   112  C    0.078665
   113  C   -0.162887
   114  C    0.002370
   115  C    0.096417
   116  C    0.131399
   117  C    0.042728
   118  O   -0.187504
   119  C    0.000749
   120  C    0.211248
   121  O   -0.250226
   122  O   -0.305858
   123  C    0.151871
   124  H   -0.019807
   125  H   -0.015802
   126  H   -0.040440
   127  H   -0.000708
   128  H   -0.004308
   129  H    0.022392
   130  H    0.014300
   131  H    0.016146
   132  H    0.014036
   133  H    0.038136
   134  H    0.020520
   135  H    0.019592
   136  H    0.008776
   137  H    0.025907
   138  H    0.039591
   139  H    0.038198
   140  H    0.036050
   141  H    0.033777
   142  H    0.014268
   143  H    0.012313
   144  H    0.024933
   145  H    0.011565
   146  H    0.005563
   147  H    0.006045
   148  H    0.003730
   149  H    0.010697
   150  H    0.018097
   151  H    0.030382
   152  H    0.046470
   153  H    0.008512
   154  H    0.046791
   155  H    0.034852
   156  H    0.043754
   157  H    0.049209
   158  H    0.054292
 Sum of Mulliken charges =  -0.00000

 Dipole moment (field-independent basis, Debye):
    X=              1.0634    Y=              6.5104    Z=             -3.3358  Tot=              7.3921
 Quadrupole moment (field-independent basis, Debye-Ang):
   XX=           -466.4187   YY=           -520.3830   ZZ=           -481.7612
   XY=              0.9788   XZ=            -29.6568   YZ=             33.4219

 Normal termination of Gaussian 16 at Sat Sep 11 23:34:58 2021.
