 Gaussian 16, Revision A.03,
 Gaussian 16:  ES64L-G16RevA.03 25-Dec-2016

 -----------------------------------
 #p cam-b3lyp/Def2SVP td=(nstates=5)
 -----------------------------------

 --------------------------------
 TDDFT excited states in gaussian
 --------------------------------
 Symbolic Z-matrix:
 Charge =  0 Multiplicity = 1

                         Standard orientation:
 ---------------------------------------------------------------------
 Center     Atomic      Atomic             Coordinates (Angstroms)
 Number     Number       Type             X           Y           Z
 ---------------------------------------------------------------------
      1         12           0        8.200712    0.383462    0.338627
      2          6           0        8.339349   -2.856708   -1.176065
      3          6           0        9.134805    1.670823   -2.680186
      4          6           0        8.526701    3.198342    1.762286
      5          6           0        8.395224   -1.215396    3.429174
      6          7           0        8.648898   -0.573286   -1.606728
      7          6           0        8.606925   -1.818267   -2.070876
      8          6           0        8.799660   -1.909059   -3.614244
      9          6           0        9.587769   -0.543347   -3.850280
     10          6           0        9.067168    0.245997   -2.662073
     11          6           0       11.101198   -0.683251   -3.721972
     12          6           0        7.436111   -1.924012   -4.383817
     13          6           0        7.521290   -2.336753   -5.856142
     14          1           0        6.431923   -3.112018   -6.430243
     15          7           0        8.271317    2.204449   -0.424177
     16          6           0        8.660406    2.543223   -1.676826
     17          6           0        8.536828    4.014551   -1.758085
     18          6           0        8.225928    4.521168   -0.392517
     19          6           0        8.356433    3.315305    0.384812
     20          6           0        8.661504    4.781252   -3.038857
     21          6           0        7.878281    5.878954    0.130636
     22          8           0        7.873802    6.145446    1.381051
     23          6           0        7.625994    6.925992   -0.875895
     24          7           0        8.649402    0.939252    2.300109
     25          6           0        8.671565    2.225899    2.664846
     26          6           0        8.732899    2.369547    4.156671
     27          6           0        8.502163    0.905786    4.751582
     28          6           0        8.425491    0.119169    3.419807
     29          6           0       10.037550    2.949595    4.720091
     30          6           0        7.351965    0.736199    5.775645
     31          6           0        6.020058    0.946840    5.090992
     32          7           0        8.164816   -1.668240    1.045928
     33          6           0        8.282823   -2.104609    2.373456
     34          6           0        8.311930   -3.578474    2.342744
     35          6           0        8.224955   -3.898843    0.989361
     36          6           0        8.172939   -2.700594    0.221385
     37          6           0        8.466450   -4.432621    3.470126
     38          6           0        8.188690   -4.974384    0.011735
     39          8           0        8.109231   -6.202021    0.075651
     40          6           0        8.384117   -4.341862   -1.436558
     41          6           0        7.330853   -4.930169   -2.335356
     42          8           0        6.122547   -4.673145   -2.158432
     43          8           0        7.920801   -5.504094   -3.395127
     44          6           0        6.929888   -6.081811   -4.341958
     45          1           0        9.649165    2.164350   -3.507112
     46          1           0        8.532454    4.147134    2.302839
     47          1           0        8.369293   -1.784003    4.360553
     48          1           0        9.406144   -2.751296   -3.947766
     49          1           0        9.295823   -0.060980   -4.782917
     50          1           0       11.380655   -1.673172   -3.361583
     51          1           0       11.404653    0.081826   -3.007084
     52          1           0       11.594646   -0.429051   -4.660411
     53          1           0        7.076787   -0.901350   -4.498312
     54          1           0        6.711596   -2.558984   -3.872725
     55          1           0        8.481624   -2.799443   -6.085456
     56          1           0        7.503469   -1.433254   -6.465710
     57          1           0        9.054853    4.158789   -3.841579
     58          1           0        9.428378    5.539666   -2.882583
     59          1           0        7.724231    5.259435   -3.323797
     60          1           0        8.511293    7.045188   -1.500865
     61          1           0        7.305065    7.806307   -0.320108
     62          1           0        6.825813    6.593842   -1.537964
     63          1           0        7.946231    3.030306    4.518580
     64          1           0        9.382505    0.534191    5.276547
     65          1           0        9.893171    3.844315    5.326173
     66          1           0       10.707175    3.147717    3.883646
     67          1           0       10.630048    2.252030    5.311501
     68          1           0        7.430633    1.486277    6.561865
     69          1           0        7.341201   -0.244053    6.252342
     70          1           0        5.909110    2.030532    5.102534
     71          1           0        5.221225    0.466550    5.657030
     72          1           0        6.055085    0.633974    4.047261
     73          1           0        7.749474   -5.243059    3.339340
     74          1           0        8.290736   -3.894735    4.401472
     75          1           0        9.506774   -4.735637    3.352807
     76          1           0        9.391072   -4.603931   -1.759799
     77          1           0        7.186112   -7.133222   -4.472792
     78          1           0        6.938852   -5.444957   -5.226684
     79          1           0        5.905406   -6.163516   -3.977128
     80         12           0       -7.677921    0.769949    0.196313
     81          6           0      -10.137550   -1.843092    0.160172
     82          6           0       -9.614097    2.419500   -2.076315
     83          6           0       -5.323833    2.871271   -0.135562
     84          6           0       -5.443272   -1.542128    1.540294
     85          7           0       -9.605307    0.252923   -0.757702
     86          6           0      -10.477304   -0.737968   -0.647731
     87          6           0      -11.821754   -0.496411   -1.385081
     88          6           0      -11.309288    0.561592   -2.479104
     89          6           0      -10.121374    1.145276   -1.716966
     90          6           0      -10.788243   -0.090460   -3.749012
     91          6           0      -12.913405    0.129625   -0.447863
     92          6           0      -14.335616    0.106386   -1.012251
     93          1           0      -15.447817   -0.098402   -0.088380
     94          7           0       -7.694995    2.611424   -0.543443
     95          6           0       -8.566358    3.120313   -1.439569
     96          6           0       -8.138144    4.508106   -1.673739
     97          6           0       -6.846093    4.725739   -0.968076
     98          6           0       -6.554734    3.375692   -0.529265
     99          6           0       -8.971004    5.499487   -2.433314
    100          6           0       -6.004783    5.944648   -0.738602
    101          8           0       -4.802025    5.860529   -0.303704
    102          6           0       -6.597675    7.232938   -1.126232
    103          7           0       -5.617787    0.629154    0.437888
    104          6           0       -4.828298    1.706442    0.282689
    105          6           0       -3.427029    1.431070    0.773604
    106          6           0       -3.502262    0.016957    1.516710
    107          6           0       -4.979249   -0.337605    1.237057
    108          6           0       -2.342561    1.383131   -0.302514
    109          6           0       -2.994633   -0.035018    2.983772
    110          6           0       -3.912694    0.768636    3.876350
    111          7           0       -7.792630   -1.259147    0.929565
    112          6           0       -6.731498   -2.048524    1.424506
    113          6           0       -7.278516   -3.394275    1.693106
    114          6           0       -8.625266   -3.300249    1.311123
    115          6           0       -8.893403   -1.994351    0.818933
    116          6           0       -6.540242   -4.511034    2.176768
    117          6           0       -9.878443   -4.011882    1.202393
    118          8           0      -10.279458   -5.122622    1.547610
    119          6           0      -10.882445   -3.137490    0.334167
    120          6           0      -12.202736   -3.094835    1.053572
    121          8           0      -12.303939   -2.527696    2.155710
    122          8           0      -13.168884   -3.536752    0.227958
    123          6           0      -14.498825   -3.502868    0.892713
    124          1           0      -10.028337    2.913743   -2.955526
    125          1           0       -4.500820    3.589637   -0.126879
    126          1           0       -4.834299   -2.290546    2.051873
    127          1           0      -12.233512   -1.369651   -1.876671
    128          1           0      -12.056028    1.328727   -2.666806
    129          1           0      -10.738821   -1.165440   -3.658891
    130          1           0       -9.800282    0.321747   -3.907328
    131          1           0      -11.387553    0.224866   -4.607916
    132          1           0      -12.753415    1.213755   -0.386218
    133          1           0      -12.900092   -0.337619    0.517614
    134          1           0      -14.425347   -0.563338   -1.876168
    135          1           0      -14.565271    1.095798   -1.415152
    136          1           0       -9.789227    5.007351   -2.973429
    137          1           0       -8.334542    5.913357   -3.222931
    138          1           0       -9.330711    6.316784   -1.804600
    139          1           0       -6.847590    7.211690   -2.184317
    140          1           0       -5.882920    7.992472   -0.803553
    141          1           0       -7.540339    7.361892   -0.582737
    142          1           0       -3.111004    2.185033    1.484074
    143          1           0       -2.894249   -0.744397    1.006320
    144          1           0       -1.519318    2.100613   -0.124821
    145          1           0       -2.806165    1.566517   -1.262714
    146          1           0       -1.881942    0.407923   -0.450850
    147          1           0       -2.006703    0.425916    3.059239
    148          1           0       -2.910585   -1.042916    3.376294
    149          1           0       -3.548109    1.792169    3.747740
    150          1           0       -3.821531    0.444251    4.911007
    151          1           0       -4.945016    0.737810    3.508885
    152          1           0       -7.151682   -4.984375    2.933465
    153          1           0       -5.575510   -4.206585    2.577226
    154          1           0       -6.437810   -5.090856    1.255585
    155          1           0      -10.965115   -3.609681   -0.645515
    156          1           0      -14.914078   -4.513357    0.828222
    157          1           0      -15.062690   -2.693649    0.391746
    158          1           0      -14.520050   -3.333398    1.962892
 ---------------------------------------------------------------------

 SCF Done:  E(RCAM-B3LYP) =  -4069.81184094     A.U. after   19 cycles

 Excitation energies and oscillator strengths:

 Excited State   1:      Singlet-A      1.6694 eV  742.69 nm  f=0.0195  <S**2>=0.000
     309 -> 315       -0.10197
     310 -> 316        0.13900
     311 -> 313       -0.40465
     312 -> 314        0.55441
 This state for optimization and/or second-order correction.
 Total Energy, E(TD-HF/TD-DFT) =  -4069.75049204
 Copying the excited state density for this state as the 1-particle RhoCI density.

 Excited State   2:      Singlet-A      1.6855 eV  735.58 nm  f=0.7361  <S**2>=0.000
     309 -> 315        0.14304
     310 -> 316        0.10385
     311 -> 313        0.55358
     312 -> 314        0.40411

 Excited State   3:      Singlet-A      2.1856 eV  567.29 nm  f=0.1002  <S**2>=0.000
     310 -> 314        0.64063
     312 -> 316       -0.27201

 Excited State   4:      Singlet-A      2.1932 eV  565.31 nm  f=0.1010  <S**2>=0.000
     309 -> 313        0.63875
     311 -> 315       -0.27767

 Excited State   5:      Singlet-A      2.7678 eV  447.95 nm  f=0.0000  <S**2>=0.000
     312 -> 313        0.70696

 The electronic state is 1-A.
 Alpha  occ. eigenvalues --  -46.87810 -46.87580 -19.26304 -19.26291 -19.19099
 Alpha  occ. eigenvalues --  -19.19044 -19.18804 -19.18651 -19.18181 -19.17976
 Alpha  occ. eigenvalues --  -14.42462 -14.42420 -14.41462 -14.41272 -14.39413
 Alpha  occ. eigenvalues --  -14.39274 -14.38601 -14.38518 -10.39102 -10.39028
 Alpha  occ. eigenvalues --  -10.35436 -10.35330 -10.34402 -10.34153 -10.31704
 Alpha  occ. eigenvalues --  -10.31697 -10.31419 -10.31231 -10.30954 -10.30918
 Alpha  occ. eigenvalues --  -10.30583 -10.30519 -10.30314 -10.30279 -10.30215
 Alpha  occ. eigenvalues --  -10.30049 -10.29934 -10.29800 -10.29639 -10.29357
 Alpha  occ. eigenvalues --  -10.29322 -10.29262 -10.28761 -10.28658 -10.28608
 Alpha  occ. eigenvalues --  -10.28553 -10.28375 -10.28330 -10.28127 -10.28078
 Alpha  occ. eigenvalues --  -10.27921 -10.27802 -10.27738 -10.27593 -10.27590
 Alpha  occ. eigenvalues --  -10.27514 -10.27476 -10.27459 -10.27415 -10.27412
 Alpha  occ. eigenvalues --  -10.27406 -10.27391 -10.27390 -10.27258 -10.27172
 Alpha  occ. eigenvalues --  -10.26979 -10.26721 -10.26638 -10.26380 -10.26370
 Alpha  occ. eigenvalues --  -10.26242 -10.26207 -10.26032 -10.26003 -10.25968
 Alpha  occ. eigenvalues --  -10.25857 -10.25839 -10.25739 -10.25438 -10.25265
 Alpha  occ. eigenvalues --  -10.24843 -10.24797 -10.24793 -10.24726 -10.24618
 Alpha  occ. eigenvalues --  -10.24606  -3.16553  -3.16330  -1.91435  -1.91212
 Alpha  occ. eigenvalues --   -1.91021  -1.90864  -1.90800  -1.90637  -1.16653
 Alpha  occ. eigenvalues --   -1.16584  -1.08640  -1.08584  -1.07204  -1.06904
 Alpha  occ. eigenvalues --   -1.06884  -1.06665  -1.04593  -1.04419  -1.03772
 Alpha  occ. eigenvalues --   -1.03582  -1.03245  -1.02953  -1.02423  -1.02028
 Alpha  occ. eigenvalues --   -0.91985  -0.91910  -0.89534  -0.89396  -0.89200
 Alpha  occ. eigenvalues --   -0.89086  -0.88300  -0.88115  -0.87882  -0.87704
 Alpha  occ. eigenvalues --   -0.87684  -0.87604  -0.87272  -0.87053  -0.84992
 Alpha  occ. eigenvalues --   -0.84931  -0.83952  -0.83771  -0.82962  -0.82861
 Alpha  occ. eigenvalues --   -0.82656  -0.82584  -0.81600  -0.81524  -0.80606
 Alpha  occ. eigenvalues --   -0.80370  -0.78801  -0.78560  -0.77230  -0.77068
 Alpha  occ. eigenvalues --   -0.76948  -0.76819  -0.75935  -0.75769  -0.74909
 Alpha  occ. eigenvalues --   -0.74703  -0.72785  -0.72614  -0.71682  -0.71497
 Alpha  occ. eigenvalues --   -0.69926  -0.69646  -0.68882  -0.68758  -0.67649
 Alpha  occ. eigenvalues --   -0.67523  -0.67226  -0.67138  -0.65299  -0.65203
 Alpha  occ. eigenvalues --   -0.64867  -0.64688  -0.64633  -0.64578  -0.64283
 Alpha  occ. eigenvalues --   -0.64104  -0.62313  -0.62204  -0.60445  -0.60262
 Alpha  occ. eigenvalues --   -0.59815  -0.59727  -0.58999  -0.58909  -0.58515
 Alpha  occ. eigenvalues --   -0.58344  -0.57599  -0.57481  -0.57319  -0.57150
 Alpha  occ. eigenvalues --   -0.56318  -0.56125  -0.55993  -0.55820  -0.55522
 Alpha  occ. eigenvalues --   -0.55385  -0.55354  -0.55153  -0.54540  -0.54398
 Alpha  occ. eigenvalues --   -0.53906  -0.53848  -0.53305  -0.53227  -0.53148
 Alpha  occ. eigenvalues --   -0.53072  -0.52928  -0.52830  -0.52754  -0.52610
 Alpha  occ. eigenvalues --   -0.52459  -0.52289  -0.51928  -0.51788  -0.51623
 Alpha  occ. eigenvalues --   -0.51596  -0.51209  -0.51119  -0.50563  -0.50412
 Alpha  occ. eigenvalues --   -0.50043  -0.49918  -0.49910  -0.49769  -0.49519
 Alpha  occ. eigenvalues --   -0.49422  -0.49223  -0.49133  -0.49106  -0.49031
 Alpha  occ. eigenvalues --   -0.48605  -0.48486  -0.48470  -0.48444  -0.48276
 Alpha  occ. eigenvalues --   -0.48273  -0.47702  -0.47520  -0.47302  -0.47039
 Alpha  occ. eigenvalues --   -0.46810  -0.46623  -0.46566  -0.46486  -0.46370
 Alpha  occ. eigenvalues --   -0.46186  -0.46175  -0.45993  -0.45836  -0.45740
 Alpha  occ. eigenvalues --   -0.45212  -0.45110  -0.44590  -0.44511  -0.44442
 Alpha  occ. eigenvalues --   -0.44399  -0.44156  -0.44097  -0.44056  -0.44024
 Alpha  occ. eigenvalues --   -0.43992  -0.43873  -0.43509  -0.43477  -0.43396
 Alpha  occ. eigenvalues --   -0.43308  -0.43038  -0.42861  -0.42819  -0.42715
 Alpha  occ. eigenvalues --   -0.42674  -0.42457  -0.42027  -0.41875  -0.41715
 Alpha  occ. eigenvalues --   -0.41590  -0.41545  -0.41384  -0.41150  -0.40910
 Alpha  occ. eigenvalues --   -0.40882  -0.40817  -0.40659  -0.40625  -0.40585
 Alpha  occ. eigenvalues --   -0.40392  -0.40244  -0.40170  -0.39463  -0.39314
 Alpha  occ. eigenvalues --   -0.38482  -0.38250  -0.37761  -0.37589  -0.37333
 Alpha  occ. eigenvalues --   -0.37275  -0.37172  -0.37128  -0.36731  -0.36700
 Alpha  occ. eigenvalues --   -0.36208  -0.36129  -0.34298  -0.34172  -0.33797
 Alpha  occ. eigenvalues --   -0.33792  -0.33199  -0.33094  -0.31335  -0.31209
 Alpha  occ. eigenvalues --   -0.31046  -0.30893  -0.30042  -0.29880  -0.29455
 Alpha  occ. eigenvalues --   -0.29333  -0.29253  -0.29131  -0.24093  -0.23955
 Alpha  occ. eigenvalues --   -0.21139  -0.21035
 Alpha virt. eigenvalues --   -0.08783  -0.08713  -0.01759  -0.01601  -0.00059
 Alpha virt. eigenvalues --    0.00039   0.02189   0.02289   0.03087   0.03303
 Alpha virt. eigenvalues --    0.04706   0.04804   0.05078   0.05229   0.06164

 Mulliken charges:
               1
     1  Mg   0.838311
     2  C   -0.003062
     3  C   -0.094060
     4  C   -0.045865
     5  C   -0.064066
     6  N   -0.256795
     7  C   -0.052564
     8  C   -0.013960
     9  C   -0.087029
    10  C    0.046323
    11  C    0.104790
    12  C    0.053452
    13  C   -0.071815
    14  H    0.036045
    15  N   -0.433222
    16  C    0.168450
    17  C   -0.177028
    18  C   -0.003845
    19  C    0.148713
    20  C    0.110151
    21  C    0.012463
    22  O   -0.249423
    23  C    0.062372
    24  N   -0.341108
    25  C    0.041230
    26  C   -0.028240
    27  C   -0.023953
    28  C    0.074704
    29  C    0.076131
    30  C    0.035160
    31  C   -0.004532
    32  N   -0.310393
    33  C    0.080164
    34  C   -0.169936
    35  C    0.008332
    36  C    0.082727
    37  C    0.127362
    38  C    0.045959
    39  O   -0.188465
    40  C   -0.005277
    41  C    0.212968
    42  O   -0.257472
    43  O   -0.304714
    44  C    0.157688
    45  H   -0.017499
    46  H   -0.016664
    47  H   -0.041544
    48  H    0.000971
    49  H   -0.003978
    50  H    0.025507
    51  H    0.016492
    52  H    0.016725
    53  H    0.011204
    54  H    0.043901
    55  H    0.017947
    56  H    0.018027
    57  H    0.005855
    58  H    0.026931
    59  H    0.039875
    60  H    0.037249
    61  H    0.036051
    62  H    0.031834
    63  H    0.016644
    64  H    0.009557
    65  H    0.023373
    66  H    0.012602
    67  H    0.004803
    68  H    0.006570
    69  H    0.004710
    70  H    0.009025
    71  H    0.017626
    72  H    0.028686
    73  H    0.047408
    74  H    0.009037
    75  H    0.046112
    76  H    0.035237
    77  H    0.043071
    78  H    0.046441
    79  H    0.053544
    80  Mg   0.837763
    81  C   -0.016948
    82  C   -0.087997
    83  C   -0.045571
    84  C   -0.064551
    85  N   -0.254577
    86  C   -0.049838
    87  C   -0.015090
    88  C   -0.090475
    89  C    0.045731
    90  C    0.114437
    91  C    0.062564
    92  C   -0.077795
    93  H    0.034752
    94  N   -0.423430
    95  C    0.162864
    96  C   -0.174879
    97  C   -0.007949
    98  C    0.152072
    99  C    0.099483
   100  C    0.015388
   101  O   -0.253246
   102  C    0.061240
   103  N   -0.350073
   104  C    0.037552
   105  C   -0.019953
   106  C   -0.035106
   107  C    0.088863
   108  C    0.073379
   109  C    0.034680
   110  C   -0.007716
   111  N   -0.324164
   112  C    0.078448
   113  C   -0.162894
   114  C    0.002221
   115  C    0.096269
   116  C    0.131497
   117  C    0.042458
   118  O   -0.187844
   119  C    0.000895
   120  C    0.211234
   121  O   -0.251051
   122  O   -0.305638
   123  C    0.152072
   124  H   -0.019979
   125  H   -0.015617
   126  H   -0.039666
   127  H   -0.000735
   128  H   -0.004515
   129  H    0.022463
   130  H    0.014412
   131  H    0.016018
   132  H    0.013882
   133  H    0.037678
   134  H    0.020721
   135  H    0.019478
   136  H    0.008600
   137  H    0.025781
   138  H    0.039580
   139  H    0.037993
   140  H    0.036180
   141  H    0.033872
   142  H    0.014354
   143  H    0.013744
   144  H    0.025045
   145  H    0.011113
   146  H    0.007083
   147  H    0.006754
   148  H    0.004207
   149  H    0.010814
   150  H    0.017776
   151  H    0.029771
   152  H    0.045932
   153  H    0.009092
   154  H    0.047345
   155  H    0.034972
   156  H    0.043848
   157  H    0.049389
   158  H    0.053540
 Sum of Mulliken charges =  -0.00000

 Dipole moment (field-independent basis, Debye):
    X=              1.3705    Y=              5.5572    Z=             -6.3017  Tot=              8.5130
 Quadrupole moment (field-independent basis, Debye-Ang):
   XX=           -445.5016   YY=           -555.7072   ZZ=           -467.4737
   XY=            -24.2714   XZ=             22.8118   YZ=             -9.7978

 Normal termination of Gaussian 16 at Sun Sep 12 08:12:37 2021.
