 Gaussian 16, Revision A.03,
 Gaussian 16:  ES64L-G16RevA.03 25-Dec-2016

 -----------------------------------
 #p cam-b3lyp/Def2SVP td=(nstates=5)
 -----------------------------------

 --------------------------------
 TDDFT excited states in gaussian
 --------------------------------
 Symbolic Z-matrix:
 Charge =  0 Multiplicity = 1

                         Standard orientation:
 ---------------------------------------------------------------------
 Center     Atomic      Atomic             Coordinates (Angstroms)
 Number     Number       Type             X           Y           Z
 ---------------------------------------------------------------------
      1         12           0       -3.803715    0.373491   -0.978432
      2          6           0       -4.117496   -2.877599    0.485865
      3          6           0       -5.477033    1.593241    1.733630
      4          6           0       -3.939899    3.174785   -2.458577
      5          6           0       -3.193780   -1.216727   -4.018966
      6          7           0       -4.638337   -0.616145    0.817305
      7          6           0       -4.639132   -1.859638    1.287298
      8          6           0       -5.178377   -1.968842    2.744921
      9          6           0       -6.070681   -0.648102    2.782826
     10          6           0       -5.331911    0.174118    1.741626
     11          6           0       -7.503892   -0.867306    2.309162
     12          6           0       -4.030844   -1.915677    3.808910
     13          6           0       -4.432179   -2.340290    5.224533
     14          1           0       -3.465675   -3.059831    6.040302
     15          7           0       -4.144798    2.184036   -0.265383
     16          6           0       -4.830267    2.494954    0.861004
     17          6           0       -4.806682    3.970303    0.958315
     18          6           0       -4.215702    4.500043   -0.301928
     19          6           0       -4.099112    3.293171   -1.079903
     20          6           0       -5.264375    4.722398    2.170181
     21          6           0       -3.828714    5.877146   -0.740060
     22          8           0       -3.549358    6.150244   -1.957415
     23          6           0       -3.871598    6.930634    0.290166
     24          7           0       -3.815490    0.915303   -2.994353
     25          6           0       -3.820631    2.200917   -3.363343
     26          6           0       -3.542914    2.349161   -4.829916
     27          6           0       -3.103943    0.902914   -5.345112
     28          6           0       -3.295811    0.114290   -4.026201
     29          6           0       -4.710724    2.862297   -5.683686
     30          6           0       -1.740853    0.800039   -6.074373
     31          6           0       -0.616338    1.077260   -5.101896
     32          7           0       -3.497002   -1.669580   -1.643888
     33          6           0       -3.281701   -2.104419   -2.959652
     34          6           0       -3.239261   -3.577900   -2.926171
     35          6           0       -3.450732   -3.900508   -1.587124
     36          6           0       -3.641008   -2.705348   -0.836337
     37          6           0       -3.083645   -4.432938   -4.052727
     38          6           0       -3.584726   -4.977877   -0.620077
     39          8           0       -3.427941   -6.199217   -0.655292
     40          6           0       -4.142796   -4.364423    0.739357
     41          6           0       -3.296301   -4.900936    1.861368
     42          8           0       -2.095128   -4.579299    1.966725
     43          8           0       -4.084120   -5.511025    2.760074
     44          6           0       -3.309861   -6.040526    3.914330
     45          1           0       -6.193950    2.054351    2.415795
     46          1           0       -3.870614    4.124843   -2.992457
     47          1           0       -2.923248   -1.778127   -4.915122
     48          1           0       -5.800199   -2.843819    2.935122
     49          1           0       -6.028140   -0.155983    3.754284
     50          1           0       -7.639797   -1.868685    1.900884
     51          1           0       -7.673816   -0.115536    1.538149
     52          1           0       -8.213638   -0.644677    3.106328
     53          1           0       -3.762233   -0.876045    3.996191
     54          1           0       -3.175314   -2.508601    3.483586
     55          1           0       -5.393706   -2.854446    5.228901
     56          1           0       -4.603491   -1.440419    5.815367
     57          1           0       -5.799215    4.075645    2.864589
     58          1           0       -6.013290    5.439944    1.835573
     59          1           0       -4.444957    5.248028    2.660690
     60          1           0       -4.882421    6.999379    0.692733
     61          1           0       -3.477812    7.829703   -0.182547
     62          1           0       -3.229763    6.637781    1.121571
     63          1           0       -2.729905    3.052618   -5.004815
     64          1           0       -3.818192    0.488033   -6.056727
     65          1           0       -4.477587    3.766668   -6.246238
     66          1           0       -5.565082    3.020144   -5.026079
     67          1           0       -5.112768    2.137519   -6.391128
     68          1           0       -1.675118    1.549126   -6.862722
     69          1           0       -1.568436   -0.175679   -6.528792
     70          1           0       -0.563103    2.165355   -5.095074
     71          1           0        0.315926    0.643034   -5.464584
     72          1           0       -0.875140    0.757349   -4.092359
     73          1           0       -2.374566   -5.204942   -3.754085
     74          1           0       -2.726030   -3.881480   -4.921984
     75          1           0       -4.105419   -4.791280   -4.176925
     76          1           0       -5.181921   -4.681219    0.822925
     77          1           0       -3.533512   -7.104727    3.989762
     78          1           0       -3.556728   -5.409825    4.768541
     79          1           0       -2.225945   -6.065863    3.796759
     80         12           0        3.884517    0.978094    0.931262
     81          6           0        4.417504   -1.889450   -1.159722
     82          6           0        2.571299   -1.146263    3.254435
     83          6           0        2.991430    3.520652    2.606131
     84          6           0        4.161738    2.944696   -1.932536
     85          7           0        3.587586   -1.213732    0.931610
     86          6           0        3.885114   -2.206846    0.107262
     87          6           0        3.670617   -3.623881    0.703544
     88          6           0        2.579074   -3.251804    1.821117
     89          6           0        2.951551   -1.788219    2.048862
     90          6           0        1.149704   -3.306623    1.308060
     91          6           0        4.977666   -4.205181    1.348311
     92          6           0        4.924940   -5.699745    1.672752
     93          1           0        6.143703   -6.489073    1.517642
     94          7           0        3.380764    1.144041    2.843653
     95          6           0        2.885140    0.175068    3.641616
     96          6           0        2.660001    0.807769    4.950497
     97          6           0        2.908147    2.268784    4.814154
     98          6           0        3.086751    2.373098    3.379815
     99          6           0        2.327338    0.023916    6.186746
    100          6           0        2.961529    3.388933    5.808438
    101          8           0        2.956079    4.616708    5.440501
    102          6           0        2.926083    3.007779    7.227937
    103          7           0        3.404118    2.926596    0.388229
    104          6           0        3.100585    3.848678    1.318578
    105          6           0        3.061809    5.234760    0.720533
    106          6           0        3.642277    5.079594   -0.761554
    107          6           0        3.841648    3.548433   -0.796225
    108          6           0        1.684645    5.895242    0.660875
    109          6           0        4.840368    5.989899   -1.147019
    110          6           0        6.064928    5.594914   -0.353401
    111          7           0        4.407812    0.646510   -1.138592
    112          6           0        4.435997    1.604850   -2.175354
    113          6           0        4.737502    0.882241   -3.428097
    114          6           0        4.841897   -0.460185   -3.033774
    115          6           0        4.601097   -0.569302   -1.637500
    116          6           0        4.831083    1.465634   -4.723088
    117          6           0        5.090550   -1.811121   -3.483058
    118          8           0        5.438114   -2.322765   -4.546622
    119          6           0        4.702039   -2.812808   -2.311706
    120          6           0        5.823891   -3.802569   -2.155720
    121          8           0        6.946547   -3.430084   -1.771644
    122          8           0        5.331516   -5.049069   -2.274797
    123          6           0        6.404578   -6.066565   -2.116494
    124          1           0        1.936369   -1.690503    3.954120
    125          1           0        2.794376    4.444387    3.155093
    126          1           0        4.361616    3.499093   -2.851973
    127          1           0        3.261742   -4.350654    0.011886
    128          1           0        2.730698   -3.829584    2.729151
    129          1           0        1.110482   -3.472375    0.241691
    130          1           0        0.710316   -2.349967    1.558651
    131          1           0        0.578202   -4.055577    1.863740
    132          1           0        5.089524   -3.796918    2.361006
    133          1           0        5.830866   -3.999143    0.731682
    134          1           0        4.079374   -6.198190    1.183355
    135          1           0        4.723317   -5.816182    2.740366
    136          1           0        2.047616   -1.008912    5.945051
    137          1           0        1.415075    0.461179    6.606788
    138          1           0        3.118428    0.067004    6.938408
    139          1           0        2.017067    2.445640    7.428319
    140          1           0        3.063571    3.937386    7.783645
    141          1           0        3.764822    2.332243    7.429835
    142          1           0        3.695982    5.913925    1.277004
    143          1           0        2.884092    5.315092   -1.522818
    144          1           0        1.645699    6.871110    1.180727
    145          1           0        0.959513    5.211203    1.081370
    146          1           0        1.293795    6.058463   -0.342026
    147          1           0        4.624782    7.029453   -0.888186
    148          1           0        5.079391    5.964350   -2.204944
    149          1           0        5.923789    6.120257    0.595907
    150          1           0        6.970959    5.926087   -0.856864
    151          1           0        6.064787    4.519988   -0.138486
    152          1           0        5.698189    1.028130   -5.199747
    153          1           0        4.912082    2.549132   -4.666125
    154          1           0        3.876221    1.147275   -5.149888
    155          1           0        3.765341   -3.296459   -2.591452
    156          1           0        6.383206   -6.695401   -3.011923
    157          1           0        6.205540   -6.562433   -1.147868
    158          1           0        7.430825   -5.718476   -2.126968
 ---------------------------------------------------------------------

 SCF Done:  E(RCAM-B3LYP) =  -4069.81527711     A.U. after   18 cycles

 Excitation energies and oscillator strengths:

 Excited State   1:      Singlet-A      1.6530 eV  750.07 nm  f=0.1634  <S**2>=0.000
     309 -> 315       -0.10493
     310 -> 316        0.12961
     311 -> 313       -0.42797
     312 -> 314        0.53761
 This state for optimization and/or second-order correction.
 Total Energy, E(TD-HF/TD-DFT) =  -4069.75453140
 Copying the excited state density for this state as the 1-particle RhoCI density.

 Excited State   2:      Singlet-A      1.6864 eV  735.19 nm  f=0.4947  <S**2>=0.000
     309 -> 315        0.13908
     310 -> 316        0.10739
     311 -> 313        0.53561
     312 -> 314        0.42641

 Excited State   3:      Singlet-A      2.1790 eV  568.98 nm  f=0.0721  <S**2>=0.000
     309 -> 313       -0.22816
     310 -> 314        0.60310
     312 -> 316       -0.24639

 Excited State   4:      Singlet-A      2.1832 eV  567.90 nm  f=0.0001  <S**2>=0.000
     312 -> 313        0.70682

 Excited State   5:      Singlet-A      2.1962 eV  564.55 nm  f=0.1176  <S**2>=0.000
     309 -> 313        0.59846
     310 -> 314        0.22465
     311 -> 315       -0.26266

 The electronic state is 1-A.
 Alpha  occ. eigenvalues --  -46.87996 -46.87290 -19.26958 -19.25954 -19.19877
 Alpha  occ. eigenvalues --  -19.18982 -19.18784 -19.18523 -19.18479 -19.17735
 Alpha  occ. eigenvalues --  -14.42665 -14.42032 -14.41639 -14.41005 -14.39597
 Alpha  occ. eigenvalues --  -14.39002 -14.38800 -14.38244 -10.39819 -10.38709
 Alpha  occ. eigenvalues --  -10.35609 -10.35208 -10.34717 -10.33901 -10.32323
 Alpha  occ. eigenvalues --  -10.31646 -10.31377 -10.31157 -10.30789 -10.30788
 Alpha  occ. eigenvalues --  -10.30709 -10.30555 -10.30357 -10.30112 -10.30084
 Alpha  occ. eigenvalues --  -10.29999 -10.29832 -10.29806 -10.29577 -10.29428
 Alpha  occ. eigenvalues --  -10.29100 -10.29092 -10.29073 -10.28997 -10.28598
 Alpha  occ. eigenvalues --  -10.28388 -10.28092 -10.28035 -10.27998 -10.27979
 Alpha  occ. eigenvalues --  -10.27928 -10.27776 -10.27668 -10.27660 -10.27603
 Alpha  occ. eigenvalues --  -10.27600 -10.27576 -10.27568 -10.27246 -10.27230
 Alpha  occ. eigenvalues --  -10.27195 -10.27180 -10.27149 -10.27136 -10.27119
 Alpha  occ. eigenvalues --  -10.27079 -10.26661 -10.26511 -10.26470 -10.26303
 Alpha  occ. eigenvalues --  -10.26222 -10.26186 -10.26109 -10.25985 -10.25893
 Alpha  occ. eigenvalues --  -10.25640 -10.25589 -10.25548 -10.25181 -10.25061
 Alpha  occ. eigenvalues --  -10.24987 -10.24717 -10.24541 -10.24507 -10.24364
 Alpha  occ. eigenvalues --  -10.24221  -3.16737  -3.16041  -1.91619  -1.91206
 Alpha  occ. eigenvalues --   -1.91048  -1.90924  -1.90510  -1.90349  -1.17322
 Alpha  occ. eigenvalues --   -1.16252  -1.08972  -1.08341  -1.07411  -1.07382
 Alpha  occ. eigenvalues --   -1.06784  -1.06569  -1.04808  -1.04044  -1.03957
 Alpha  occ. eigenvalues --   -1.03434  -1.03276  -1.02696  -1.02613  -1.01749
 Alpha  occ. eigenvalues --   -0.92254  -0.91595  -0.89683  -0.89477  -0.89179
 Alpha  occ. eigenvalues --   -0.88438  -0.88368  -0.88065  -0.87914  -0.87896
 Alpha  occ. eigenvalues --   -0.87478  -0.87438  -0.87244  -0.86868  -0.85267
 Alpha  occ. eigenvalues --   -0.84402  -0.84106  -0.83596  -0.83117  -0.82923
 Alpha  occ. eigenvalues --   -0.82721  -0.82106  -0.81965  -0.81199  -0.80869
 Alpha  occ. eigenvalues --   -0.80063  -0.78975  -0.78333  -0.77436  -0.77242
 Alpha  occ. eigenvalues --   -0.76765  -0.76358  -0.76219  -0.75169  -0.75083
 Alpha  occ. eigenvalues --   -0.74440  -0.72972  -0.72320  -0.71902  -0.71074
 Alpha  occ. eigenvalues --   -0.70017  -0.69455  -0.69141  -0.68268  -0.67885
 Alpha  occ. eigenvalues --   -0.67505  -0.67269  -0.66728  -0.65590  -0.65153
 Alpha  occ. eigenvalues --   -0.64879  -0.64735  -0.64438  -0.64381  -0.64174
 Alpha  occ. eigenvalues --   -0.63866  -0.62714  -0.61907  -0.60609  -0.60065
 Alpha  occ. eigenvalues --   -0.60065  -0.59226  -0.59186  -0.58766  -0.58606
 Alpha  occ. eigenvalues --   -0.58056  -0.58026  -0.57516  -0.57185  -0.56930
 Alpha  occ. eigenvalues --   -0.56618  -0.56379  -0.55855  -0.55774  -0.55626
 Alpha  occ. eigenvalues --   -0.55487  -0.55102  -0.54930  -0.54870  -0.54206
 Alpha  occ. eigenvalues --   -0.54153  -0.53541  -0.53496  -0.53344  -0.53146
 Alpha  occ. eigenvalues --   -0.52951  -0.52904  -0.52752  -0.52545  -0.52533
 Alpha  occ. eigenvalues --   -0.52170  -0.52130  -0.52052  -0.51899  -0.51613
 Alpha  occ. eigenvalues --   -0.51455  -0.51151  -0.50801  -0.50701  -0.50242
 Alpha  occ. eigenvalues --   -0.50198  -0.50093  -0.49794  -0.49651  -0.49525
 Alpha  occ. eigenvalues --   -0.49484  -0.49375  -0.49011  -0.48937  -0.48799
 Alpha  occ. eigenvalues --   -0.48720  -0.48615  -0.48391  -0.48094  -0.48069
 Alpha  occ. eigenvalues --   -0.47937  -0.47933  -0.47510  -0.47135  -0.47015
 Alpha  occ. eigenvalues --   -0.46868  -0.46788  -0.46607  -0.46390  -0.46289
 Alpha  occ. eigenvalues --   -0.46148  -0.45968  -0.45843  -0.45755  -0.45380
 Alpha  occ. eigenvalues --   -0.45350  -0.44890  -0.44878  -0.44718  -0.44415
 Alpha  occ. eigenvalues --   -0.44304  -0.44247  -0.44169  -0.44062  -0.43867
 Alpha  occ. eigenvalues --   -0.43792  -0.43625  -0.43579  -0.43403  -0.43286
 Alpha  occ. eigenvalues --   -0.43202  -0.43148  -0.42822  -0.42805  -0.42552
 Alpha  occ. eigenvalues --   -0.42449  -0.42254  -0.42221  -0.41957  -0.41803
 Alpha  occ. eigenvalues --   -0.41597  -0.41372  -0.41261  -0.41124  -0.41028
 Alpha  occ. eigenvalues --   -0.40939  -0.40728  -0.40568  -0.40511  -0.40395
 Alpha  occ. eigenvalues --   -0.40218  -0.39799  -0.39643  -0.39542  -0.39136
 Alpha  occ. eigenvalues --   -0.38644  -0.38100  -0.37986  -0.37563  -0.37500
 Alpha  occ. eigenvalues --   -0.37288  -0.37156  -0.36870  -0.36654  -0.36476
 Alpha  occ. eigenvalues --   -0.36403  -0.35814  -0.34578  -0.34433  -0.33857
 Alpha  occ. eigenvalues --   -0.33490  -0.33415  -0.32810  -0.31516  -0.31266
 Alpha  occ. eigenvalues --   -0.31077  -0.30568  -0.30353  -0.29645  -0.29633
 Alpha  occ. eigenvalues --   -0.29534  -0.29037  -0.28892  -0.24300  -0.23658
 Alpha  occ. eigenvalues --   -0.21327  -0.20733
 Alpha virt. eigenvalues --   -0.08979  -0.08452  -0.01945  -0.01329  -0.00265
 Alpha virt. eigenvalues --    0.00312   0.01949   0.02382   0.02625   0.03680
 Alpha virt. eigenvalues --    0.04428   0.04450   0.05278   0.05551   0.05786

 Mulliken charges:
               1
     1  Mg   0.839587
     2  C   -0.005163
     3  C   -0.093929
     4  C   -0.045433
     5  C   -0.062729
     6  N   -0.256969
     7  C   -0.052887
     8  C   -0.014206
     9  C   -0.087132
    10  C    0.046435
    11  C    0.104657
    12  C    0.053495
    13  C   -0.071325
    14  H    0.032393
    15  N   -0.433365
    16  C    0.169239
    17  C   -0.176140
    18  C   -0.003338
    19  C    0.149055
    20  C    0.109800
    21  C    0.012216
    22  O   -0.249829
    23  C    0.061727
    24  N   -0.341098
    25  C    0.041835
    26  C   -0.028358
    27  C   -0.023922
    28  C    0.074673
    29  C    0.076051
    30  C    0.034633
    31  C   -0.005989
    32  N   -0.310376
    33  C    0.080042
    34  C   -0.169720
    35  C    0.007458
    36  C    0.082769
    37  C    0.127433
    38  C    0.044488
    39  O   -0.189308
    40  C   -0.005540
    41  C    0.218114
    42  O   -0.256808
    43  O   -0.302353
    44  C    0.157589
    45  H   -0.017216
    46  H   -0.016495
    47  H   -0.040133
    48  H    0.000747
    49  H   -0.003901
    50  H    0.025523
    51  H    0.017188
    52  H    0.017141
    53  H    0.012165
    54  H    0.040242
    55  H    0.019200
    56  H    0.019102
    57  H    0.005878
    58  H    0.027206
    59  H    0.041787
    60  H    0.037694
    61  H    0.035699
    62  H    0.033586
    63  H    0.016569
    64  H    0.009976
    65  H    0.023503
    66  H    0.012471
    67  H    0.005346
    68  H    0.006570
    69  H    0.006363
    70  H    0.007448
    71  H    0.021170
    72  H    0.029816
    73  H    0.047241
    74  H    0.010956
    75  H    0.046213
    76  H    0.036511
    77  H    0.045025
    78  H    0.047623
    79  H    0.050355
    80  Mg   0.835853
    81  C   -0.017128
    82  C   -0.087779
    83  C   -0.047302
    84  C   -0.065589
    85  N   -0.255815
    86  C   -0.047449
    87  C   -0.015306
    88  C   -0.091495
    89  C    0.046808
    90  C    0.117049
    91  C    0.062335
    92  C   -0.076980
    93  H    0.031363
    94  N   -0.423524
    95  C    0.163199
    96  C   -0.175292
    97  C   -0.009345
    98  C    0.152512
    99  C    0.100013
   100  C    0.014348
   101  O   -0.254816
   102  C    0.061638
   103  N   -0.350549
   104  C    0.037801
   105  C   -0.019733
   106  C   -0.034826
   107  C    0.088907
   108  C    0.072390
   109  C    0.034988
   110  C   -0.007483
   111  N   -0.324026
   112  C    0.078349
   113  C   -0.164413
   114  C    0.001588
   115  C    0.096161
   116  C    0.131778
   117  C    0.041058
   118  O   -0.189503
   119  C    0.001705
   120  C    0.211232
   121  O   -0.251826
   122  O   -0.304705
   123  C    0.152519
   124  H   -0.016960
   125  H   -0.017720
   126  H   -0.041579
   127  H    0.001832
   128  H   -0.007718
   129  H    0.020001
   130  H    0.008784
   131  H    0.033579
   132  H    0.012205
   133  H    0.035606
   134  H    0.023958
   135  H    0.018682
   136  H    0.009479
   137  H    0.023411
   138  H    0.038770
   139  H    0.036824
   140  H    0.035058
   141  H    0.034153
   142  H    0.013385
   143  H    0.013487
   144  H    0.022643
   145  H    0.009500
   146  H    0.010094
   147  H    0.005604
   148  H    0.003300
   149  H    0.010279
   150  H    0.017178
   151  H    0.030544
   152  H    0.045232
   153  H    0.008153
   154  H    0.044740
   155  H    0.036435
   156  H    0.043056
   157  H    0.050461
   158  H    0.052492
 Sum of Mulliken charges =  -0.00000

 Dipole moment (field-independent basis, Debye):
    X=             -6.3398    Y=              1.1754    Z=              5.2685  Tot=              8.3266
 Quadrupole moment (field-independent basis, Debye-Ang):
   XX=           -517.4863   YY=           -523.0675   ZZ=           -478.5772
   XY=             -6.2431   XZ=             -3.4362   YZ=            -26.2999

 Normal termination of Gaussian 16 at Fri Sep  3 17:46:55 2021.
