 Gaussian 16, Revision A.03,
 Gaussian 16:  ES64L-G16RevA.03 25-Dec-2016

 -----------------------------------
 #p cam-b3lyp/Def2SVP td=(nstates=5)
 -----------------------------------

 --------------------------------
 TDDFT excited states in gaussian
 --------------------------------
 Symbolic Z-matrix:
 Charge =  0 Multiplicity = 1

                         Standard orientation:
 ---------------------------------------------------------------------
 Center     Atomic      Atomic             Coordinates (Angstroms)
 Number     Number       Type             X           Y           Z
 ---------------------------------------------------------------------
      1         12           0        5.434092   -0.507420    0.712012
      2          6           0        5.789232    2.495257   -1.203718
      3          6           0        5.914835    1.393973    3.504261
      4          6           0        5.577544   -3.196791    2.386325
      5          6           0        6.111524   -2.278011   -2.212326
      6          7           0        5.794240    1.659519    0.986447
      7          6           0        5.848124    2.711031    0.174911
      8          6           0        5.897153    4.072694    0.930454
      9          6           0        6.498410    3.568887    2.318498
     10          6           0        6.011156    2.131009    2.286668
     11          6           0        8.023179    3.570037    2.358262
     12          6           0        4.475034    4.700954    1.116458
     13          6           0        4.461183    6.170179    1.548361
     14          1           0        3.415502    7.041507    1.033885
     15          7           0        5.222576   -0.822403    2.650799
     16          6           0        5.445669    0.070020    3.645332
     17          6           0        5.148818   -0.642606    4.906571
     18          6           0        4.918366   -2.076320    4.575740
     19          6           0        5.260461   -2.094397    3.176447
     20          6           0        5.059247    0.040938    6.236419
     21          6           0        4.472296   -3.246827    5.393706
     22          8           0        4.560673   -4.448523    4.966282
     23          6           0        4.005246   -2.953190    6.760704
     24          7           0        6.007678   -2.454554    0.224876
     25          6           0        5.919710   -3.444268    1.120259
     26          6           0        6.110816   -4.784151    0.473628
     27          6           0        6.107030   -4.519608   -1.101096
     28          6           0        5.989341   -2.975586   -1.080722
     29          6           0        7.390409   -5.538000    0.861396
     30          6           0        5.089793   -5.325760   -1.947126
     31          6           0        3.681753   -4.888156   -1.610932
     32          7           0        5.700601   -0.022442   -1.386753
     33          6           0        5.997286   -0.914688   -2.427210
     34          6           0        6.190009   -0.107992   -3.646295
     35          6           0        6.007189    1.207378   -3.224129
     36          6           0        5.744478    1.223415   -1.824480
     37          6           0        6.550434   -0.608528   -4.928477
     38          6           0        5.997014    2.604877   -3.625066
     39          8           0        6.063814    3.198432   -4.702434
     40          6           0        5.976117    3.503193   -2.310372
     41          6           0        4.913011    4.551840   -2.493278
     42          8           0        3.706668    4.237069   -2.548231
     43          8           0        5.457057    5.768433   -2.336880
     44          6           0        4.449673    6.853697   -2.476642
     45          1           0        6.286125    1.846393    4.425891
     46          1           0        5.528917   -4.157228    2.903659
     47          1           0        6.241914   -2.767693   -3.179106
     48          1           0        6.559379    4.815684    0.485656
     49          1           0        6.063386    4.097725    3.166323
     50          1           0        8.447065    3.794859    1.379642
     51          1           0        8.306847    2.566025    2.674467
     52          1           0        8.389938    4.243192    3.133586
     53          1           0        3.992662    4.248350    1.982788
     54          1           0        3.880924    4.586277    0.209149
     55          1           0        5.440508    6.632333    1.420903
     56          1           0        4.281253    6.208651    2.622765
     57          1           0        5.439701    1.060525    6.189082
     58          1           0        5.746896   -0.474743    6.906435
     59          1           0        4.050384    0.007307    6.647997
     60          1           0        4.805548   -2.465162    7.317386
     61          1           0        3.642892   -3.898069    7.164131
     62          1           0        3.186626   -2.234875    6.707473
     63          1           0        5.293797   -5.459461    0.724353
     64          1           0        7.071142   -4.747317   -1.556411
     65          1           0        7.205922   -6.528967    1.276913
     66          1           0        7.947737   -4.917495    1.562574
     67          1           0        8.113398   -5.656402    0.054745
     68          1           0        5.159932   -6.387674   -1.713962
     69          1           0        5.237087   -5.211595   -3.021147
     70          1           0        3.450430   -5.474060   -0.722092
     71          1           0        3.002049   -5.133059   -2.427777
     72          1           0        3.649162   -3.836497   -1.325562
     73          1           0        5.920519   -0.085751   -5.648115
     74          1           0        6.407385   -1.687286   -4.986970
     75          1           0        7.601771   -0.323963   -4.968108
     76          1           0        6.969568    3.939953   -2.213330
     77          1           0        4.809237    7.527148   -3.254723
     78          1           0        4.299365    7.267292   -1.479269
     79          1           0        3.481928    6.563167   -2.887010
     80         12           0       -5.059005   -0.804887   -0.584295
     81          6           0       -7.587872    1.501667    0.494445
     82          6           0       -3.298779    1.887324   -1.719277
     83          6           0       -3.030225   -2.830099   -1.944429
     84          6           0       -7.471568   -3.314141   -0.414401
     85          7           0       -5.491758    1.364041   -0.557421
     86          6           0       -6.455340    2.128424   -0.065905
     87          6           0       -6.153946    3.650545   -0.108941
     88          6           0       -5.090679    3.651213   -1.312403
     89          6           0       -4.562808    2.224828   -1.172973
     90          6           0       -5.732731    3.791089   -2.682644
     91          6           0       -5.511999    4.170707    1.224991
     92          6           0       -5.476267    5.693639    1.370389
     93          1           0       -5.663551    6.270603    2.698738
     94          7           0       -3.202803   -0.524970   -1.228281
     95          6           0       -2.646595    0.638128   -1.627179
     96          6           0       -1.269115    0.309555   -2.025625
     97          6           0       -1.109261   -1.169472   -1.985241
     98          6           0       -2.477160   -1.575639   -1.732308
     99          6           0       -0.234942    1.357410   -2.318735
    100          6           0        0.076023   -2.069933   -2.159756
    101          8           0       -0.056997   -3.334528   -2.320848
    102          6           0        1.391120   -1.416406   -2.229987
    103          7           0       -5.272961   -2.742005   -1.308278
    104          6           0       -4.219363   -3.415775   -1.802132
    105          6           0       -4.551239   -4.874983   -2.004501
    106          6           0       -5.977426   -5.091003   -1.313904
    107          6           0       -6.276939   -3.635981   -0.891297
    108          6           0       -4.612365   -5.348116   -3.456668
    109          6           0       -6.077055   -6.208193   -0.239374
    110          6           0       -5.262436   -5.829087    0.976375
    111          7           0       -7.098186   -0.957289    0.113256
    112          6           0       -7.932498   -2.095677    0.067533
    113          6           0       -9.264768   -1.678732    0.550899
    114          6           0       -9.118197   -0.310512    0.824724
    115          6           0       -7.794067    0.101001    0.513526
    116          6           0      -10.415286   -2.511986    0.641019
    117          6           0       -9.785522    0.881571    1.296211
    118          8           0      -10.889411    1.124594    1.782139
    119          6           0       -8.860286    2.135692    0.983925
    120          6           0       -8.789117    2.981151    2.225953
    121          8           0       -8.242277    2.547466    3.255269
    122          8           0       -9.181330    4.233615    1.929506
    123          6           0       -9.117463    5.112867    3.127274
    124          1           0       -2.772703    2.636650   -2.311430
    125          1           0       -2.339834   -3.594261   -2.308994
    126          1           0       -8.250332   -4.059455   -0.239157
    127          1           0       -7.002534    4.274678   -0.362178
    128          1           0       -4.295467    4.370969   -1.136491
    129          1           0       -6.810408    3.748092   -2.628869
    130          1           0       -5.350193    2.968154   -3.272129
    131          1           0       -5.379713    4.702791   -3.173049
    132          1           0       -4.435295    3.957986    1.210959
    133          1           0       -5.999653    3.737738    2.076668
    134          1           0       -6.124318    6.192781    0.639748
    135          1           0       -4.471523    6.042661    1.119982
    136          1           0       -0.688225    2.350312   -2.428596
    137          1           0        0.174193    1.134400   -3.310071
    138          1           0        0.580406    1.359368   -1.592181
    139          1           0        1.400431   -0.711743   -3.058128
    140          1           0        2.119607   -2.228766   -2.265573
    141          1           0        1.539715   -0.830203   -1.316262
    142          1           0       -3.823282   -5.508884   -1.513236
    143          1           0       -6.747564   -5.369877   -2.048030
    144          1           0       -3.926428   -6.189353   -3.670885
    145          1           0       -4.393566   -4.505886   -4.099568
    146          1           0       -5.598952   -5.652283   -3.802137
    147          1           0       -5.650769   -7.139394   -0.620569
    148          1           0       -7.095226   -6.422226    0.068061
    149          1           0       -4.249049   -6.134863    0.699560
    150          1           0       -5.611379   -6.368376    1.854697
    151          1           0       -5.251326   -4.742311    1.119428
    152          1           0      -10.883958   -2.293928    1.591435
    153          1           0      -10.151432   -3.564336    0.559139
    154          1           0      -10.978652   -2.161249   -0.227811
    155          1           0       -9.308748    2.673520    0.147739
    156          1           0      -10.112074    5.551096    3.255317
    157          1           0       -8.279652    5.810859    2.941159
    158          1           0       -8.969957    4.638115    4.090238
 ---------------------------------------------------------------------

 SCF Done:  E(RCAM-B3LYP) =  -4069.81408551     A.U. after   18 cycles

 Excitation energies and oscillator strengths:

 Excited State   1:      Singlet-A      1.6563 eV  748.58 nm  f=0.2492  <S**2>=0.000
     309 -> 315        0.11540
     310 -> 316        0.12414
     311 -> 313       -0.46532
     312 -> 314        0.50556
 This state for optimization and/or second-order correction.
 Total Energy, E(TD-HF/TD-DFT) =  -4069.75321910
 Copying the excited state density for this state as the 1-particle RhoCI density.

 Excited State   2:      Singlet-A      1.6933 eV  732.21 nm  f=0.5278  <S**2>=0.000
     309 -> 315       -0.13219
     310 -> 316        0.11994
     311 -> 313        0.50397
     312 -> 314        0.46402

 Excited State   3:      Singlet-A      2.1870 eV  566.91 nm  f=0.0141  <S**2>=0.000
     309 -> 313       -0.32369
     310 -> 314        0.55606
     311 -> 315       -0.13584
     312 -> 316       -0.23594

 Excited State   4:      Singlet-A      2.1980 eV  564.08 nm  f=0.1644  <S**2>=0.000
     309 -> 313        0.55323
     310 -> 314        0.32041
     311 -> 315        0.24340
     312 -> 316       -0.14043

 Excited State   5:      Singlet-A      2.4233 eV  511.64 nm  f=0.0000  <S**2>=0.000
     312 -> 313        0.70674

 The electronic state is 1-A.
 Alpha  occ. eigenvalues --  -46.88022 -46.87424 -19.26689 -19.26223 -19.19478
 Alpha  occ. eigenvalues --  -19.19022 -19.18920 -19.18505 -19.18430 -19.17834
 Alpha  occ. eigenvalues --  -14.42661 -14.42264 -14.41614 -14.41123 -14.39598
 Alpha  occ. eigenvalues --  -14.39106 -14.38829 -14.38363 -10.39508 -10.38946
 Alpha  occ. eigenvalues --  -10.35548 -10.35122 -10.34659 -10.34018 -10.32082
 Alpha  occ. eigenvalues --  -10.31663 -10.31633 -10.31123 -10.31079 -10.30786
 Alpha  occ. eigenvalues --  -10.30763 -10.30695 -10.30314 -10.30178 -10.30104
 Alpha  occ. eigenvalues --  -10.30070 -10.29884 -10.29819 -10.29699 -10.29434
 Alpha  occ. eigenvalues --  -10.29157 -10.29110 -10.29006 -10.28850 -10.28590
 Alpha  occ. eigenvalues --  -10.28540 -10.28516 -10.28344 -10.28143 -10.27994
 Alpha  occ. eigenvalues --  -10.27917 -10.27916 -10.27762 -10.27734 -10.27625
 Alpha  occ. eigenvalues --  -10.27610 -10.27453 -10.27451 -10.27445 -10.27400
 Alpha  occ. eigenvalues --  -10.27329 -10.27252 -10.27203 -10.27167 -10.27031
 Alpha  occ. eigenvalues --  -10.26857 -10.26685 -10.26534 -10.26465 -10.26430
 Alpha  occ. eigenvalues --  -10.26168 -10.26022 -10.26012 -10.25975 -10.25927
 Alpha  occ. eigenvalues --  -10.25797 -10.25693 -10.25652 -10.25444 -10.25249
 Alpha  occ. eigenvalues --  -10.25056 -10.24946 -10.24621 -10.24572 -10.24465
 Alpha  occ. eigenvalues --  -10.24182  -3.16761  -3.16175  -1.91644  -1.91227
 Alpha  occ. eigenvalues --   -1.91070  -1.91057  -1.90645  -1.90482  -1.17042
 Alpha  occ. eigenvalues --   -1.16514  -1.08905  -1.08453  -1.07314  -1.07082
 Alpha  occ. eigenvalues --   -1.06805  -1.06730  -1.04795  -1.04257  -1.03930
 Alpha  occ. eigenvalues --   -1.03428  -1.03427  -1.02800  -1.02601  -1.01870
 Alpha  occ. eigenvalues --   -0.92206  -0.91759  -0.89583  -0.89415  -0.89279
 Alpha  occ. eigenvalues --   -0.88941  -0.88314  -0.88071  -0.88020  -0.87863
 Alpha  occ. eigenvalues --   -0.87562  -0.87442  -0.87422  -0.86719  -0.85202
 Alpha  occ. eigenvalues --   -0.84784  -0.83945  -0.83689  -0.83023  -0.82829
 Alpha  occ. eigenvalues --   -0.82617  -0.82373  -0.81847  -0.81411  -0.80801
 Alpha  occ. eigenvalues --   -0.80220  -0.78962  -0.78287  -0.77370  -0.77112
 Alpha  occ. eigenvalues --   -0.76880  -0.76711  -0.76139  -0.75591  -0.74962
 Alpha  occ. eigenvalues --   -0.74588  -0.72942  -0.72447  -0.71848  -0.71359
 Alpha  occ. eigenvalues --   -0.69805  -0.69565  -0.69071  -0.68595  -0.67833
 Alpha  occ. eigenvalues --   -0.67440  -0.67369  -0.66963  -0.65519  -0.65071
 Alpha  occ. eigenvalues --   -0.65062  -0.64793  -0.64550  -0.64450  -0.64303
 Alpha  occ. eigenvalues --   -0.63998  -0.62561  -0.62099  -0.60573  -0.60031
 Alpha  occ. eigenvalues --   -0.60008  -0.59570  -0.59167  -0.58768  -0.58691
 Alpha  occ. eigenvalues --   -0.58191  -0.57881  -0.57433  -0.57360  -0.56989
 Alpha  occ. eigenvalues --   -0.56516  -0.56269  -0.55933  -0.55696  -0.55681
 Alpha  occ. eigenvalues --   -0.55467  -0.55181  -0.55055  -0.54646  -0.54314
 Alpha  occ. eigenvalues --   -0.54135  -0.53703  -0.53446  -0.53424  -0.53149
 Alpha  occ. eigenvalues --   -0.52993  -0.52911  -0.52898  -0.52692  -0.52359
 Alpha  occ. eigenvalues --   -0.52276  -0.52202  -0.52105  -0.51840  -0.51672
 Alpha  occ. eigenvalues --   -0.51425  -0.51339  -0.50986  -0.50667  -0.50128
 Alpha  occ. eigenvalues --   -0.50084  -0.49946  -0.49703  -0.49650  -0.49605
 Alpha  occ. eigenvalues --   -0.49424  -0.49303  -0.49223  -0.48926  -0.48889
 Alpha  occ. eigenvalues --   -0.48840  -0.48617  -0.48536  -0.48339  -0.48183
 Alpha  occ. eigenvalues --   -0.48038  -0.47843  -0.47455  -0.47318  -0.46949
 Alpha  occ. eigenvalues --   -0.46795  -0.46769  -0.46539  -0.46480  -0.46354
 Alpha  occ. eigenvalues --   -0.46280  -0.46064  -0.45985  -0.45859  -0.45635
 Alpha  occ. eigenvalues --   -0.45246  -0.45001  -0.44805  -0.44645  -0.44335
 Alpha  occ. eigenvalues --   -0.44305  -0.44291  -0.44220  -0.44137  -0.43904
 Alpha  occ. eigenvalues --   -0.43833  -0.43737  -0.43663  -0.43493  -0.43376
 Alpha  occ. eigenvalues --   -0.43196  -0.43163  -0.43030  -0.42755  -0.42671
 Alpha  occ. eigenvalues --   -0.42620  -0.42307  -0.42009  -0.41881  -0.41770
 Alpha  occ. eigenvalues --   -0.41670  -0.41449  -0.41321  -0.41251  -0.41030
 Alpha  occ. eigenvalues --   -0.40951  -0.40765  -0.40562  -0.40503  -0.40480
 Alpha  occ. eigenvalues --   -0.40463  -0.40299  -0.40034  -0.39281  -0.39242
 Alpha  occ. eigenvalues --   -0.38525  -0.38160  -0.37998  -0.37506  -0.37471
 Alpha  occ. eigenvalues --   -0.37392  -0.37055  -0.37038  -0.36963  -0.36621
 Alpha  occ. eigenvalues --   -0.36350  -0.36025  -0.34492  -0.34184  -0.34023
 Alpha  occ. eigenvalues --   -0.33704  -0.33388  -0.32940  -0.31453  -0.31222
 Alpha  occ. eigenvalues --   -0.31026  -0.30743  -0.30298  -0.29747  -0.29643
 Alpha  occ. eigenvalues --   -0.29536  -0.29048  -0.28953  -0.24283  -0.23802
 Alpha  occ. eigenvalues --   -0.21310  -0.20866
 Alpha virt. eigenvalues --   -0.08962  -0.08529  -0.01920  -0.01456  -0.00232
 Alpha virt. eigenvalues --    0.00234   0.01980   0.02343   0.02567   0.03427
 Alpha virt. eigenvalues --    0.04502   0.04695   0.04940   0.05319   0.05866

 Mulliken charges:
               1
     1  Mg   0.830311
     2  C   -0.004754
     3  C   -0.094197
     4  C   -0.044549
     5  C   -0.064449
     6  N   -0.256637
     7  C   -0.053964
     8  C   -0.013537
     9  C   -0.086988
    10  C    0.046389
    11  C    0.104651
    12  C    0.053288
    13  C   -0.071641
    14  H    0.034569
    15  N   -0.433723
    16  C    0.168768
    17  C   -0.176756
    18  C   -0.003209
    19  C    0.149011
    20  C    0.109998
    21  C    0.013145
    22  O   -0.248182
    23  C    0.062142
    24  N   -0.341574
    25  C    0.042123
    26  C   -0.028537
    27  C   -0.024878
    28  C    0.075239
    29  C    0.076385
    30  C    0.034944
    31  C   -0.010388
    32  N   -0.310318
    33  C    0.079454
    34  C   -0.171308
    35  C    0.007456
    36  C    0.079467
    37  C    0.127659
    38  C    0.044142
    39  O   -0.189062
    40  C   -0.004908
    41  C    0.213900
    42  O   -0.261980
    43  O   -0.303647
    44  C    0.157963
    45  H   -0.017086
    46  H   -0.015474
    47  H   -0.040605
    48  H    0.001045
    49  H   -0.003752
    50  H    0.025624
    51  H    0.017007
    52  H    0.017194
    53  H    0.011334
    54  H    0.041095
    55  H    0.018755
    56  H    0.018910
    57  H    0.005957
    58  H    0.027533
    59  H    0.040576
    60  H    0.037330
    61  H    0.036713
    62  H    0.032130
    63  H    0.018459
    64  H    0.009010
    65  H    0.023815
    66  H    0.011912
    67  H    0.004955
    68  H    0.005978
    69  H    0.004002
    70  H    0.006962
    71  H    0.032061
    72  H    0.035675
    73  H    0.046237
    74  H    0.010543
    75  H    0.046425
    76  H    0.035941
    77  H    0.043877
    78  H    0.046985
    79  H    0.051490
    80  Mg   0.836660
    81  C   -0.016876
    82  C   -0.086899
    83  C   -0.045897
    84  C   -0.065124
    85  N   -0.254389
    86  C   -0.050710
    87  C   -0.015022
    88  C   -0.090343
    89  C    0.045107
    90  C    0.114313
    91  C    0.062574
    92  C   -0.077334
    93  H    0.033180
    94  N   -0.423596
    95  C    0.162113
    96  C   -0.175783
    97  C   -0.005054
    98  C    0.152489
    99  C    0.101272
   100  C    0.012610
   101  O   -0.255700
   102  C    0.054006
   103  N   -0.350056
   104  C    0.037890
   105  C   -0.019841
   106  C   -0.034507
   107  C    0.088426
   108  C    0.073841
   109  C    0.034929
   110  C   -0.007512
   111  N   -0.323800
   112  C    0.077585
   113  C   -0.163948
   114  C    0.001912
   115  C    0.095488
   116  C    0.131663
   117  C    0.041768
   118  O   -0.189206
   119  C    0.001052
   120  C    0.211162
   121  O   -0.251554
   122  O   -0.305544
   123  C    0.152292
   124  H   -0.017153
   125  H   -0.016381
   126  H   -0.041278
   127  H   -0.001158
   128  H   -0.003827
   129  H    0.021954
   130  H    0.014988
   131  H    0.016548
   132  H    0.013905
   133  H    0.037090
   134  H    0.020786
   135  H    0.019507
   136  H    0.011865
   137  H    0.031551
   138  H    0.046360
   139  H    0.045120
   140  H    0.036361
   141  H    0.034905
   142  H    0.013927
   143  H    0.011914
   144  H    0.024236
   145  H    0.011896
   146  H    0.005418
   147  H    0.005588
   148  H    0.003280
   149  H    0.010834
   150  H    0.017421
   151  H    0.030323
   152  H    0.045195
   153  H    0.007946
   154  H    0.046330
   155  H    0.034667
   156  H    0.043510
   157  H    0.049262
   158  H    0.053043
 Sum of Mulliken charges =  -0.00000

 Dipole moment (field-independent basis, Debye):
    X=              4.7851    Y=              2.8980    Z=              1.5828  Tot=              5.8139
 Quadrupole moment (field-independent basis, Debye-Ang):
   XX=           -546.0827   YY=           -466.5910   ZZ=           -515.3738
   XY=             11.8207   XZ=             47.6262   YZ=             30.2575

 Normal termination of Gaussian 16 at Fri Sep 10 10:02:00 2021.
