 Gaussian 16, Revision A.03,
 Gaussian 16:  ES64L-G16RevA.03 25-Dec-2016

 -----------------------------------
 #p cam-b3lyp/Def2SVP td=(nstates=5)
 -----------------------------------

 --------------------------------
 TDDFT excited states in gaussian
 --------------------------------
 Symbolic Z-matrix:
 Charge =  0 Multiplicity = 1

                         Standard orientation:
 ---------------------------------------------------------------------
 Center     Atomic      Atomic             Coordinates (Angstroms)
 Number     Number       Type             X           Y           Z
 ---------------------------------------------------------------------
      1         12           0       -5.076799   -1.122850   -0.103580
      2          6           0       -5.536740    2.410690    0.235188
      3          6           0       -5.869707   -0.759572   -3.402427
      4          6           0       -5.121651   -4.285721   -0.329098
      5          6           0       -5.438250   -1.352539    3.355070
      6          7           0       -5.614273    0.651910   -1.312710
      7          6           0       -5.696515    1.957461   -1.076186
      8          6           0       -5.893765    2.807901   -2.366619
      9          6           0       -6.540103    1.693617   -3.306096
     10          6           0       -5.945621    0.455350   -2.658630
     11          6           0       -8.060227    1.618772   -3.205488
     12          6           0       -4.536813    3.330323   -2.947555
     13          6           0       -4.659568    4.428904   -4.007462
     14          1           0       -3.652265    5.478196   -4.048386
     15          7           0       -4.962281   -2.295995   -1.688972
     16          6           0       -5.312414   -1.978275   -2.958518
     17          6           0       -5.041432   -3.184390   -3.770021
     18          6           0       -4.684415   -4.289437   -2.837548
     19          6           0       -4.937252   -3.666861   -1.563244
     20          6           0       -5.085426   -3.195711   -5.267247
     21          6           0       -4.203330   -5.688449   -3.059932
     22          8           0       -4.175038   -6.555363   -2.120659
     23          6           0       -3.844747   -6.047632   -4.443929
     24          7           0       -5.471988   -2.639352    1.275435
     25          6           0       -5.365615   -3.928012    0.933349
     26          6           0       -5.415714   -4.818929    2.139042
     27          6           0       -5.334624   -3.851774    3.407028
     28          6           0       -5.334245   -2.491565    2.666688
     29          6           0       -6.656802   -5.714152    2.258573
     30          6           0       -4.209700   -4.132473    4.434731
     31          6           0       -2.861761   -3.849084    3.810352
     32          7           0       -5.248903    0.273015    1.549595
     33          6           0       -5.413282   -0.042718    2.906048
     34          6           0       -5.590262    1.230869    3.627660
     35          6           0       -5.532734    2.204296    2.632183
     36          6           0       -5.358775    1.576765    1.365599
     37          6           0       -5.832476    1.371631    5.022634
     38          6           0       -5.602421    3.627037    2.340966
     39          8           0       -5.646867    4.650921    3.024472
     40          6           0       -5.729897    3.810097    0.764239
     41          6           0       -4.738964    4.862475    0.347274
     42          8           0       -3.511367    4.655102    0.433117
     43          8           0       -5.381098    5.844947   -0.303076
     44          6           0       -4.451024    6.907522   -0.770034
     45          1           0       -6.329928   -0.802551   -4.391513
     46          1           0       -5.033312   -5.373976   -0.347397
     47          1           0       -5.471774   -1.340359    4.446024
     48          1           0       -6.581022    3.647037   -2.257284
     49          1           0       -6.198973    1.782896   -4.337300
     50          1           0       -8.438584    2.257209   -2.407261
     51          1           0       -8.286954    0.573122   -2.996433
     52          1           0       -8.523427    1.839255   -4.167574
     53          1           0       -4.076282    2.544949   -3.546856
     54          1           0       -3.880971    3.673656   -2.146731
     55          1           0       -5.660991    4.860056   -4.020492
     56          1           0       -4.549621    3.969511   -4.989842
     57          1           0       -5.537439   -2.286436   -5.661516
     58          1           0       -5.772580   -3.989473   -5.559600
     59          1           0       -4.104181   -3.379108   -5.705260
     60          1           0       -4.712116   -5.905364   -5.088894
     61          1           0       -3.438297   -7.057303   -4.396868
     62          1           0       -3.080433   -5.356907   -4.801243
     63          1           0       -4.567489   -5.502048    2.156016
     64          1           0       -6.249081   -3.877415    4.000142
     65          1           0       -6.424679   -6.776893    2.332102
     66          1           0       -7.301162   -5.512873    1.403250
     67          1           0       -7.317782   -5.470511    3.089934
     68          1           0       -4.214451   -5.182632    4.724715
     69          1           0       -4.298606   -3.537066    5.343486
     70          1           0       -2.642513   -4.772247    3.275064
     71          1           0       -2.116564   -3.659795    4.583697
     72          1           0       -2.925591   -3.050803    3.070650
     73          1           0       -5.200255    2.192598    5.360685
     74          1           0       -5.605796    0.450376    5.558831
     75          1           0       -6.897703    1.602158    5.020373
     76          1           0       -6.757324    4.113749    0.565973
     77          1           0       -4.811288    7.851710   -0.361436
     78          1           0       -4.393871    6.814570   -1.854699
     79          1           0       -3.440798    6.878069   -0.360259
     80         12           0        5.483265   -0.384458    0.243819
     81          6           0        4.272122    2.989706    0.408777
     82          6           0        5.462906   -0.067455   -3.152316
     83          6           0        6.116417   -3.487504    0.049748
     84          6           0        4.336799   -0.808362    3.507501
     85          7           0        4.920210    1.293867   -1.082249
     86          6           0        4.533144    2.548114   -0.905115
     87          6           0        4.496684    3.399337   -2.202678
     88          6           0        4.325472    2.208707   -3.266608
     89          6           0        4.973198    1.076247   -2.472457
     90          6           0        2.874781    1.839529   -3.528407
     91          6           0        5.831319    4.190726   -2.436076
     92          6           0        5.755317    5.276788   -3.511456
     93          1           0        6.524541    6.502896   -3.317985
     94          7           0        6.213197   -1.454665   -1.259655
     95          6           0        6.134987   -1.167699   -2.576017
     96          6           0        6.807476   -2.276757   -3.270214
     97          6           0        7.144107   -3.322939   -2.266767
     98          6           0        6.471014   -2.793266   -1.097791
     99          6           0        7.141421   -2.237863   -4.733223
    100          6           0        7.929683   -4.596621   -2.349194
    101          8           0        7.894254   -5.471377   -1.413045
    102          6           0        8.667757   -4.831941   -3.598740
    103          7           0        5.072823   -1.988556    1.501095
    104          6           0        5.506000   -3.226764    1.205912
    105          6           0        5.333940   -4.159444    2.381026
    106          6           0        4.916572   -3.227417    3.611760
    107          6           0        4.828875   -1.868989    2.882117
    108          6           0        4.294159   -5.265968    2.205404
    109          6           0        5.788002   -3.322804    4.894015
    110          6           0        7.170516   -2.775880    4.620334
    111          7           0        4.653103    0.889680    1.778561
    112          6           0        4.216814    0.502692    3.064637
    113          6           0        3.624696    1.697101    3.701210
    114          6           0        3.737665    2.698375    2.724897
    115          6           0        4.338166    2.160553    1.554583
    116          6           0        3.035402    1.743760    4.996074
    117          6           0        3.475808    4.085346    2.414376
    118          8           0        3.061609    5.054454    3.049215
    119          6           0        3.695039    4.304284    0.855403
    120          6           0        4.537263    5.537185    0.673415
    121          8           0        5.714624    5.563012    1.073139
    122          8           0        3.888727    6.399070   -0.130897
    123          6           0        4.689096    7.633211   -0.350327
    124          1           0        5.279165   -0.152404   -4.223721
    125          1           0        6.413987   -4.538333    0.075970
    126          1           0        4.046114   -0.833955    4.559883
    127          1           0        3.660192    4.084226   -2.273306
    128          1           0        4.887679    2.407196   -4.175392
    129          1           0        2.200453    2.360555   -2.865115
    130          1           0        2.810119    0.770899   -3.370685
    131          1           0        2.627965    2.004283   -4.581156
    132          1           0        6.568714    3.521085   -2.897117
    133          1           0        6.187862    4.615620   -1.517939
    134          1           0        4.720165    5.512034   -3.787270
    135          1           0        6.195540    4.885293   -4.431751
    136          1           0        6.623858   -1.415399   -5.242229
    137          1           0        6.719071   -3.143542   -5.181800
    138          1           0        8.217390   -2.220009   -4.919337
    139          1           0        7.972278   -4.830744   -4.434664
    140          1           0        9.238119   -5.747985   -3.433155
    141          1           0        9.356454   -3.995317   -3.761132
    142          1           0        6.265459   -4.658537    2.618243
    143          1           0        3.902748   -3.457042    3.971296
    144          1           0        4.709263   -6.281582    2.347878
    145          1           0        3.855519   -5.169075    1.221155
    146          1           0        3.423775   -5.189087    2.854817
    147          1           0        5.919699   -4.367707    5.185533
    148          1           0        5.362273   -2.802164    5.745299
    149          1           0        7.685875   -3.625558    4.162576
    150          1           0        7.653581   -2.474147    5.547501
    151          1           0        7.135437   -1.971768    3.876140
    152          1           0        3.388713    2.651763    5.466396
    153          1           0        3.294177    0.864655    5.582574
    154          1           0        1.975731    1.760747    4.727606
    155          1           0        2.710646    4.409737    0.397786
    156          1           0        4.059421    8.478776   -0.056715
    157          1           0        5.017660    7.592460   -1.405846
    158          1           0        5.556819    7.786603    0.280518
 ---------------------------------------------------------------------

 SCF Done:  E(RCAM-B3LYP) =  -4069.81108666     A.U. after   19 cycles

 Excitation energies and oscillator strengths:

 Excited State   1:      Singlet-A      1.6564 eV  748.50 nm  f=0.0242  <S**2>=0.000
     309 -> 315       -0.11451
     310 -> 316        0.12431
     311 -> 313       -0.46394
     312 -> 314        0.50689
 This state for optimization and/or second-order correction.
 Total Energy, E(TD-HF/TD-DFT) =  -4069.75021355
 Copying the excited state density for this state as the 1-particle RhoCI density.

 Excited State   2:      Singlet-A      1.6979 eV  730.21 nm  f=0.6986  <S**2>=0.000
     309 -> 315        0.13290
     310 -> 316        0.12079
     311 -> 313        0.50494
     312 -> 314        0.46227

 Excited State   3:      Singlet-A      2.1831 eV  567.93 nm  f=0.0169  <S**2>=0.000
     309 -> 313        0.30015
     310 -> 314        0.56959
     311 -> 315       -0.12555
     312 -> 316       -0.23979

 Excited State   4:      Singlet-A      2.1949 eV  564.88 nm  f=0.1633  <S**2>=0.000
     309 -> 313        0.56598
     310 -> 314       -0.29690
     311 -> 315       -0.24863
     312 -> 316        0.13120

 Excited State   5:      Singlet-A      2.4895 eV  498.03 nm  f=0.0000  <S**2>=0.000
     312 -> 313        0.70707

 The electronic state is 1-A.
 Alpha  occ. eigenvalues --  -46.87816 -46.87463 -19.26213 -19.26110 -19.18942
 Alpha  occ. eigenvalues --  -19.18922 -19.18837 -19.18548 -19.18128 -19.17748
 Alpha  occ. eigenvalues --  -14.42474 -14.42308 -14.41471 -14.41163 -14.39423
 Alpha  occ. eigenvalues --  -14.39156 -14.38598 -14.38387 -10.39010 -10.38845
 Alpha  occ. eigenvalues --  -10.35473 -10.35230 -10.34349 -10.33923 -10.31598
 Alpha  occ. eigenvalues --  -10.31556 -10.31421 -10.31101 -10.30934 -10.30837
 Alpha  occ. eigenvalues --  -10.30581 -10.30519 -10.30239 -10.30187 -10.30143
 Alpha  occ. eigenvalues --  -10.29973 -10.29935 -10.29687 -10.29642 -10.29277
 Alpha  occ. eigenvalues --  -10.29253 -10.29192 -10.28788 -10.28622 -10.28543
 Alpha  occ. eigenvalues --  -10.28537 -10.28376 -10.28192 -10.28152 -10.27975
 Alpha  occ. eigenvalues --  -10.27798 -10.27781 -10.27752 -10.27601 -10.27541
 Alpha  occ. eigenvalues --  -10.27530 -10.27486 -10.27481 -10.27415 -10.27364
 Alpha  occ. eigenvalues --  -10.27332 -10.27275 -10.27266 -10.27208 -10.27128
 Alpha  occ. eigenvalues --  -10.26773 -10.26748 -10.26544 -10.26449 -10.26290
 Alpha  occ. eigenvalues --  -10.26262 -10.26246 -10.26043 -10.26007 -10.25868
 Alpha  occ. eigenvalues --  -10.25818 -10.25746 -10.25574 -10.25460 -10.25230
 Alpha  occ. eigenvalues --  -10.24832 -10.24805 -10.24775 -10.24640 -10.24602
 Alpha  occ. eigenvalues --  -10.24490  -3.16559  -3.16213  -1.91441  -1.91096
 Alpha  occ. eigenvalues --   -1.91028  -1.90869  -1.90684  -1.90521  -1.16562
 Alpha  occ. eigenvalues --   -1.16403  -1.08579  -1.08344  -1.07239  -1.06804
 Alpha  occ. eigenvalues --   -1.06703  -1.06566  -1.04602  -1.04299  -1.03782
 Alpha  occ. eigenvalues --   -1.03466  -1.03249  -1.02839  -1.02427  -1.01907
 Alpha  occ. eigenvalues --   -0.91973  -0.91756  -0.89549  -0.89311  -0.89225
 Alpha  occ. eigenvalues --   -0.88980  -0.88317  -0.88046  -0.87869  -0.87700
 Alpha  occ. eigenvalues --   -0.87560  -0.87496  -0.87300  -0.86947  -0.85016
 Alpha  occ. eigenvalues --   -0.84826  -0.83967  -0.83702  -0.82999  -0.82775
 Alpha  occ. eigenvalues --   -0.82671  -0.82478  -0.81568  -0.81382  -0.80600
 Alpha  occ. eigenvalues --   -0.80242  -0.78817  -0.78443  -0.77247  -0.76967
 Alpha  occ. eigenvalues --   -0.76953  -0.76715  -0.75929  -0.75643  -0.74918
 Alpha  occ. eigenvalues --   -0.74619  -0.72789  -0.72495  -0.71688  -0.71388
 Alpha  occ. eigenvalues --   -0.69953  -0.69600  -0.68901  -0.68650  -0.67652
 Alpha  occ. eigenvalues --   -0.67401  -0.67262  -0.67037  -0.65312  -0.65084
 Alpha  occ. eigenvalues --   -0.64861  -0.64634  -0.64575  -0.64460  -0.64296
 Alpha  occ. eigenvalues --   -0.64024  -0.62269  -0.62063  -0.60467  -0.60160
 Alpha  occ. eigenvalues --   -0.59831  -0.59610  -0.59000  -0.58791  -0.58511
 Alpha  occ. eigenvalues --   -0.58217  -0.57559  -0.57316  -0.57296  -0.57036
 Alpha  occ. eigenvalues --   -0.56319  -0.56003  -0.55953  -0.55681  -0.55535
 Alpha  occ. eigenvalues --   -0.55346  -0.55263  -0.55052  -0.54515  -0.54292
 Alpha  occ. eigenvalues --   -0.53929  -0.53741  -0.53316  -0.53243  -0.53040
 Alpha  occ. eigenvalues --   -0.52955  -0.52910  -0.52788  -0.52709  -0.52513
 Alpha  occ. eigenvalues --   -0.52480  -0.52243  -0.51901  -0.51645  -0.51627
 Alpha  occ. eigenvalues --   -0.51486  -0.51200  -0.50985  -0.50612  -0.50327
 Alpha  occ. eigenvalues --   -0.50071  -0.49947  -0.49812  -0.49696  -0.49538
 Alpha  occ. eigenvalues --   -0.49313  -0.49216  -0.49114  -0.49001  -0.48897
 Alpha  occ. eigenvalues --   -0.48587  -0.48483  -0.48442  -0.48352  -0.48192
 Alpha  occ. eigenvalues --   -0.48142  -0.47716  -0.47415  -0.47313  -0.46942
 Alpha  occ. eigenvalues --   -0.46821  -0.46587  -0.46526  -0.46386  -0.46374
 Alpha  occ. eigenvalues --   -0.46162  -0.46082  -0.45875  -0.45805  -0.45596
 Alpha  occ. eigenvalues --   -0.45227  -0.45026  -0.44568  -0.44542  -0.44327
 Alpha  occ. eigenvalues --   -0.44278  -0.44172  -0.44119  -0.44015  -0.43937
 Alpha  occ. eigenvalues --   -0.43899  -0.43733  -0.43478  -0.43414  -0.43352
 Alpha  occ. eigenvalues --   -0.43192  -0.43036  -0.42722  -0.42718  -0.42672
 Alpha  occ. eigenvalues --   -0.42621  -0.42384  -0.42039  -0.41792  -0.41707
 Alpha  occ. eigenvalues --   -0.41570  -0.41436  -0.41289  -0.41159  -0.40908
 Alpha  occ. eigenvalues --   -0.40857  -0.40799  -0.40601  -0.40563  -0.40538
 Alpha  occ. eigenvalues --   -0.40317  -0.40290  -0.40074  -0.39495  -0.39273
 Alpha  occ. eigenvalues --   -0.38506  -0.38183  -0.37794  -0.37494  -0.37350
 Alpha  occ. eigenvalues --   -0.37292  -0.37088  -0.37015  -0.36680  -0.36553
 Alpha  occ. eigenvalues --   -0.36184  -0.36026  -0.34301  -0.34051  -0.33709
 Alpha  occ. eigenvalues --   -0.33629  -0.33194  -0.32974  -0.31367  -0.31107
 Alpha  occ. eigenvalues --   -0.31050  -0.30773  -0.29986  -0.29650  -0.29464
 Alpha  occ. eigenvalues --   -0.29322  -0.29130  -0.28974  -0.24097  -0.23832
 Alpha  occ. eigenvalues --   -0.21146  -0.20919
 Alpha virt. eigenvalues --   -0.08788  -0.08585  -0.01771  -0.01492  -0.00075
 Alpha virt. eigenvalues --    0.00162   0.02210   0.02459   0.03082   0.03409
 Alpha virt. eigenvalues --    0.04685   0.04909   0.05159   0.05411   0.06128

 Mulliken charges:
               1
     1  Mg   0.838509
     2  C   -0.002852
     3  C   -0.094592
     4  C   -0.045847
     5  C   -0.064135
     6  N   -0.256661
     7  C   -0.052677
     8  C   -0.013811
     9  C   -0.086900
    10  C    0.046024
    11  C    0.104824
    12  C    0.053653
    13  C   -0.071415
    14  H    0.035387
    15  N   -0.433091
    16  C    0.168141
    17  C   -0.177534
    18  C   -0.004121
    19  C    0.148597
    20  C    0.110284
    21  C    0.012265
    22  O   -0.249564
    23  C    0.062577
    24  N   -0.341086
    25  C    0.041074
    26  C   -0.028168
    27  C   -0.023965
    28  C    0.074836
    29  C    0.076147
    30  C    0.035169
    31  C   -0.004408
    32  N   -0.310639
    33  C    0.080561
    34  C   -0.169389
    35  C    0.008969
    36  C    0.083174
    37  C    0.127063
    38  C    0.047030
    39  O   -0.186864
    40  C   -0.005690
    41  C    0.213261
    42  O   -0.256084
    43  O   -0.305170
    44  C    0.157047
    45  H   -0.017836
    46  H   -0.016890
    47  H   -0.041438
    48  H    0.001265
    49  H   -0.004581
    50  H    0.025673
    51  H    0.016528
    52  H    0.016505
    53  H    0.010159
    54  H    0.044258
    55  H    0.018381
    56  H    0.017222
    57  H    0.005542
    58  H    0.026845
    59  H    0.038696
    60  H    0.037260
    61  H    0.035789
    62  H    0.030953
    63  H    0.016372
    64  H    0.009646
    65  H    0.023202
    66  H    0.012647
    67  H    0.004797
    68  H    0.006309
    69  H    0.004795
    70  H    0.008690
    71  H    0.016789
    72  H    0.029466
    73  H    0.048777
    74  H    0.008845
    75  H    0.046126
    76  H    0.035104
    77  H    0.043407
    78  H    0.045318
    79  H    0.055449
    80  Mg   0.837483
    81  C   -0.016273
    82  C   -0.088086
    83  C   -0.045664
    84  C   -0.065079
    85  N   -0.254388
    86  C   -0.049381
    87  C   -0.015072
    88  C   -0.090622
    89  C    0.045612
    90  C    0.114070
    91  C    0.062640
    92  C   -0.077396
    93  H    0.034427
    94  N   -0.423335
    95  C    0.162548
    96  C   -0.175324
    97  C   -0.008209
    98  C    0.151801
    99  C    0.099682
   100  C    0.015194
   101  O   -0.253608
   102  C    0.061377
   103  N   -0.350025
   104  C    0.037349
   105  C   -0.019697
   106  C   -0.034703
   107  C    0.089278
   108  C    0.073735
   109  C    0.034786
   110  C   -0.007569
   111  N   -0.324491
   112  C    0.078953
   113  C   -0.162604
   114  C    0.003899
   115  C    0.095837
   116  C    0.131068
   117  C    0.044902
   118  O   -0.185312
   119  C   -0.000118
   120  C    0.210979
   121  O   -0.251806
   122  O   -0.304912
   123  C    0.152286
   124  H   -0.020878
   125  H   -0.015988
   126  H   -0.040723
   127  H    0.000135
   128  H   -0.005241
   129  H    0.024898
   130  H    0.013881
   131  H    0.014219
   132  H    0.013610
   133  H    0.037822
   134  H    0.020417
   135  H    0.018950
   136  H    0.007998
   137  H    0.025175
   138  H    0.039198
   139  H    0.037784
   140  H    0.035906
   141  H    0.033642
   142  H    0.013984
   143  H    0.012021
   144  H    0.024721
   145  H    0.012171
   146  H    0.005358
   147  H    0.005814
   148  H    0.003378
   149  H    0.010779
   150  H    0.017619
   151  H    0.030370
   152  H    0.046084
   153  H    0.007273
   154  H    0.050110
   155  H    0.039611
   156  H    0.043891
   157  H    0.048568
   158  H    0.053215
 Sum of Mulliken charges =  -0.00000

 Dipole moment (field-independent basis, Debye):
    X=             -2.5662    Y=             -2.1743    Z=             -7.8667  Tot=              8.5556
 Quadrupole moment (field-independent basis, Debye-Ang):
   XX=           -506.7646   YY=           -546.3169   ZZ=           -452.9585
   XY=              8.1301   XZ=             -2.6515   YZ=            -51.7050

 Normal termination of Gaussian 16 at Fri Sep 10 22:22:30 2021.
