 Gaussian 16, Revision A.03,
 Gaussian 16:  ES64L-G16RevA.03 25-Dec-2016

 -----------------------------------
 #p cam-b3lyp/Def2SVP td=(nstates=5)
 -----------------------------------

 --------------------------------
 TDDFT excited states in gaussian
 --------------------------------
 Symbolic Z-matrix:
 Charge =  0 Multiplicity = 1

                         Standard orientation:
 ---------------------------------------------------------------------
 Center     Atomic      Atomic             Coordinates (Angstroms)
 Number     Number       Type             X           Y           Z
 ---------------------------------------------------------------------
      1         12           0        5.479427   -0.335371    0.022162
      2          6           0        5.427046    2.889055   -1.531077
      3          6           0        6.299578    1.244796    2.933088
      4          6           0        5.976087   -3.192198    1.306097
      5          6           0        5.778625   -1.704381   -3.168755
      6          7           0        5.792666    1.800508    0.512619
      7          6           0        5.683599    2.942394   -0.159224
      8          6           0        5.792716    4.205147    0.746823
      9          6           0        6.614304    3.574869    1.959151
     10          6           0        6.183703    2.125632    1.816963
     11          6           0        8.126603    3.657897    1.778702
     12          6           0        4.391364    4.725032    1.213369
     13          6           0        4.385680    6.129314    1.824363
     14          1           0        3.241809    6.994808    1.579771
     15          7           0        5.573326   -0.890117    1.915912
     16          6           0        5.908370   -0.111037    2.972352
     17          6           0        5.831734   -0.984256    4.163275
     18          6           0        5.609846   -2.379230    3.691147
     19          6           0        5.738708   -2.211361    2.266158
     20          6           0        5.916230   -0.469860    5.567556
     21          6           0        5.337018   -3.662116    4.410800
     22          8           0        5.406666   -4.797500    3.827169
     23          6           0        5.069219   -3.560087    5.856800
     24          7           0        6.048279   -2.175032   -0.783869
     25          6           0        6.133857   -3.267564   -0.017034
     26          6           0        6.277468   -4.508034   -0.848026
     27          6           0        6.027399   -4.058801   -2.359783
     28          6           0        5.854534   -2.537347   -2.128335
     29          6           0        7.628893   -5.228722   -0.746694
     30          6           0        4.926721   -4.815128   -3.145210
     31          6           0        3.569164   -4.501293   -2.557295
     32          7           0        5.409305    0.410031   -2.015117
     33          6           0        5.580878   -0.333887   -3.191477
     34          6           0        5.557327    0.621655   -4.314175
     35          6           0        5.389194    1.864982   -3.707781
     36          6           0        5.338890    1.699558   -2.294135
     37          6           0        5.740496    0.298390   -5.687632
     38          6           0        5.265038    3.297385   -3.923803
     39          8           0        5.146565    4.017643   -4.916116
     40          6           0        5.406810    4.030384   -2.517232
     41          6           0        4.288589    5.031243   -2.411534
     42          8           0        3.100714    4.657222   -2.331366
     43          8           0        4.802523    6.249540   -2.183136
     44          6           0        3.744406    7.284733   -2.038505
     45          1           0        6.787099    1.604794    3.841199
     46          1           0        6.042718   -4.208527    1.699890
     47          1           0        5.781405   -2.067452   -4.198136
     48          1           0        6.351561    5.032158    0.308453
     49          1           0        6.291217    3.973590    2.920587
     50          1           0        8.389961    4.021183    0.785431
     51          1           0        8.493048    2.641161    1.921732
     52          1           0        8.579183    4.253842    2.571670
     53          1           0        4.062190    4.145978    2.076156
     54          1           0        3.672811    4.685471    0.393953
     55          1           0        5.316230    6.658223    1.616419
     56          1           0        4.367526    6.029498    2.909677
     57          1           0        6.245609    0.568079    5.594731
     58          1           0        6.715969   -1.021637    6.061185
     59          1           0        4.982543   -0.609437    6.112605
     60          1           0        5.924483   -3.097033    6.349399
     61          1           0        4.808226   -4.565273    6.185940
     62          1           0        4.224740   -2.888208    6.012950
     63          1           0        5.533983   -5.253675   -0.569322
     64          1           0        6.920412   -4.175627   -2.974236
     65          1           0        7.547216   -6.270928   -0.437113
     66          1           0        8.260660   -4.665327   -0.060583
     67          1           0        8.226791   -5.209122   -1.657491
     68          1           0        5.071998   -5.891519   -3.060226
     69          1           0        4.906793   -4.565906   -4.206220
     70          1           0        3.496535   -5.200900   -1.725365
     71          1           0        2.784643   -4.685561   -3.291994
     72          1           0        3.539125   -3.494580   -2.140027
     73          1           0        4.990082    0.866381   -6.237388
     74          1           0        5.632076   -0.772135   -5.860330
     75          1           0        6.762219    0.644907   -5.842115
     76          1           0        6.385957    4.508233   -2.510058
     77          1           0        3.956954    8.065241   -2.769166
     78          1           0        3.729476    7.567611   -0.985812
     79          1           0        2.738027    6.990549   -2.338498
     80         12           0       -5.075530   -1.073578    0.226866
     81          6           0       -7.508786    1.558118    0.046586
     82          6           0       -2.750697    1.325945    0.913915
     83          6           0       -2.836236   -3.304227   -0.051069
     84          6           0       -7.303704   -3.067691   -1.563231
     85          7           0       -5.231885    1.123496    0.428515
     86          6           0       -6.218912    2.006270    0.399877
     87          6           0       -5.815906    3.436476    0.848975
     88          6           0       -4.243751    3.353936    0.532158
     89          6           0       -4.046350    1.845347    0.665749
     90          6           0       -3.894605    3.757177   -0.890812
     91          6           0       -6.082111    3.680750    2.375891
     92          6           0       -6.002997    5.144120    2.816410
     93          1           0       -6.911211    5.606187    3.862427
     94          7           0       -3.198483   -1.096268    0.870889
     95          6           0       -2.410422   -0.029204    1.119141
     96          6           0       -1.115568   -0.577308    1.551679
     97          6           0       -1.151063   -2.055208    1.380564
     98          6           0       -2.416834   -2.210547    0.692253
     99          6           0       -0.027940    0.273156    2.140919
    100          6           0       -0.196943   -3.146714    1.760641
    101          8           0       -0.318976   -4.337504    1.302431
    102          6           0        0.938163   -2.758680    2.610620
    103          7           0       -4.977897   -2.846364   -0.854814
    104          6           0       -3.910454   -3.658099   -0.756869
    105          6           0       -4.181134   -4.995634   -1.403478
    106          6           0       -5.743455   -4.999352   -1.745136
    107          6           0       -6.103593   -3.565444   -1.298387
    108          6           0       -3.382371   -5.295177   -2.671812
    109          6           0       -6.583249   -6.180513   -1.186322
    110          6           0       -6.654491   -6.095285    0.321343
    111          7           0       -7.117240   -0.896356   -0.457280
    112          6           0       -7.848651   -1.839118   -1.212466
    113          6           0       -9.151974   -1.222419   -1.534160
    114          6           0       -9.078864    0.055160   -0.958872
    115          6           0       -7.811227    0.230274   -0.340873
    116          6           0      -10.186674   -1.819910   -2.307787
    117          6           0       -9.781795    1.299352   -0.743030
    118          8           0      -10.923480    1.701579   -0.963226
    119          6           0       -8.748896    2.374229   -0.191534
    120          6           0       -9.376663    3.056656    0.992835
    121          8           0       -9.618560    2.420644    2.033788
    122          8           0       -9.387370    4.385355    0.781180
    123          6           0       -9.990612    5.106746    1.933357
    124          1           0       -1.905891    2.015270    0.910044
    125          1           0       -2.141376   -4.146585   -0.083705
    126          1           0       -8.090810   -3.660746   -2.033786
    127          1           0       -6.269045    4.236939    0.276534
    128          1           0       -3.661368    3.882598    1.282301
    129          1           0       -4.777130    3.919979   -1.491478
    130          1           0       -3.308818    2.940793   -1.292575
    131          1           0       -3.233025    4.628144   -0.884250
    132          1           0       -5.248264    3.264636    2.955787
    133          1           0       -7.026744    3.265664    2.669132
    134          1           0       -6.017603    5.832860    1.962970
    135          1           0       -5.028994    5.314325    3.281544
    136          1           0       -0.224845    1.341359    1.987380
    137          1           0        0.880310    0.078200    1.560448
    138          1           0        0.166571    0.040915    3.190156
    139          1           0        1.518057   -1.987682    2.108871
    140          1           0        1.456794   -3.689467    2.848398
    141          1           0        0.548554   -2.310312    3.531370
    142          1           0       -3.969483   -5.806686   -0.717554
    143          1           0       -5.923343   -5.045247   -2.829274
    144          1           0       -2.790276   -6.227374   -2.604769
    145          1           0       -2.739010   -4.450026   -2.877591
    146          1           0       -3.972705   -5.363643   -3.583962
    147          1           0       -6.100790   -7.132550   -1.420913
    148          1           0       -7.590327   -6.222341   -1.587609
    149          1           0       -5.717788   -6.562675    0.639465
    150          1           0       -7.516413   -6.643891    0.695733
    151          1           0       -6.633429   -5.052286    0.658004
    152          1           0      -11.117023   -1.613943   -1.795393
    153          1           0      -10.026325   -2.889318   -2.427831
    154          1           0      -10.063777   -1.278156   -3.249415
    155          1           0       -8.538619    3.072652   -1.002428
    156          1           0      -10.809191    5.715011    1.536329
    157          1           0       -9.154872    5.643243    2.420649
    158          1           0      -10.508947    4.515459    2.679127
 ---------------------------------------------------------------------

 SCF Done:  E(RCAM-B3LYP) =  -4069.81208110     A.U. after   19 cycles

 Excitation energies and oscillator strengths:

 Excited State   1:      Singlet-A      1.6596 eV  747.06 nm  f=0.2760  <S**2>=0.000
     309 -> 315       -0.11511
     310 -> 316        0.12506
     311 -> 313       -0.46392
     312 -> 314        0.50662
 This state for optimization and/or second-order correction.
 Total Energy, E(TD-HF/TD-DFT) =  -4069.75109047
 Copying the excited state density for this state as the 1-particle RhoCI density.

 Excited State   2:      Singlet-A      1.6878 eV  734.58 nm  f=0.5017  <S**2>=0.000
     309 -> 315        0.13218
     310 -> 316        0.11906
     311 -> 313        0.50515
     312 -> 314        0.46270

 Excited State   3:      Singlet-A      2.1826 eV  568.05 nm  f=0.0200  <S**2>=0.000
     309 -> 313        0.28745
     310 -> 314        0.57662
     311 -> 315       -0.11957
     312 -> 316       -0.24210

 Excited State   4:      Singlet-A      2.1961 eV  564.58 nm  f=0.1592  <S**2>=0.000
     309 -> 313        0.57272
     310 -> 314       -0.28414
     311 -> 315       -0.25191
     312 -> 316        0.12416

 Excited State   5:      Singlet-A      2.3966 eV  517.33 nm  f=0.0000  <S**2>=0.000
     312 -> 313        0.70656

 The electronic state is 1-A.
 Alpha  occ. eigenvalues --  -46.88089 -46.87477 -19.26629 -19.26226 -19.19382
 Alpha  occ. eigenvalues --  -19.19032 -19.19024 -19.18509 -19.18435 -19.17889
 Alpha  occ. eigenvalues --  -14.42733 -14.42303 -14.41683 -14.41181 -14.39699
 Alpha  occ. eigenvalues --  -14.39165 -14.38857 -14.38421 -10.39431 -10.38958
 Alpha  occ. eigenvalues --  -10.35653 -10.35182 -10.34659 -10.34067 -10.32031
 Alpha  occ. eigenvalues --  -10.31680 -10.31655 -10.31206 -10.31105 -10.30838
 Alpha  occ. eigenvalues --  -10.30829 -10.30762 -10.30415 -10.30222 -10.30177
 Alpha  occ. eigenvalues --  -10.30118 -10.29963 -10.29874 -10.29729 -10.29511
 Alpha  occ. eigenvalues --  -10.29250 -10.29227 -10.29084 -10.28953 -10.28644
 Alpha  occ. eigenvalues --  -10.28545 -10.28521 -10.28417 -10.28220 -10.28053
 Alpha  occ. eigenvalues --  -10.27993 -10.27896 -10.27844 -10.27820 -10.27746
 Alpha  occ. eigenvalues --  -10.27676 -10.27576 -10.27518 -10.27448 -10.27447
 Alpha  occ. eigenvalues --  -10.27376 -10.27312 -10.27303 -10.27286 -10.27238
 Alpha  occ. eigenvalues --  -10.27137 -10.26888 -10.26616 -10.26549 -10.26491
 Alpha  occ. eigenvalues --  -10.26237 -10.26168 -10.26137 -10.26043 -10.26018
 Alpha  occ. eigenvalues --  -10.25761 -10.25701 -10.25666 -10.25503 -10.25279
 Alpha  occ. eigenvalues --  -10.25095 -10.25012 -10.24695 -10.24617 -10.24514
 Alpha  occ. eigenvalues --  -10.24503  -3.16832  -3.16227  -1.91715  -1.91299
 Alpha  occ. eigenvalues --   -1.91142  -1.91109  -1.90697  -1.90534  -1.16979
 Alpha  occ. eigenvalues --   -1.16519  -1.08896  -1.08501  -1.07417  -1.06998
 Alpha  occ. eigenvalues --   -1.06816  -1.06758  -1.04864  -1.04301  -1.04006
 Alpha  occ. eigenvalues --   -1.03492  -1.03479  -1.02861  -1.02662  -1.01931
 Alpha  occ. eigenvalues --   -0.92243  -0.91809  -0.89674  -0.89496  -0.89335
 Alpha  occ. eigenvalues --   -0.88936  -0.88414  -0.88113  -0.88069  -0.87938
 Alpha  occ. eigenvalues --   -0.87625  -0.87525  -0.87497  -0.86935  -0.85279
 Alpha  occ. eigenvalues --   -0.84808  -0.84042  -0.83734  -0.83152  -0.82908
 Alpha  occ. eigenvalues --   -0.82740  -0.82455  -0.81868  -0.81443  -0.80860
 Alpha  occ. eigenvalues --   -0.80271  -0.79046  -0.78453  -0.77455  -0.77177
 Alpha  occ. eigenvalues --   -0.76968  -0.76732  -0.76194  -0.75645  -0.75046
 Alpha  occ. eigenvalues --   -0.74651  -0.73007  -0.72520  -0.71905  -0.71393
 Alpha  occ. eigenvalues --   -0.69950  -0.69616  -0.69149  -0.68638  -0.67893
 Alpha  occ. eigenvalues --   -0.67536  -0.67426  -0.67025  -0.65586  -0.65109
 Alpha  occ. eigenvalues --   -0.65088  -0.64864  -0.64596  -0.64481  -0.64409
 Alpha  occ. eigenvalues --   -0.64046  -0.62573  -0.62130  -0.60665  -0.60159
 Alpha  occ. eigenvalues --   -0.60099  -0.59594  -0.59224  -0.58817  -0.58743
 Alpha  occ. eigenvalues --   -0.58255  -0.57873  -0.57505  -0.57398  -0.57071
 Alpha  occ. eigenvalues --   -0.56561  -0.56287  -0.56027  -0.55766  -0.55735
 Alpha  occ. eigenvalues --   -0.55516  -0.55268  -0.55100  -0.54713  -0.54346
 Alpha  occ. eigenvalues --   -0.54210  -0.53709  -0.53528  -0.53500  -0.53180
 Alpha  occ. eigenvalues --   -0.53053  -0.53019  -0.52961  -0.52733  -0.52470
 Alpha  occ. eigenvalues --   -0.52455  -0.52264  -0.52136  -0.51920  -0.51726
 Alpha  occ. eigenvalues --   -0.51471  -0.51421  -0.51035  -0.50804  -0.50289
 Alpha  occ. eigenvalues --   -0.50216  -0.50084  -0.49790  -0.49780  -0.49692
 Alpha  occ. eigenvalues --   -0.49478  -0.49363  -0.49278  -0.49012  -0.48903
 Alpha  occ. eigenvalues --   -0.48865  -0.48683  -0.48615  -0.48376  -0.48227
 Alpha  occ. eigenvalues --   -0.48144  -0.47928  -0.47527  -0.47412  -0.47016
 Alpha  occ. eigenvalues --   -0.46946  -0.46852  -0.46590  -0.46536  -0.46371
 Alpha  occ. eigenvalues --   -0.46358  -0.46104  -0.46082  -0.45932  -0.45665
 Alpha  occ. eigenvalues --   -0.45342  -0.45056  -0.44835  -0.44733  -0.44378
 Alpha  occ. eigenvalues --   -0.44353  -0.44310  -0.44272  -0.44245  -0.43929
 Alpha  occ. eigenvalues --   -0.43917  -0.43758  -0.43736  -0.43624  -0.43406
 Alpha  occ. eigenvalues --   -0.43261  -0.43208  -0.43003  -0.42787  -0.42757
 Alpha  occ. eigenvalues --   -0.42735  -0.42396  -0.42160  -0.41946  -0.41811
 Alpha  occ. eigenvalues --   -0.41792  -0.41495  -0.41384  -0.41285  -0.41125
 Alpha  occ. eigenvalues --   -0.41062  -0.40791  -0.40686  -0.40585  -0.40541
 Alpha  occ. eigenvalues --   -0.40511  -0.40331  -0.40059  -0.39452  -0.39288
 Alpha  occ. eigenvalues --   -0.38626  -0.38196  -0.38086  -0.37574  -0.37495
 Alpha  occ. eigenvalues --   -0.37487  -0.37100  -0.37015  -0.37005  -0.36638
 Alpha  occ. eigenvalues --   -0.36419  -0.36059  -0.34544  -0.34115  -0.34075
 Alpha  occ. eigenvalues --   -0.33723  -0.33443  -0.32992  -0.31545  -0.31283
 Alpha  occ. eigenvalues --   -0.31064  -0.30786  -0.30296  -0.29795  -0.29718
 Alpha  occ. eigenvalues --   -0.29585  -0.29148  -0.29036  -0.24342  -0.23850
 Alpha  occ. eigenvalues --   -0.21378  -0.20934
 Alpha virt. eigenvalues --   -0.09031  -0.08610  -0.02001  -0.01501  -0.00316
 Alpha virt. eigenvalues --    0.00163   0.01922   0.02072   0.02401   0.03382
 Alpha virt. eigenvalues --    0.04428   0.04757   0.04917   0.05303   0.05787

 Mulliken charges:
               1
     1  Mg   0.831142
     2  C   -0.003723
     3  C   -0.094719
     4  C   -0.043649
     5  C   -0.062743
     6  N   -0.256687
     7  C   -0.053625
     8  C   -0.013451
     9  C   -0.086705
    10  C    0.045021
    11  C    0.104678
    12  C    0.053508
    13  C   -0.071542
    14  H    0.034544
    15  N   -0.434691
    16  C    0.166993
    17  C   -0.178890
    18  C   -0.004686
    19  C    0.146642
    20  C    0.110413
    21  C    0.012043
    22  O   -0.247316
    23  C    0.062809
    24  N   -0.340960
    25  C    0.041402
    26  C   -0.028582
    27  C   -0.024307
    28  C    0.075622
    29  C    0.075872
    30  C    0.034558
    31  C   -0.004135
    32  N   -0.310842
    33  C    0.080792
    34  C   -0.169044
    35  C    0.008553
    36  C    0.082574
    37  C    0.127232
    38  C    0.046159
    39  O   -0.187920
    40  C   -0.005465
    41  C    0.213320
    42  O   -0.259102
    43  O   -0.304212
    44  C    0.157705
    45  H   -0.017487
    46  H   -0.015067
    47  H   -0.040313
    48  H    0.001528
    49  H   -0.004399
    50  H    0.025792
    51  H    0.017094
    52  H    0.017109
    53  H    0.009175
    54  H    0.042041
    55  H    0.019344
    56  H    0.018183
    57  H    0.005845
    58  H    0.027812
    59  H    0.038115
    60  H    0.037791
    61  H    0.037417
    62  H    0.029263
    63  H    0.019654
    64  H    0.009495
    65  H    0.024306
    66  H    0.012082
    67  H    0.004909
    68  H    0.007080
    69  H    0.003886
    70  H    0.014541
    71  H    0.018972
    72  H    0.027260
    73  H    0.047856
    74  H    0.010027
    75  H    0.046470
    76  H    0.035729
    77  H    0.043983
    78  H    0.046157
    79  H    0.052576
    80  Mg   0.837928
    81  C   -0.016890
    82  C   -0.087743
    83  C   -0.045475
    84  C   -0.064966
    85  N   -0.254608
    86  C   -0.049655
    87  C   -0.015167
    88  C   -0.090266
    89  C    0.045145
    90  C    0.113931
    91  C    0.062694
    92  C   -0.077317
    93  H    0.033727
    94  N   -0.423714
    95  C    0.162862
    96  C   -0.175545
    97  C   -0.008017
    98  C    0.152636
    99  C    0.101690
   100  C    0.014011
   101  O   -0.252618
   102  C    0.057253
   103  N   -0.349962
   104  C    0.037700
   105  C   -0.019837
   106  C   -0.034739
   107  C    0.088805
   108  C    0.073697
   109  C    0.034863
   110  C   -0.007591
   111  N   -0.323999
   112  C    0.078262
   113  C   -0.163432
   114  C    0.002157
   115  C    0.096038
   116  C    0.131535
   117  C    0.042141
   118  O   -0.188489
   119  C    0.000995
   120  C    0.211161
   121  O   -0.251378
   122  O   -0.305465
   123  C    0.152221
   124  H   -0.015788
   125  H   -0.015877
   126  H   -0.040938
   127  H   -0.000711
   128  H   -0.004990
   129  H    0.021738
   130  H    0.017540
   131  H    0.018245
   132  H    0.013329
   133  H    0.037261
   134  H    0.021010
   135  H    0.018986
   136  H    0.010539
   137  H    0.026224
   138  H    0.037448
   139  H    0.041158
   140  H    0.043123
   141  H    0.030229
   142  H    0.014161
   143  H    0.012216
   144  H    0.024249
   145  H    0.012073
   146  H    0.005455
   147  H    0.005809
   148  H    0.003425
   149  H    0.010832
   150  H    0.017526
   151  H    0.030268
   152  H    0.045550
   153  H    0.008148
   154  H    0.046888
   155  H    0.035265
   156  H    0.043653
   157  H    0.049326
   158  H    0.053241
 Sum of Mulliken charges =  -0.00000

 Dipole moment (field-independent basis, Debye):
    X=              6.4175    Y=              2.1156    Z=              3.7471  Tot=              7.7266
 Quadrupole moment (field-independent basis, Debye-Ang):
   XX=           -554.4929   YY=           -485.1858   ZZ=           -501.1017
   XY=             17.5648   XZ=             25.3936   YZ=             52.4537

 Normal termination of Gaussian 16 at Sat Sep 11 01:14:40 2021.
