 Gaussian 16, Revision A.03,
 Gaussian 16:  ES64L-G16RevA.03 25-Dec-2016

 -----------------------------------
 #p cam-b3lyp/Def2SVP td=(nstates=5)
 -----------------------------------

 --------------------------------
 TDDFT excited states in gaussian
 --------------------------------
 Symbolic Z-matrix:
 Charge =  0 Multiplicity = 1

                         Standard orientation:
 ---------------------------------------------------------------------
 Center     Atomic      Atomic             Coordinates (Angstroms)
 Number     Number       Type             X           Y           Z
 ---------------------------------------------------------------------
      1         12           0        6.483922   -0.871466    0.355806
      2          6           0        6.970288    1.796931   -1.979857
      3          6           0        7.678212    1.223129    2.770223
      4          6           0        6.492233   -3.342988    2.342795
      5          6           0        6.418537   -3.045678   -2.367094
      6          7           0        7.199628    1.222058    0.281167
      7          6           0        7.278792    2.152537   -0.664937
      8          6           0        7.648143    3.562758   -0.115183
      9          6           0        8.381131    3.124085    1.231031
     10          6           0        7.687751    1.793085    1.462519
     11          6           0        9.876019    2.875561    1.057684
     12          6           0        6.382439    4.436013    0.180030
     13          6           0        6.654887    5.925928    0.406482
     14          1           0        5.681272    6.896313   -0.070775
     15          7           0        6.538983   -0.928178    2.329787
     16          6           0        7.046819    0.020041    3.153358
     17          6           0        6.852080   -0.487709    4.528476
     18          6           0        6.362473   -1.890831    4.430357
     19          6           0        6.471349   -2.121891    3.012564
     20          6           0        7.077102    0.345445    5.752800
     21          6           0        5.883898   -2.871812    5.453476
     22          8           0        5.724483   -4.111556    5.184785
     23          6           0        5.688674   -2.353581    6.819627
     24          7           0        6.678389   -2.929020    0.062057
     25          6           0        6.588420   -3.783910    1.086777
     26          6           0        6.474006   -5.200643    0.607489
     27          6           0        6.259178   -5.116791   -0.972565
     28          6           0        6.375925   -3.582276   -1.145491
     29          6           0        7.673194   -6.109074    0.911975
     30          6           0        5.012503   -5.831561   -1.551638
     31          6           0        3.756210   -5.130651   -1.085214
     32          7           0        6.482265   -0.675256   -1.805801
     33          6           0        6.474536   -1.715049   -2.746782
     34          6           0        6.588245   -1.093079   -4.078807
     35          6           0        6.671448    0.273179   -3.817538
     36          6           0        6.639816    0.489051   -2.410168
     37          6           0        6.662262   -1.786758   -5.318874
     38          6           0        6.804514    1.599161   -4.398849
     39          8           0        6.786298    2.049141   -5.545443
     40          6           0        7.125932    2.629583   -3.228060
     41          6           0        6.214233    3.813632   -3.401673
     42          8           0        4.981370    3.700150   -3.245029
     43          8           0        6.950115    4.932299   -3.488875
     44          6           0        6.105081    6.147754   -3.632885
     45          1           0        8.254038    1.707448    3.561298
     46          1           0        6.384916   -4.217992    2.987226
     47          1           0        6.319737   -3.655150   -3.267225
     48          1           0        8.333786    4.130588   -0.744378
     49          1           0        8.169451    3.809391    2.051562
     50          1           0       10.167522    2.915834    0.008244
     51          1           0       10.054660    1.880022    1.464479
     52          1           0       10.456821    3.560537    1.675951
     53          1           0        5.982307    4.169790    1.158335
     54          1           0        5.641344    4.321299   -0.611768
     55          1           0        7.658957    6.201245    0.082518
     56          1           0        6.655690    6.113644    1.480242
     57          1           0        7.591775    1.275612    5.515214
     58          1           0        7.778552   -0.199482    6.384252
     59          1           0        6.152739    0.526605    6.301495
     60          1           0        6.630546   -1.946644    7.188176
     61          1           0        5.259312   -3.173788    7.393872
     62          1           0        4.987374   -1.519401    6.783969
     63          1           0        5.616430   -5.698056    1.058676
     64          1           0        7.094248   -5.551405   -1.522513
     65          1           0        7.412560   -7.002722    1.479573
     66          1           0        8.420447   -5.515719    1.438123
     67          1           0        8.233225   -6.435676    0.036125
     68          1           0        4.960947   -6.857519   -1.188738
     69          1           0        5.002481   -5.864263   -2.641171
     70          1           0        3.584998   -5.566784   -0.101696
     71          1           0        2.926675   -5.348572   -1.758707
     72          1           0        3.925310   -4.063060   -0.943295
     73          1           0        6.010333   -1.250044   -6.008000
     74          1           0        6.353759   -2.826278   -5.210122
     75          1           0        7.724315   -1.687606   -5.542634
     76          1           0        8.175714    2.902753   -3.330323
     77          1           0        6.432028    6.660659   -4.537467
     78          1           0        6.178046    6.689423   -2.689658
     79          1           0        5.052227    5.978550   -3.861376
     80         12           0       -6.648317    0.765296    0.628555
     81          6           0       -6.840681   -2.076084   -1.555160
     82          6           0       -5.596382    2.575603   -2.064180
     83          6           0       -6.037783    3.168628    2.608120
     84          6           0       -6.599849   -1.468373    3.303270
     85          7           0       -6.303070    0.209741   -1.484359
     86          6           0       -6.468754   -0.884563   -2.211950
     87          6           0       -6.300009   -0.672384   -3.740368
     88          6           0       -5.370494    0.636540   -3.700254
     89          6           0       -5.803112    1.202224   -2.349143
     90          6           0       -3.886053    0.318632   -3.631772
     91          6           0       -7.665385   -0.385499   -4.458330
     92          6           0       -7.620197   -0.474672   -5.985341
     93          1           0       -8.790143   -0.995508   -6.687069
     94          7           0       -6.399152    2.699687    0.261677
     95          6           0       -5.988100    3.262381   -0.894045
     96          6           0       -5.948236    4.711561   -0.644091
     97          6           0       -6.210622    4.945534    0.801975
     98          6           0       -6.205314    3.582718    1.294731
     99          6           0       -5.759521    5.721201   -1.738821
    100          6           0       -6.417676    6.190646    1.610079
    101          8           0       -6.393396    6.173536    2.891465
    102          6           0       -6.556576    7.445550    0.856819
    103          7           0       -6.147354    0.838606    2.644988
    104          6           0       -5.987722    2.015519    3.275328
    105          6           0       -5.904420    1.826249    4.771193
    106          6           0       -6.285331    0.295154    5.032398
    107          6           0       -6.442952   -0.179249    3.571067
    108          6           0       -4.546767    2.127974    5.405328
    109          6           0       -7.444593    0.018387    6.028482
    110          6           0       -8.751684    0.508514    5.448252
    111          7           0       -6.892714   -1.366728    0.879118
    112          6           0       -6.809339   -2.099133    2.083575
    113          6           0       -6.930053   -3.529108    1.732837
    114          6           0       -7.053165   -3.530844    0.335214
    115          6           0       -6.991810   -2.197518   -0.152601
    116          6           0       -6.869522   -4.618007    2.647588
    117          6           0       -7.210415   -4.358160   -0.839307
    118          8           0       -7.406067   -5.556503   -1.037919
    119          6           0       -6.952893   -3.462219   -2.126696
    120          6           0       -8.062200   -3.728138   -3.107126
    121          8           0       -9.233333   -3.407092   -2.838805
    122          8           0       -7.529770   -4.115685   -4.280454
    123          6           0       -8.590355   -4.380552   -5.288827
    124          1           0       -5.044419    3.177941   -2.786269
    125          1           0       -5.934610    3.968391    3.345143
    126          1           0       -6.692421   -2.220840    4.089332
    127          1           0       -5.788659   -1.475857   -4.256810
    128          1           0       -5.624397    1.325991   -4.501230
    129          1           0       -3.705925   -0.738153   -3.501747
    130          1           0       -3.504962    0.874375   -2.785032
    131          1           0       -3.373669    0.719845   -4.510873
    132          1           0       -7.916244    0.676422   -4.339485
    133          1           0       -8.436573   -1.028819   -4.081460
    134          1           0       -6.707264   -0.966421   -6.342692
    135          1           0       -7.555155    0.538142   -6.390320
    136          1           0       -5.427063    5.246970   -2.670474
    137          1           0       -4.919382    6.359256   -1.443981
    138          1           0       -6.641651    6.346632   -1.891651
    139          1           0       -5.668148    7.602597    0.249790
    140          1           0       -6.786079    8.209764    1.601932
    141          1           0       -7.398425    7.345557    0.162623
    142          1           0       -6.620615    2.458534    5.281482
    143          1           0       -5.441054   -0.268160    5.456328
    144          1           0       -4.597809    2.893527    6.202446
    145          1           0       -3.866166    2.437887    4.623482
    146          1           0       -4.033855    1.266776    5.830129
    147          1           0       -7.288355    0.575314    6.955614
    148          1           0       -7.544654   -1.028571    6.294671
    149          1           0       -8.746282    1.574717    5.693755
    150          1           0       -9.592742    0.000172    5.915436
    151          1           0       -8.754266    0.421885    4.355486
    152          1           0       -7.657586   -5.304231    2.367333
    153          1           0       -6.982336   -4.280311    3.675695
    154          1           0       -5.860500   -4.986970    2.445099
    155          1           0       -5.976975   -3.738157   -2.527977
    156          1           0       -8.439181   -5.402273   -5.650655
    157          1           0       -8.506301   -3.565405   -6.031950
    158          1           0       -9.614499   -4.429827   -4.937911
 ---------------------------------------------------------------------

 SCF Done:  E(RCAM-B3LYP) =  -4069.81202775     A.U. after   19 cycles

 Excitation energies and oscillator strengths:

 Excited State   1:      Singlet-A      1.6737 eV  740.78 nm  f=0.3185  <S**2>=0.000
     310 -> 316        0.15623
     311 -> 313        0.29170
     312 -> 314        0.62095
 This state for optimization and/or second-order correction.
 Total Energy, E(TD-HF/TD-DFT) =  -4069.75052076
 Copying the excited state density for this state as the 1-particle RhoCI density.

 Excited State   2:      Singlet-A      1.6804 eV  737.83 nm  f=0.4131  <S**2>=0.000
     309 -> 315        0.15903
     311 -> 313        0.62055
     312 -> 314       -0.29165

 Excited State   3:      Singlet-A      2.1857 eV  567.25 nm  f=0.1004  <S**2>=0.000
     310 -> 314        0.64233
     312 -> 316       -0.27227

 Excited State   4:      Singlet-A      2.1927 eV  565.44 nm  f=0.0983  <S**2>=0.000
     309 -> 313        0.64051
     311 -> 315       -0.27813

 Excited State   5:      Singlet-A      2.6460 eV  468.56 nm  f=0.0000  <S**2>=0.000
     312 -> 313        0.70710

 The electronic state is 1-A.
 Alpha  occ. eigenvalues --  -46.87860 -46.87548 -19.26408 -19.26249 -19.19146
 Alpha  occ. eigenvalues --  -19.19061 -19.18867 -19.18630 -19.18258 -19.17949
 Alpha  occ. eigenvalues --  -14.42514 -14.42374 -14.41508 -14.41253 -14.39465
 Alpha  occ. eigenvalues --  -14.39241 -14.38655 -14.38490 -10.39200 -10.38989
 Alpha  occ. eigenvalues --  -10.35500 -10.35308 -10.34479 -10.34126 -10.31815
 Alpha  occ. eigenvalues --  -10.31661 -10.31474 -10.31177 -10.30974 -10.30897
 Alpha  occ. eigenvalues --  -10.30639 -10.30572 -10.30296 -10.30257 -10.30246
 Alpha  occ. eigenvalues --  -10.30039 -10.29980 -10.29800 -10.29696 -10.29325
 Alpha  occ. eigenvalues --  -10.29314 -10.29296 -10.28820 -10.28619 -10.28566
 Alpha  occ. eigenvalues --  -10.28514 -10.28433 -10.28290 -10.28182 -10.27961
 Alpha  occ. eigenvalues --  -10.27891 -10.27861 -10.27789 -10.27648 -10.27536
 Alpha  occ. eigenvalues --  -10.27536 -10.27533 -10.27485 -10.27472 -10.27448
 Alpha  occ. eigenvalues --  -10.27370 -10.27361 -10.27337 -10.27313 -10.27249
 Alpha  occ. eigenvalues --  -10.26942 -10.26785 -10.26555 -10.26457 -10.26338
 Alpha  occ. eigenvalues --  -10.26294 -10.26205 -10.26082 -10.26077 -10.25923
 Alpha  occ. eigenvalues --  -10.25831 -10.25777 -10.25757 -10.25463 -10.25358
 Alpha  occ. eigenvalues --  -10.24905 -10.24847 -10.24764 -10.24706 -10.24677
 Alpha  occ. eigenvalues --  -10.24589  -3.16603  -3.16298  -1.91485  -1.91180
 Alpha  occ. eigenvalues --   -1.91071  -1.90913  -1.90769  -1.90606  -1.16756
 Alpha  occ. eigenvalues --   -1.16543  -1.08720  -1.08557  -1.07267  -1.06884
 Alpha  occ. eigenvalues --   -1.06845  -1.06767  -1.04646  -1.04372  -1.03820
 Alpha  occ. eigenvalues --   -1.03551  -1.03298  -1.02933  -1.02474  -1.02002
 Alpha  occ. eigenvalues --   -0.92046  -0.91875  -0.89569  -0.89404  -0.89256
 Alpha  occ. eigenvalues --   -0.88993  -0.88333  -0.88139  -0.87942  -0.87736
 Alpha  occ. eigenvalues --   -0.87688  -0.87563  -0.87332  -0.87014  -0.85050
 Alpha  occ. eigenvalues --   -0.84864  -0.83983  -0.83802  -0.83017  -0.82842
 Alpha  occ. eigenvalues --   -0.82717  -0.82528  -0.81675  -0.81490  -0.80670
 Alpha  occ. eigenvalues --   -0.80334  -0.78859  -0.78526  -0.77278  -0.77026
 Alpha  occ. eigenvalues --   -0.77006  -0.76782  -0.75999  -0.75703  -0.74950
 Alpha  occ. eigenvalues --   -0.74718  -0.72838  -0.72589  -0.71735  -0.71465
 Alpha  occ. eigenvalues --   -0.69944  -0.69683  -0.68940  -0.68698  -0.67708
 Alpha  occ. eigenvalues --   -0.67496  -0.67288  -0.67079  -0.65358  -0.65141
 Alpha  occ. eigenvalues --   -0.64926  -0.64689  -0.64661  -0.64540  -0.64321
 Alpha  occ. eigenvalues --   -0.64115  -0.62390  -0.62177  -0.60498  -0.60240
 Alpha  occ. eigenvalues --   -0.59872  -0.59656  -0.59052  -0.58885  -0.58572
 Alpha  occ. eigenvalues --   -0.58320  -0.57676  -0.57448  -0.57371  -0.57143
 Alpha  occ. eigenvalues --   -0.56379  -0.56093  -0.56076  -0.55778  -0.55585
 Alpha  occ. eigenvalues --   -0.55403  -0.55346  -0.55162  -0.54598  -0.54401
 Alpha  occ. eigenvalues --   -0.53964  -0.53762  -0.53361  -0.53291  -0.53126
 Alpha  occ. eigenvalues --   -0.53027  -0.52994  -0.52816  -0.52788  -0.52551
 Alpha  occ. eigenvalues --   -0.52476  -0.52331  -0.51992  -0.51786  -0.51688
 Alpha  occ. eigenvalues --   -0.51530  -0.51266  -0.51096  -0.50623  -0.50372
 Alpha  occ. eigenvalues --   -0.50075  -0.49976  -0.49862  -0.49774  -0.49581
 Alpha  occ. eigenvalues --   -0.49370  -0.49288  -0.49167  -0.49082  -0.48967
 Alpha  occ. eigenvalues --   -0.48672  -0.48518  -0.48508  -0.48436  -0.48296
 Alpha  occ. eigenvalues --   -0.48239  -0.47758  -0.47480  -0.47358  -0.47013
 Alpha  occ. eigenvalues --   -0.46857  -0.46626  -0.46600  -0.46424  -0.46416
 Alpha  occ. eigenvalues --   -0.46231  -0.46168  -0.45992  -0.45906  -0.45715
 Alpha  occ. eigenvalues --   -0.45249  -0.45126  -0.44658  -0.44564  -0.44409
 Alpha  occ. eigenvalues --   -0.44346  -0.44205  -0.44152  -0.44091  -0.43999
 Alpha  occ. eigenvalues --   -0.43984  -0.43831  -0.43582  -0.43450  -0.43446
 Alpha  occ. eigenvalues --   -0.43268  -0.43094  -0.42828  -0.42800  -0.42796
 Alpha  occ. eigenvalues --   -0.42706  -0.42467  -0.42066  -0.41866  -0.41773
 Alpha  occ. eigenvalues --   -0.41600  -0.41560  -0.41336  -0.41203  -0.40929
 Alpha  occ. eigenvalues --   -0.40878  -0.40864  -0.40620  -0.40617  -0.40580
 Alpha  occ. eigenvalues --   -0.40396  -0.40305  -0.40096  -0.39475  -0.39353
 Alpha  occ. eigenvalues --   -0.38516  -0.38261  -0.37821  -0.37526  -0.37372
 Alpha  occ. eigenvalues --   -0.37335  -0.37168  -0.37071  -0.36812  -0.36675
 Alpha  occ. eigenvalues --   -0.36267  -0.36118  -0.34351  -0.34143  -0.33886
 Alpha  occ. eigenvalues --   -0.33760  -0.33254  -0.33065  -0.31397  -0.31188
 Alpha  occ. eigenvalues --   -0.31100  -0.30862  -0.30119  -0.29854  -0.29513
 Alpha  occ. eigenvalues --   -0.29393  -0.29221  -0.29104  -0.24145  -0.23923
 Alpha  occ. eigenvalues --   -0.21190  -0.21005
 Alpha virt. eigenvalues --   -0.08839  -0.08682  -0.01810  -0.01577  -0.00120
 Alpha virt. eigenvalues --    0.00080   0.02126   0.02308   0.03052   0.03327
 Alpha virt. eigenvalues --    0.04653   0.04859   0.04983   0.05268   0.06101

 Mulliken charges:
               1
     1  Mg   0.838649
     2  C   -0.003181
     3  C   -0.094082
     4  C   -0.045772
     5  C   -0.063893
     6  N   -0.256828
     7  C   -0.052517
     8  C   -0.014026
     9  C   -0.087016
    10  C    0.046362
    11  C    0.104765
    12  C    0.053435
    13  C   -0.071759
    14  H    0.035686
    15  N   -0.433197
    16  C    0.168515
    17  C   -0.177038
    18  C   -0.003876
    19  C    0.148756
    20  C    0.110134
    21  C    0.012344
    22  O   -0.249322
    23  C    0.062443
    24  N   -0.341160
    25  C    0.041350
    26  C   -0.028284
    27  C   -0.023993
    28  C    0.074819
    29  C    0.076101
    30  C    0.035077
    31  C   -0.004577
    32  N   -0.310357
    33  C    0.080210
    34  C   -0.170011
    35  C    0.008139
    36  C    0.082769
    37  C    0.127415
    38  C    0.045721
    39  O   -0.188995
    40  C   -0.005194
    41  C    0.212858
    42  O   -0.257853
    43  O   -0.304534
    44  C    0.157948
    45  H   -0.017438
    46  H   -0.016553
    47  H   -0.041429
    48  H    0.000877
    49  H   -0.003898
    50  H    0.025466
    51  H    0.016560
    52  H    0.016814
    53  H    0.011408
    54  H    0.043644
    55  H    0.017962
    56  H    0.018295
    57  H    0.005994
    58  H    0.027015
    59  H    0.039697
    60  H    0.037467
    61  H    0.035800
    62  H    0.031422
    63  H    0.016864
    64  H    0.009550
    65  H    0.023527
    66  H    0.012497
    67  H    0.004882
    68  H    0.006870
    69  H    0.004665
    70  H    0.009188
    71  H    0.018435
    72  H    0.028454
    73  H    0.046950
    74  H    0.009226
    75  H    0.046129
    76  H    0.035274
    77  H    0.042886
    78  H    0.046659
    79  H    0.052808
    80  Mg   0.838004
    81  C   -0.016794
    82  C   -0.087325
    83  C   -0.045688
    84  C   -0.064981
    85  N   -0.254651
    86  C   -0.049568
    87  C   -0.015156
    88  C   -0.090467
    89  C    0.045613
    90  C    0.114041
    91  C    0.062469
    92  C   -0.077841
    93  H    0.034355
    94  N   -0.423600
    95  C    0.162827
    96  C   -0.174065
    97  C   -0.008083
    98  C    0.152392
    99  C    0.099169
   100  C    0.015470
   101  O   -0.253715
   102  C    0.061238
   103  N   -0.350041
   104  C    0.037614
   105  C   -0.019785
   106  C   -0.034777
   107  C    0.088873
   108  C    0.073821
   109  C    0.034845
   110  C   -0.007609
   111  N   -0.324059
   112  C    0.078378
   113  C   -0.163285
   114  C    0.002219
   115  C    0.096141
   116  C    0.131517
   117  C    0.042223
   118  O   -0.188264
   119  C    0.000980
   120  C    0.211259
   121  O   -0.251172
   122  O   -0.305541
   123  C    0.152102
   124  H   -0.018271
   125  H   -0.016071
   126  H   -0.040763
   127  H   -0.000529
   128  H   -0.004120
   129  H    0.022201
   130  H    0.015435
   131  H    0.018237
   132  H    0.013794
   133  H    0.037326
   134  H    0.021165
   135  H    0.019828
   136  H    0.009547
   137  H    0.026518
   138  H    0.039490
   139  H    0.038409
   140  H    0.035909
   141  H    0.033906
   142  H    0.014110
   143  H    0.012231
   144  H    0.024452
   145  H    0.011784
   146  H    0.005250
   147  H    0.005778
   148  H    0.003568
   149  H    0.010735
   150  H    0.017720
   151  H    0.030361
   152  H    0.045735
   153  H    0.008273
   154  H    0.047000
   155  H    0.035154
   156  H    0.043661
   157  H    0.049706
   158  H    0.053387
 Sum of Mulliken charges =  -0.00000

 Dipole moment (field-independent basis, Debye):
    X=              4.6851    Y=              4.1598    Z=              1.6571  Tot=              6.4808
 Quadrupole moment (field-independent basis, Debye-Ang):
   XX=           -519.4713   YY=           -510.0766   ZZ=           -488.9974
   XY=            -13.0133   XZ=             39.6717   YZ=              7.9193

 Normal termination of Gaussian 16 at Sat Sep 11 03:14:14 2021.
