 Gaussian 16, Revision A.03,
 Gaussian 16:  ES64L-G16RevA.03 25-Dec-2016

 -----------------------------------
 #p cam-b3lyp/Def2SVP td=(nstates=5)
 -----------------------------------

 --------------------------------
 TDDFT excited states in gaussian
 --------------------------------
 Symbolic Z-matrix:
 Charge =  0 Multiplicity = 1

                         Standard orientation:
 ---------------------------------------------------------------------
 Center     Atomic      Atomic             Coordinates (Angstroms)
 Number     Number       Type             X           Y           Z
 ---------------------------------------------------------------------
      1         12           0       15.780906   -0.688103    0.415256
      2          6           0       16.077802    1.952467   -1.982963
      3          6           0       16.759472    1.559016    2.789268
      4          6           0       15.965710   -3.099764    2.466197
      5          6           0       15.938473   -2.927523   -2.250420
      6          7           0       16.320244    1.455568    0.295111
      7          6           0       16.335651    2.365465   -0.673921
      8          6           0       16.577557    3.815006   -0.156535
      9          6           0       17.324246    3.473174    1.210068
     10          6           0       16.741080    2.094893    1.467327
     11          6           0       18.837114    3.346702    1.062636
     12          6           0       15.239012    4.586086    0.099324
     13          6           0       15.382582    6.098801    0.290205
     14          1           0       14.338606    6.971835   -0.224841
     15          7           0       15.810735   -0.690629    2.390593
     16          6           0       16.225095    0.317148    3.195563
     17          6           0       16.052742   -0.170615    4.580865
     18          6           0       15.683610   -1.611884    4.513180
     19          6           0       15.832781   -1.868364    3.103449
     20          6           0       16.188879    0.708827    5.785771
     21          6           0       15.273292   -2.603676    5.555350
     22          8           0       15.222083   -3.858753    5.317161
     23          6           0       15.014872   -2.069664    6.904829
     24          7           0       16.151005   -2.728782    0.178003
     25          6           0       16.117330   -3.562321    1.223499
     26          6           0       16.128923   -4.995196    0.780017
     27          6           0       15.931694   -4.969191   -0.804337
     28          6           0       15.922422   -3.435096   -1.015843
     29          6           0       17.395087   -5.791907    1.123662
     30          6           0       14.757971   -5.800297   -1.380580
     31          6           0       13.440620   -5.195831   -0.948950
     32          7           0       15.795462   -0.546823   -1.750586
     33          6           0       15.888825   -1.606796   -2.664050
     34          6           0       15.970247   -1.010973   -4.010316
     35          6           0       15.935062    0.363551   -3.783843
     36          6           0       15.864283    0.611123   -2.383132
     37          6           0       16.120655   -1.726778   -5.230740
     38          6           0       15.965632    1.681074   -4.397891
     39          8           0       15.927179    2.099135   -5.556010
     40          6           0       16.182143    2.763778   -3.250414
     41          6           0       15.177429    3.862441   -3.466738
     42          8           0       13.956136    3.649866   -3.323138
     43          8           0       15.818507    5.036378   -3.573665
     44          6           0       14.877147    6.172662   -3.760357
     45          1           0       17.280824    2.109568    3.574778
     46          1           0       15.922167   -3.964302    3.131867
     47          1           0       15.904525   -3.565447   -3.135493
     48          1           0       17.222773    4.422456   -0.791455
     49          1           0       17.043699    4.158599    2.009573
     50          1           0       19.140028    3.385044    0.016360
     51          1           0       19.092151    2.380145    1.497626
     52          1           0       19.349267    4.093237    1.670224
     53          1           0       14.847812    4.311768    1.079004
     54          1           0       14.522117    4.389835   -0.698720
     55          1           0       16.364910    6.449211   -0.027839
     56          1           0       15.351504    6.312706    1.358605
     57          1           0       16.627563    1.672667    5.530597
     58          1           0       16.923801    0.240635    6.440290
     59          1           0       15.244443    0.825447    6.317534
     60          1           0       15.913787   -1.576046    7.274752
     61          1           0       14.646926   -2.908392    7.494744
     62          1           0       14.246948   -1.298423    6.838281
     63          1           0       15.309197   -5.551376    1.232939
     64          1           0       16.808355   -5.345816   -1.331873
     65          1           0       17.201496   -6.689803    1.711038
     66          1           0       18.082134   -5.124977    1.643722
     67          1           0       17.993592   -6.092159    0.263978
     68          1           0       14.786845   -6.817570   -0.991647
     69          1           0       14.767150   -5.860952   -2.468922
     70          1           0       13.291631   -5.620068    0.043349
     71          1           0       12.642444   -5.499355   -1.627183
     72          1           0       13.517775   -4.114603   -0.832848
     73          1           0       15.436631   -1.264054   -5.942053
     74          1           0       15.898475   -2.785473   -5.098816
     75          1           0       17.173964   -1.544487   -5.443263
     76          1           0       17.206855    3.121426   -3.346206
     77          1           0       15.173704    6.688417   -4.673750
     78          1           0       14.890368    6.741953   -2.830767
     79          1           0       13.845677    5.910054   -3.997941
     80         12           0      -15.950682    0.593151    0.569340
     81          6           0      -15.872027   -2.308050   -1.541561
     82          6           0      -15.013182    2.417455   -2.156024
     83          6           0      -15.573001    3.087969    2.493053
     84          6           0      -15.756110   -1.561008    3.302006
     85          7           0      -15.528399    0.015876   -1.523676
     86          6           0      -15.591086   -1.106317   -2.224457
     87          6           0      -15.417626   -0.918993   -3.755595
     88          6           0      -14.601440    0.463890   -3.737736
     89          6           0      -15.100125    1.024880   -2.407592
     90          6           0      -13.096821    0.273481   -3.641751
     91          6           0      -16.791213   -0.765732   -4.498421
     92          6           0      -16.715709   -0.888936   -6.021863
     93          1           0      -17.827334   -1.523490   -6.724782
     94          7           0      -15.858498    2.531859    0.155210
     95          6           0      -15.478513    3.097990   -1.009431
     96          6           0      -15.563637    4.551188   -0.797009
     97          6           0      -15.866433    4.798397    0.638933
     98          6           0      -15.754714    3.453588    1.167207
     99          6           0      -15.443447    5.545429   -1.915248
    100          6           0      -16.188953    6.041557    1.411424
    101          8           0      -16.182657    6.058584    2.693026
    102          6           0      -16.420836    7.261166    0.623842
    103          7           0      -15.488064    0.758633    2.589474
    104          6           0      -15.436843    1.960169    3.190806
    105          6           0      -15.360589    1.816020    4.692064
    106          6           0      -15.616143    0.265363    4.988297
    107          6           0      -15.711520   -0.256976    3.537966
    108          6           0      -14.042609    2.246346    5.335593
    109          6           0      -16.763120   -0.082700    5.976214
    110          6           0      -18.097690    0.281366    5.366496
    111          7           0      -16.019849   -1.544929    0.872439
    112          6           0      -15.893750   -2.237416    2.096631
    113          6           0      -15.889266   -3.680796    1.781901
    114          6           0      -15.990711   -3.727794    0.383336
    115          6           0      -16.033618   -2.406626   -0.138377
    116          6           0      -15.751775   -4.737558    2.725544
    117          6           0      -16.060559   -4.594490   -0.771064
    118          8           0      -16.152392   -5.809603   -0.940757
    119          6           0      -15.859406   -3.712565   -2.078024
    120          6           0      -16.927705   -4.095052   -3.065425
    121          8           0      -18.125479   -3.866797   -2.820769
    122          8           0      -16.347122   -4.465758   -4.221223
    123          6           0      -17.366542   -4.843807   -5.235951
    124          1           0      -14.502646    3.045742   -2.886431
    125          1           0      -15.548134    3.911753    3.210162
    126          1           0      -15.797335   -2.298693    4.106231
    127          1           0      -14.833206   -1.689395   -4.244162
    128          1           0      -14.899939    1.109367   -4.559690
    129          1           0      -12.831013   -0.760881   -3.481791
    130          1           0      -12.776308    0.880234   -2.804988
    131          1           0      -12.606549    0.694159   -4.524350
    132          1           0      -17.131681    0.274044   -4.410657
    133          1           0      -17.511552   -1.461869   -4.114848
    134          1           0      -15.759608   -1.311128   -6.354373
    135          1           0      -16.729413    0.115313   -6.452327
    136          1           0      -15.058518    5.077624   -2.829791
    137          1           0      -14.664096    6.258898   -1.626368
    138          1           0      -16.372340    6.090610   -2.095803
    139          1           0      -15.539581    7.476970    0.024444
    140          1           0      -16.724595    8.021815    1.345655
    141          1           0      -17.240821    7.073556   -0.078330
    142          1           0      -16.134719    2.398539    5.176311
    143          1           0      -14.734255   -0.214339    5.437719
    144          1           0      -14.169448    3.024603    6.111673
    145          1           0      -13.378567    2.592641    4.554772
    146          1           0      -13.466004    1.442111    5.789389
    147          1           0      -16.667958    0.508375    6.890394
    148          1           0      -16.779364   -1.127379    6.268399
    149          1           0      -18.185089    1.350065    5.584057
    150          1           0      -18.900287   -0.283916    5.835907
    151          1           0      -18.076545    0.167535    4.276430
    152          1           0      -16.475444   -5.494286    2.453187
    153          1           0      -15.907911   -4.384922    3.742924
    154          1           0      -14.712516   -5.025511    2.545861
    155          1           0      -14.857915   -3.915579   -2.459290
    156          1           0      -17.125093   -5.857966   -5.568937
    157          1           0      -17.339687   -4.043324   -5.999006
    158          1           0      -18.388163   -4.970053   -4.897143
 ---------------------------------------------------------------------

 SCF Done:  E(RCAM-B3LYP) =  -4069.81179091     A.U. after   19 cycles

 Excitation energies and oscillator strengths:

 Excited State   1:      Singlet-A      1.6756 eV  739.95 nm  f=0.3836  <S**2>=0.000
     310 -> 316        0.17335
     312 -> 313        0.68512
     310 <- 316        0.10448
 This state for optimization and/or second-order correction.
 Total Energy, E(TD-HF/TD-DFT) =  -4069.75021454
 Copying the excited state density for this state as the 1-particle RhoCI density.

 Excited State   2:      Singlet-A      1.6799 eV  738.06 nm  f=0.3926  <S**2>=0.000
     309 -> 315        0.17533
     311 -> 314        0.68478
     309 <- 315        0.10500

 Excited State   3:      Singlet-A      2.1861 eV  567.15 nm  f=0.1023  <S**2>=0.000
     310 -> 313        0.64248
     312 -> 316       -0.27308

 Excited State   4:      Singlet-A      2.1926 eV  565.47 nm  f=0.0987  <S**2>=0.000
     309 -> 314        0.64070
     311 -> 315       -0.27832

 Excited State   5:      Singlet-A      3.0660 eV  404.38 nm  f=0.0000  <S**2>=0.000
     311 -> 313        0.70711

 The electronic state is 1-A.
 Alpha  occ. eigenvalues --  -46.87797 -46.87660 -19.26346 -19.26290 -19.19158
 Alpha  occ. eigenvalues --  -19.19025 -19.18813 -19.18715 -19.18172 -19.18050
 Alpha  occ. eigenvalues --  -14.42496 -14.42450 -14.41449 -14.41359 -14.39402
 Alpha  occ. eigenvalues --  -14.39352 -14.38600 -14.38587 -10.39088 -10.39084
 Alpha  occ. eigenvalues --  -10.35446 -10.35392 -10.34392 -10.34227 -10.31751
 Alpha  occ. eigenvalues --  -10.31686 -10.31406 -10.31307 -10.31021 -10.30909
 Alpha  occ. eigenvalues --  -10.30570 -10.30507 -10.30398 -10.30360 -10.30206
 Alpha  occ. eigenvalues --  -10.30142 -10.29920 -10.29896 -10.29631 -10.29436
 Alpha  occ. eigenvalues --  -10.29401 -10.29254 -10.28750 -10.28714 -10.28647
 Alpha  occ. eigenvalues --  -10.28541 -10.28404 -10.28365 -10.28135 -10.28117
 Alpha  occ. eigenvalues --  -10.28000 -10.27793 -10.27727 -10.27667 -10.27584
 Alpha  occ. eigenvalues --  -10.27521 -10.27499 -10.27483 -10.27479 -10.27467
 Alpha  occ. eigenvalues --  -10.27463 -10.27448 -10.27404 -10.27379 -10.27161
 Alpha  occ. eigenvalues --  -10.27048 -10.26707 -10.26688 -10.26415 -10.26406
 Alpha  occ. eigenvalues --  -10.26235 -10.26182 -10.26142 -10.26019 -10.26017
 Alpha  occ. eigenvalues --  -10.25935 -10.25852 -10.25845 -10.25433 -10.25402
 Alpha  occ. eigenvalues --  -10.24872 -10.24833 -10.24787 -10.24736 -10.24690
 Alpha  occ. eigenvalues --  -10.24685  -3.16539  -3.16410  -1.91421  -1.91292
 Alpha  occ. eigenvalues --   -1.91008  -1.90881  -1.90850  -1.90718  -1.16640
 Alpha  occ. eigenvalues --   -1.16638  -1.08657  -1.08630  -1.07214  -1.06967
 Alpha  occ. eigenvalues --   -1.06942  -1.06647  -1.04581  -1.04494  -1.03760
 Alpha  occ. eigenvalues --   -1.03663  -1.03234  -1.03039  -1.02411  -1.02111
 Alpha  occ. eigenvalues --   -0.91986  -0.91973  -0.89519  -0.89496  -0.89189
 Alpha  occ. eigenvalues --   -0.89147  -0.88286  -0.88222  -0.87871  -0.87794
 Alpha  occ. eigenvalues --   -0.87683  -0.87673  -0.87273  -0.87119  -0.84997
 Alpha  occ. eigenvalues --   -0.84983  -0.83936  -0.83879  -0.82965  -0.82932
 Alpha  occ. eigenvalues --   -0.82650  -0.82649  -0.81594  -0.81588  -0.80597
 Alpha  occ. eigenvalues --   -0.80441  -0.78797  -0.78635  -0.77219  -0.77143
 Alpha  occ. eigenvalues --   -0.76936  -0.76897  -0.75925  -0.75836  -0.74898
 Alpha  occ. eigenvalues --   -0.74804  -0.72774  -0.72699  -0.71672  -0.71580
 Alpha  occ. eigenvalues --   -0.69906  -0.69761  -0.68874  -0.68825  -0.67641
 Alpha  occ. eigenvalues --   -0.67601  -0.67220  -0.67197  -0.65287  -0.65269
 Alpha  occ. eigenvalues --   -0.64855  -0.64770  -0.64652  -0.64621  -0.64269
 Alpha  occ. eigenvalues --   -0.64205  -0.62301  -0.62277  -0.60441  -0.60340
 Alpha  occ. eigenvalues --   -0.59805  -0.59793  -0.58992  -0.58988  -0.58504
 Alpha  occ. eigenvalues --   -0.58425  -0.57587  -0.57553  -0.57309  -0.57237
 Alpha  occ. eigenvalues --   -0.56310  -0.56203  -0.55982  -0.55884  -0.55520
 Alpha  occ. eigenvalues --   -0.55451  -0.55340  -0.55249  -0.54525  -0.54488
 Alpha  occ. eigenvalues --   -0.53908  -0.53896  -0.53299  -0.53227  -0.53222
 Alpha  occ. eigenvalues --   -0.53140  -0.52916  -0.52900  -0.52755  -0.52666
 Alpha  occ. eigenvalues --   -0.52437  -0.52404  -0.51916  -0.51886  -0.51655
 Alpha  occ. eigenvalues --   -0.51617  -0.51201  -0.51197  -0.50570  -0.50474
 Alpha  occ. eigenvalues --   -0.50030  -0.49978  -0.49917  -0.49869  -0.49515
 Alpha  occ. eigenvalues --   -0.49486  -0.49215  -0.49200  -0.49102  -0.49097
 Alpha  occ. eigenvalues --   -0.48594  -0.48556  -0.48460  -0.48445  -0.48377
 Alpha  occ. eigenvalues --   -0.48338  -0.47695  -0.47593  -0.47297  -0.47118
 Alpha  occ. eigenvalues --   -0.46797  -0.46709  -0.46556  -0.46551  -0.46359
 Alpha  occ. eigenvalues --   -0.46270  -0.46163  -0.46086  -0.45824  -0.45821
 Alpha  occ. eigenvalues --   -0.45210  -0.45200  -0.44579  -0.44513  -0.44506
 Alpha  occ. eigenvalues --   -0.44474  -0.44144  -0.44125  -0.44089  -0.44078
 Alpha  occ. eigenvalues --   -0.44020  -0.43938  -0.43552  -0.43497  -0.43386
 Alpha  occ. eigenvalues --   -0.43384  -0.43028  -0.42928  -0.42900  -0.42701
 Alpha  occ. eigenvalues --   -0.42656  -0.42555  -0.42010  -0.41964  -0.41705
 Alpha  occ. eigenvalues --   -0.41668  -0.41534  -0.41457  -0.41141  -0.40988
 Alpha  occ. eigenvalues --   -0.40869  -0.40822  -0.40721  -0.40697  -0.40571
 Alpha  occ. eigenvalues --   -0.40494  -0.40235  -0.40223  -0.39440  -0.39429
 Alpha  occ. eigenvalues --   -0.38468  -0.38352  -0.37749  -0.37650  -0.37320
 Alpha  occ. eigenvalues --   -0.37266  -0.37264  -0.37197  -0.36769  -0.36716
 Alpha  occ. eigenvalues --   -0.36217  -0.36194  -0.34286  -0.34253  -0.33860
 Alpha  occ. eigenvalues --   -0.33774  -0.33187  -0.33175  -0.31342  -0.31274
 Alpha  occ. eigenvalues --   -0.31036  -0.30972  -0.30031  -0.29954  -0.29449
 Alpha  occ. eigenvalues --   -0.29327  -0.29322  -0.29211  -0.24081  -0.24036
 Alpha  occ. eigenvalues --   -0.21128  -0.21117
 Alpha virt. eigenvalues --   -0.08792  -0.08774  -0.01749  -0.01684  -0.00057
 Alpha virt. eigenvalues --   -0.00028   0.02199   0.02207   0.03122   0.03226
 Alpha virt. eigenvalues --    0.04717   0.04732   0.05094   0.05168   0.06175

 Mulliken charges:
               1
     1  Mg   0.838779
     2  C   -0.002975
     3  C   -0.094112
     4  C   -0.045857
     5  C   -0.063967
     6  N   -0.256784
     7  C   -0.052483
     8  C   -0.014011
     9  C   -0.087031
    10  C    0.046342
    11  C    0.104815
    12  C    0.053459
    13  C   -0.071793
    14  H    0.036085
    15  N   -0.433165
    16  C    0.168426
    17  C   -0.177130
    18  C   -0.003978
    19  C    0.148708
    20  C    0.110164
    21  C    0.012291
    22  O   -0.249587
    23  C    0.062475
    24  N   -0.341161
    25  C    0.041262
    26  C   -0.028185
    27  C   -0.023977
    28  C    0.074849
    29  C    0.076164
    30  C    0.035124
    31  C   -0.004504
    32  N   -0.310461
    33  C    0.080405
    34  C   -0.169731
    35  C    0.008335
    36  C    0.082973
    37  C    0.127319
    38  C    0.046096
    39  O   -0.188506
    40  C   -0.005317
    41  C    0.212849
    42  O   -0.257122
    43  O   -0.304785
    44  C    0.157710
    45  H   -0.017587
    46  H   -0.016807
    47  H   -0.041499
    48  H    0.000925
    49  H   -0.004025
    50  H    0.025465
    51  H    0.016460
    52  H    0.016667
    53  H    0.011225
    54  H    0.044100
    55  H    0.017869
    56  H    0.017973
    57  H    0.005879
    58  H    0.026852
    59  H    0.039587
    60  H    0.037352
    61  H    0.035693
    62  H    0.031514
    63  H    0.016582
    64  H    0.009460
    65  H    0.023242
    66  H    0.012546
    67  H    0.004756
    68  H    0.006394
    69  H    0.004714
    70  H    0.008810
    71  H    0.018140
    72  H    0.028961
    73  H    0.047522
    74  H    0.009111
    75  H    0.045999
    76  H    0.035144
    77  H    0.042912
    78  H    0.046415
    79  H    0.053644
    80  Mg   0.837847
    81  C   -0.016799
    82  C   -0.087749
    83  C   -0.045521
    84  C   -0.064877
    85  N   -0.254565
    86  C   -0.049824
    87  C   -0.015109
    88  C   -0.090509
    89  C    0.045756
    90  C    0.114357
    91  C    0.062519
    92  C   -0.077916
    93  H    0.034909
    94  N   -0.423491
    95  C    0.162919
    96  C   -0.174580
    97  C   -0.007808
    98  C    0.152135
    99  C    0.099335
   100  C    0.015562
   101  O   -0.253209
   102  C    0.061202
   103  N   -0.350060
   104  C    0.037523
   105  C   -0.019829
   106  C   -0.034801
   107  C    0.088899
   108  C    0.073653
   109  C    0.034734
   110  C   -0.007668
   111  N   -0.324127
   112  C    0.078449
   113  C   -0.163149
   114  C    0.002257
   115  C    0.096178
   116  C    0.131480
   117  C    0.042376
   118  O   -0.187861
   119  C    0.000937
   120  C    0.211241
   121  O   -0.251033
   122  O   -0.305606
   123  C    0.152027
   124  H   -0.019581
   125  H   -0.015590
   126  H   -0.040489
   127  H   -0.000605
   128  H   -0.004282
   129  H    0.022488
   130  H    0.014436
   131  H    0.016390
   132  H    0.013912
   133  H    0.037654
   134  H    0.020839
   135  H    0.019623
   136  H    0.008822
   137  H    0.026190
   138  H    0.039814
   139  H    0.038283
   140  H    0.036382
   141  H    0.033907
   142  H    0.014383
   143  H    0.012405
   144  H    0.025108
   145  H    0.011672
   146  H    0.005663
   147  H    0.006232
   148  H    0.003638
   149  H    0.010923
   150  H    0.017917
   151  H    0.030123
   152  H    0.045998
   153  H    0.008487
   154  H    0.046959
   155  H    0.035075
   156  H    0.043931
   157  H    0.049525
   158  H    0.053563
 Sum of Mulliken charges =  -0.00000

 Dipole moment (field-independent basis, Debye):
    X=              4.1993    Y=              4.6058    Z=              1.6429  Tot=              6.4457
 Quadrupole moment (field-independent basis, Debye-Ang):
   XX=           -517.6599   YY=           -510.1618   ZZ=           -488.7556
   XY=            -29.8178   XZ=             94.4009   YZ=              9.5411

 Normal termination of Gaussian 16 at Sat Sep  4 16:42:42 2021.
