 Gaussian 16, Revision A.03,
 Gaussian 16:  ES64L-G16RevA.03 25-Dec-2016

 -----------------------------------
 #p cam-b3lyp/Def2SVP td=(nstates=5)
 -----------------------------------

 --------------------------------
 TDDFT excited states in gaussian
 --------------------------------
 Symbolic Z-matrix:
 Charge =  0 Multiplicity = 1

                         Standard orientation:
 ---------------------------------------------------------------------
 Center     Atomic      Atomic             Coordinates (Angstroms)
 Number     Number       Type             X           Y           Z
 ---------------------------------------------------------------------
      1         12           0        6.799136    0.443494    0.947244
      2          6           0        7.244604   -2.489204   -1.056017
      3          6           0        8.022978    2.243417   -1.680598
      4          6           0        6.842713    2.982274    2.847065
      5          6           0        6.699796   -1.652011    3.730165
      6          7           0        7.508269   -0.159878   -1.061168
      7          6           0        7.571268   -1.308689   -1.727077
      8          6           0        7.944927   -1.132347   -3.229294
      9          6           0        8.698537    0.269721   -3.138332
     10          6           0        8.012036    0.835070   -1.907470
     11          6           0       10.191384    0.141625   -2.852847
     12          6           0        6.681396   -1.044938   -4.149935
     13          6           0        6.953256   -1.200099   -5.649059
     14          1           0        5.970303   -1.889264   -6.471373
     15          7           0        6.883030    2.368550    0.511389
     16          6           0        7.400332    2.922916   -0.611271
     17          6           0        7.226914    4.383811   -0.461620
     18          6           0        6.739559    4.644874    0.921285
     19          6           0        6.828413    3.327617    1.497754
     20          6           0        7.467556    5.359072   -1.572793
     21          6           0        6.278443    5.886711    1.616514
     22          8           0        6.118343    5.937095    2.883954
     23          6           0        6.101759    7.083821    0.774639
     24          7           0        6.994627    0.667746    3.013431
     25          6           0        6.921772    1.874060    3.586564
     26          6           0        6.804064    1.763830    5.077850
     27          6           0        6.566075    0.215889    5.389286
     28          6           0        6.676331   -0.334859    3.946099
     29          6           0        8.009894    2.266944    5.883369
     30          6           0        5.312966   -0.148855    6.224211
     31          6           0        4.061779    0.147084    5.427939
     32          7           0        6.765551   -1.698746    1.294696
     33          6           0        6.746832   -2.351414    2.535804
     34          6           0        6.839559   -3.797782    2.264716
     35          6           0        6.923021   -3.885688    0.876497
     36          6           0        6.911292   -2.575886    0.317416
     37          6           0        6.897336   -4.827372    3.245042
     38          6           0        7.044197   -4.780339   -0.263141
     39          8           0        7.008154   -6.002413   -0.413898
     40          6           0        7.379936   -3.907394   -1.551967
     41          6           0        6.462754   -4.356524   -2.656669
     42          8           0        5.232595   -4.158451   -2.587073
     43          8           0        7.194397   -4.729965   -3.717698
     44          6           0        6.344222   -5.159216   -4.860107
     45          1           0        8.608989    2.880657   -2.345773
     46          1           0        6.747036    3.825540    3.534222
     47          1           0        6.589498   -2.370774    4.544209
     48          1           0        8.619883   -1.892995   -3.622071
     49          1           0        8.497036    0.897107   -4.006379
     50          1           0       10.467497   -0.889044   -2.630579
     51          1           0       10.378491    0.780507   -1.989532
     52          1           0       10.779340    0.561538   -3.669400
     53          1           0        6.296215   -0.025381   -4.135783
     54          1           0        5.929168   -1.772347   -3.842761
     55          1           0        7.951797   -1.597090   -5.834056
     56          1           0        6.969182   -0.206867   -6.097877
     57          1           0        7.976316    4.890115   -2.414094
     58          1           0        8.179515    6.095791   -1.201218
     59          1           0        6.550801    5.859037   -1.885728
     60          1           0        7.047834    7.325704    0.289888
     61          1           0        5.682910    7.850231    1.425816
     62          1           0        5.397862    6.852194   -0.025253
     63          1           0        5.954426    2.337101    5.446495
     64          1           0        7.394184   -0.220954    5.947927
     65          1           0        7.759848    3.042693    6.607520
     66          1           0        8.763181    2.617973    5.178650
     67          1           0        8.557978    1.491663    6.418122
     68          1           0        5.269342    0.458469    7.127649
     69          1           0        5.287193   -1.195769    6.526796
     70          1           0        3.906008    1.210567    5.605623
     71          1           0        3.223108   -0.438785    5.805562
     72          1           0        4.230166    0.016587    4.358779
     73          1           0        6.234074   -5.618634    2.895818
     74          1           0        6.593133   -4.459032    4.224526
     75          1           0        7.955764   -5.084369    3.205825
     76          1           0        8.427412   -4.089812   -1.789961
     77          1           0        6.656659   -6.167633   -5.131606
     78          1           0        6.429490   -4.381476   -5.619222
     79          1           0        5.288599   -5.322934   -4.640572
     80         12           0       -6.327569    0.507083   -0.710284
     81          6           0       -8.791178   -1.689931    0.697837
     82          6           0       -8.767092    2.884259   -0.890193
     83          6           0       -4.307548    2.313201   -2.361013
     84          6           0       -4.439724   -2.322344   -1.469301
     85          7           0       -8.463972    0.481041   -0.138150
     86          6           0       -9.274764   -0.389433    0.444305
     87          6           0      -10.657758    0.189330    0.846714
     88          6           0      -10.722917    1.405961   -0.199430
     89          6           0       -9.226453    1.635286   -0.401144
     90          6           0      -11.331173    1.017753   -1.536845
     91          6           0      -10.681967    0.704180    2.328720
     92          6           0      -12.077177    0.996308    2.885315
     93          1           0      -12.336642    0.717247    4.295027
     94          7           0       -6.346770    2.459395   -1.066206
     95          6           0       -7.422628    3.274072   -1.076696
     96          6           0       -6.910727    4.612243   -1.410502
     97          6           0       -5.468857    4.489690   -1.757904
     98          6           0       -5.320315    3.048162   -1.762100
     99          6           0       -7.747852    5.853692   -1.303552
    100          6           0       -4.403460    5.501974   -2.051874
    101          8           0       -3.277302    5.165218   -2.562954
    102          6           0       -4.752270    6.909702   -1.810822
    103          7           0       -4.721942    0.054333   -1.950985
    104          6           0       -3.977762    1.029208   -2.502111
    105          6           0       -2.721109    0.469943   -3.125360
    106          6           0       -2.657364   -1.060200   -2.664722
    107          6           0       -3.993194   -1.148488   -1.894555
    108          6           0       -2.644136    0.545784   -4.650059
    109          6           0       -1.359681   -1.526437   -1.949656
    110          6           0       -1.242148   -0.851727   -0.601940
    111          7           0       -6.455440   -1.607684   -0.286630
    112          6           0       -5.572591   -2.619866   -0.722659
    113          6           0       -6.137291   -3.910900   -0.279046
    114          6           0       -7.330713   -3.559204    0.369438
    115          6           0       -7.508118   -2.150275    0.314975
    116          6           0       -5.578039   -5.194872   -0.533558
    117          6           0       -8.486071   -4.060390    1.078407
    118          8           0       -8.836206   -5.161981    1.499892
    119          6           0       -9.546443   -2.883918    1.212227
    120          6           0      -10.024581   -2.849500    2.637967
    121          8           0       -9.243202   -2.555562    3.559727
    122          8           0      -11.365816   -2.955022    2.655579
    123          6           0      -11.888352   -2.914724    4.047399
    124          1           0       -9.506079    3.623253   -1.201103
    125          1           0       -3.525172    2.899023   -2.849031
    126          1           0       -3.861841   -3.242204   -1.581485
    127          1           0      -11.493994   -0.481344    0.689598
    128          1           0      -11.186817    2.283396    0.243577
    129          1           0      -11.511565   -0.044822   -1.604148
    130          1           0      -10.615420    1.328241   -2.286743
    131          1           0      -12.236186    1.602958   -1.723438
    132          1           0      -10.250453    1.712775    2.364479
    133          1           0      -10.169742    0.020900    2.977856
    134          1           0      -12.869028    0.570434    2.257181
    135          1           0      -12.250034    2.074314    2.840309
    136          1           0       -8.811340    5.612667   -1.183937
    137          1           0       -7.691774    6.361626   -2.272429
    138          1           0       -7.394030    6.534661   -0.526533
    139          1           0       -5.619353    7.174796   -2.411115
    140          1           0       -3.835265    7.473356   -1.993261
    141          1           0       -5.049310    7.021910   -0.762114
    142          1           0       -1.843391    0.985269   -2.755032
    143          1           0       -2.741625   -1.746962   -3.519764
    144          1           0       -1.752976    1.090138   -5.015554
    145          1           0       -3.550145    1.011238   -5.014828
    146          1           0       -2.656077   -0.415224   -5.161434
    147          1           0       -0.480986   -1.225193   -2.525241
    148          1           0       -1.303256   -2.601429   -1.814726
    149          1           0       -0.801032    0.118481   -0.849312
    150          1           0       -0.592784   -1.423919    0.057577
    151          1           0       -2.231250   -0.663261   -0.168577
    152          1           0       -5.652434   -5.755276    0.388894
    153          1           0       -4.546670   -5.119383   -0.871699
    154          1           0       -6.245236   -5.544638   -1.325887
    155          1           0      -10.357373   -3.092729    0.513408
    156          1           0      -12.487041   -3.819636    4.190227
    157          1           0      -12.411352   -1.944553    4.142177
    158          1           0      -11.171261   -3.005946    4.854810
 ---------------------------------------------------------------------

 SCF Done:  E(RCAM-B3LYP) =  -4069.81209432     A.U. after   19 cycles

 Excitation energies and oscillator strengths:

 Excited State   1:      Singlet-A      1.6645 eV  744.89 nm  f=0.0108  <S**2>=0.000
     309 -> 315       -0.10798
     310 -> 316        0.13284
     311 -> 313       -0.43142
     312 -> 314        0.53421
 This state for optimization and/or second-order correction.
 Total Energy, E(TD-HF/TD-DFT) =  -4069.75092656
 Copying the excited state density for this state as the 1-particle RhoCI density.

 Excited State   2:      Singlet-A      1.6893 eV  733.95 nm  f=0.7316  <S**2>=0.000
     309 -> 315        0.13865
     310 -> 316        0.11123
     311 -> 313        0.53302
     312 -> 314        0.43051

 Excited State   3:      Singlet-A      2.1849 eV  567.46 nm  f=0.0900  <S**2>=0.000
     310 -> 314        0.63619
     312 -> 316       -0.26952

 Excited State   4:      Singlet-A      2.1937 eV  565.17 nm  f=0.1089  <S**2>=0.000
     309 -> 313        0.63404
     311 -> 315       -0.27605

 Excited State   5:      Singlet-A      2.6800 eV  462.63 nm  f=0.0000  <S**2>=0.000
     312 -> 313        0.70691

 The electronic state is 1-A.
 Alpha  occ. eigenvalues --  -46.87758 -46.87532 -19.26320 -19.26260 -19.19065
 Alpha  occ. eigenvalues --  -19.19063 -19.18743 -19.18630 -19.18147 -19.17939
 Alpha  occ. eigenvalues --  -14.42415 -14.42376 -14.41406 -14.41219 -14.39359
 Alpha  occ. eigenvalues --  -14.39229 -14.38552 -14.38471 -10.39115 -10.38993
 Alpha  occ. eigenvalues --  -10.35374 -10.35310 -10.34370 -10.34116 -10.31725
 Alpha  occ. eigenvalues --  -10.31677 -10.31377 -10.31185 -10.30916 -10.30876
 Alpha  occ. eigenvalues --  -10.30534 -10.30465 -10.30267 -10.30230 -10.30151
 Alpha  occ. eigenvalues --  -10.29991 -10.29878 -10.29747 -10.29586 -10.29314
 Alpha  occ. eigenvalues --  -10.29276 -10.29204 -10.28739 -10.28624 -10.28580
 Alpha  occ. eigenvalues --  -10.28560 -10.28328 -10.28290 -10.28097 -10.28042
 Alpha  occ. eigenvalues --  -10.27879 -10.27750 -10.27688 -10.27549 -10.27534
 Alpha  occ. eigenvalues --  -10.27435 -10.27409 -10.27388 -10.27377 -10.27372
 Alpha  occ. eigenvalues --  -10.27364 -10.27348 -10.27291 -10.27198 -10.27151
 Alpha  occ. eigenvalues --  -10.26944 -10.26722 -10.26606 -10.26359 -10.26309
 Alpha  occ. eigenvalues --  -10.26211 -10.26100 -10.25971 -10.25937 -10.25797
 Alpha  occ. eigenvalues --  -10.25785 -10.25776 -10.25680 -10.25377 -10.25262
 Alpha  occ. eigenvalues --  -10.24795 -10.24752 -10.24743 -10.24592 -10.24561
 Alpha  occ. eigenvalues --  -10.24405  -3.16501  -3.16282  -1.91383  -1.91165
 Alpha  occ. eigenvalues --   -1.90969  -1.90811  -1.90753  -1.90590  -1.16669
 Alpha  occ. eigenvalues --   -1.16553  -1.08610  -1.08546  -1.07142  -1.06885
 Alpha  occ. eigenvalues --   -1.06850  -1.06681  -1.04547  -1.04376  -1.03718
 Alpha  occ. eigenvalues --   -1.03535  -1.03192  -1.02903  -1.02370  -1.01981
 Alpha  occ. eigenvalues --   -0.91944  -0.91867  -0.89465  -0.89315  -0.89171
 Alpha  occ. eigenvalues --   -0.89045  -0.88232  -0.88033  -0.87829  -0.87657
 Alpha  occ. eigenvalues --   -0.87638  -0.87559  -0.87213  -0.87018  -0.84960
 Alpha  occ. eigenvalues --   -0.84892  -0.83881  -0.83680  -0.82895  -0.82818
 Alpha  occ. eigenvalues --   -0.82617  -0.82540  -0.81577  -0.81480  -0.80567
 Alpha  occ. eigenvalues --   -0.80327  -0.78744  -0.78518  -0.77178  -0.77018
 Alpha  occ. eigenvalues --   -0.76915  -0.76763  -0.75903  -0.75727  -0.74852
 Alpha  occ. eigenvalues --   -0.74651  -0.72732  -0.72563  -0.71637  -0.71457
 Alpha  occ. eigenvalues --   -0.69841  -0.69524  -0.68844  -0.68714  -0.67603
 Alpha  occ. eigenvalues --   -0.67481  -0.67196  -0.67104  -0.65268  -0.65161
 Alpha  occ. eigenvalues --   -0.64825  -0.64635  -0.64591  -0.64529  -0.64218
 Alpha  occ. eigenvalues --   -0.64018  -0.62294  -0.62156  -0.60385  -0.60219
 Alpha  occ. eigenvalues --   -0.59779  -0.59687  -0.58951  -0.58860  -0.58469
 Alpha  occ. eigenvalues --   -0.58294  -0.57577  -0.57442  -0.57266  -0.57093
 Alpha  occ. eigenvalues --   -0.56271  -0.56079  -0.55983  -0.55781  -0.55473
 Alpha  occ. eigenvalues --   -0.55351  -0.55304  -0.55090  -0.54501  -0.54326
 Alpha  occ. eigenvalues --   -0.53879  -0.53811  -0.53252  -0.53187  -0.53102
 Alpha  occ. eigenvalues --   -0.53029  -0.52896  -0.52784  -0.52702  -0.52580
 Alpha  occ. eigenvalues --   -0.52370  -0.52134  -0.51876  -0.51734  -0.51591
 Alpha  occ. eigenvalues --   -0.51562  -0.51164  -0.51059  -0.50496  -0.50376
 Alpha  occ. eigenvalues --   -0.49972  -0.49870  -0.49866  -0.49694  -0.49478
 Alpha  occ. eigenvalues --   -0.49387  -0.49181  -0.49096  -0.49073  -0.48989
 Alpha  occ. eigenvalues --   -0.48574  -0.48449  -0.48417  -0.48391  -0.48247
 Alpha  occ. eigenvalues --   -0.48225  -0.47655  -0.47473  -0.47253  -0.47002
 Alpha  occ. eigenvalues --   -0.46756  -0.46566  -0.46537  -0.46445  -0.46318
 Alpha  occ. eigenvalues --   -0.46131  -0.46129  -0.45947  -0.45804  -0.45696
 Alpha  occ. eigenvalues --   -0.45150  -0.45058  -0.44553  -0.44458  -0.44408
 Alpha  occ. eigenvalues --   -0.44344  -0.44098  -0.44058  -0.44018  -0.43981
 Alpha  occ. eigenvalues --   -0.43910  -0.43840  -0.43480  -0.43423  -0.43352
 Alpha  occ. eigenvalues --   -0.43266  -0.42992  -0.42820  -0.42772  -0.42708
 Alpha  occ. eigenvalues --   -0.42602  -0.42375  -0.41967  -0.41783  -0.41671
 Alpha  occ. eigenvalues --   -0.41542  -0.41510  -0.41325  -0.41106  -0.40870
 Alpha  occ. eigenvalues --   -0.40837  -0.40764  -0.40632  -0.40567  -0.40521
 Alpha  occ. eigenvalues --   -0.40297  -0.40227  -0.40138  -0.39370  -0.39184
 Alpha  occ. eigenvalues --   -0.38420  -0.38181  -0.37740  -0.37550  -0.37272
 Alpha  occ. eigenvalues --   -0.37243  -0.37107  -0.37079  -0.36722  -0.36657
 Alpha  occ. eigenvalues --   -0.36172  -0.36069  -0.34249  -0.34123  -0.33799
 Alpha  occ. eigenvalues --   -0.33760  -0.33151  -0.33047  -0.31275  -0.31188
 Alpha  occ. eigenvalues --   -0.30997  -0.30849  -0.30009  -0.29842  -0.29400
 Alpha  occ. eigenvalues --   -0.29283  -0.29213  -0.29088  -0.24043  -0.23908
 Alpha  occ. eigenvalues --   -0.21086  -0.20988
 Alpha virt. eigenvalues --   -0.08730  -0.08670  -0.01705  -0.01555  -0.00007
 Alpha virt. eigenvalues --    0.00073   0.02235   0.02333   0.03142   0.03363
 Alpha virt. eigenvalues --    0.04743   0.04845   0.05072   0.05264   0.06176

 Mulliken charges:
               1
     1  Mg   0.838348
     2  C   -0.003529
     3  C   -0.094066
     4  C   -0.045615
     5  C   -0.063803
     6  N   -0.256805
     7  C   -0.052799
     8  C   -0.013907
     9  C   -0.087009
    10  C    0.046231
    11  C    0.104788
    12  C    0.053461
    13  C   -0.071661
    14  H    0.035292
    15  N   -0.433229
    16  C    0.168544
    17  C   -0.176837
    18  C   -0.003638
    19  C    0.148827
    20  C    0.110074
    21  C    0.012776
    22  O   -0.249505
    23  C    0.062177
    24  N   -0.341142
    25  C    0.041308
    26  C   -0.028220
    27  C   -0.023989
    28  C    0.074779
    29  C    0.076168
    30  C    0.035078
    31  C   -0.004572
    32  N   -0.310332
    33  C    0.080078
    34  C   -0.169827
    35  C    0.008195
    36  C    0.082538
    37  C    0.127361
    38  C    0.045692
    39  O   -0.188724
    40  C   -0.005185
    41  C    0.213123
    42  O   -0.258366
    43  O   -0.304499
    44  C    0.157849
    45  H   -0.017540
    46  H   -0.016627
    47  H   -0.041298
    48  H    0.000878
    49  H   -0.003970
    50  H    0.025453
    51  H    0.016579
    52  H    0.016688
    53  H    0.011275
    54  H    0.043127
    55  H    0.018109
    56  H    0.018291
    57  H    0.005776
    58  H    0.026788
    59  H    0.040521
    60  H    0.037072
    61  H    0.035781
    62  H    0.032649
    63  H    0.016848
    64  H    0.009440
    65  H    0.023301
    66  H    0.012433
    67  H    0.004768
    68  H    0.006503
    69  H    0.004851
    70  H    0.009032
    71  H    0.018759
    72  H    0.028582
    73  H    0.047412
    74  H    0.009377
    75  H    0.045987
    76  H    0.035232
    77  H    0.043159
    78  H    0.046461
    79  H    0.052867
    80  Mg   0.837786
    81  C   -0.017082
    82  C   -0.088085
    83  C   -0.045536
    84  C   -0.064756
    85  N   -0.254573
    86  C   -0.049879
    87  C   -0.015065
    88  C   -0.090458
    89  C    0.045681
    90  C    0.114476
    91  C    0.062582
    92  C   -0.077755
    93  H    0.034663
    94  N   -0.423384
    95  C    0.162801
    96  C   -0.174949
    97  C   -0.008133
    98  C    0.152101
    99  C    0.099479
   100  C    0.015440
   101  O   -0.253936
   102  C    0.061337
   103  N   -0.350204
   104  C    0.037581
   105  C   -0.019547
   106  C   -0.035643
   107  C    0.089137
   108  C    0.074114
   109  C    0.034860
   110  C   -0.008209
   111  N   -0.324192
   112  C    0.078692
   113  C   -0.162644
   114  C    0.002132
   115  C    0.096406
   116  C    0.131210
   117  C    0.042475
   118  O   -0.187892
   119  C    0.000890
   120  C    0.211222
   121  O   -0.251001
   122  O   -0.305670
   123  C    0.152086
   124  H   -0.020110
   125  H   -0.016112
   126  H   -0.038926
   127  H   -0.000815
   128  H   -0.004577
   129  H    0.022347
   130  H    0.014361
   131  H    0.015944
   132  H    0.013915
   133  H    0.037690
   134  H    0.020672
   135  H    0.019452
   136  H    0.008564
   137  H    0.025625
   138  H    0.039480
   139  H    0.038030
   140  H    0.035543
   141  H    0.034061
   142  H    0.014230
   143  H    0.012773
   144  H    0.024168
   145  H    0.010882
   146  H    0.005818
   147  H    0.008503
   148  H    0.006605
   149  H    0.009582
   150  H    0.020768
   151  H    0.028464
   152  H    0.046225
   153  H    0.010087
   154  H    0.046728
   155  H    0.034803
   156  H    0.043781
   157  H    0.049357
   158  H    0.053534
 Sum of Mulliken charges =  -0.00000

 Dipole moment (field-independent basis, Debye):
    X=              0.2566    Y=              6.8386    Z=             -3.6457  Tot=              7.7539
 Quadrupole moment (field-independent basis, Debye-Ang):
   XX=           -431.8987   YY=           -541.5575   ZZ=           -482.4116
   XY=            -26.9245   XZ=            -11.4608   YZ=             -2.7595

 Normal termination of Gaussian 16 at Sat Sep 11 04:18:13 2021.
