 Gaussian 16, Revision A.03,
 Gaussian 16:  ES64L-G16RevA.03 25-Dec-2016

 -----------------------------------
 #p cam-b3lyp/Def2SVP td=(nstates=5)
 -----------------------------------

 --------------------------------
 TDDFT excited states in gaussian
 --------------------------------
 Symbolic Z-matrix:
 Charge =  0 Multiplicity = 1

                         Standard orientation:
 ---------------------------------------------------------------------
 Center     Atomic      Atomic             Coordinates (Angstroms)
 Number     Number       Type             X           Y           Z
 ---------------------------------------------------------------------
      1         12           0        7.543247    0.784157    0.366113
      2          6           0        7.919454   -2.348928   -1.323403
      3          6           0        8.463126    2.297875   -2.550314
      4          6           0        7.659401    3.527214    1.953175
      5          6           0        7.767379   -0.974800    3.366362
      6          7           0        8.094762   -0.029833   -1.617293
      7          6           0        8.141601   -1.246290   -2.151343
      8          6           0        8.374723   -1.236187   -3.691774
      9          6           0        9.080706    0.186636   -3.830200
     10          6           0        8.484677    0.872905   -2.613767
     11          6           0       10.596620    0.132752   -3.670191
     12          6           0        7.032667   -1.290539   -4.496548
     13          6           0        7.177068   -1.611930   -5.986921
     14          1           0        6.151866   -2.418309   -6.631950
     15          7           0        7.516732    2.646886   -0.291448
     16          6           0        7.912188    3.080371   -1.512510
     17          6           0        7.698366    4.543572   -1.514506
     18          6           0        7.325283    4.950790   -0.131365
     19          6           0        7.513513    3.712515    0.580409
     20          6           0        7.803773    5.388852   -2.746634
     21          6           0        6.881268    6.252343    0.457651
     22          8           0        6.831617    6.445718    1.720471
     23          6           0        6.586715    7.338059   -0.494978
     24          7           0        7.911414    1.252737    2.366743
     25          6           0        7.844454    2.515213    2.803384
     26          6           0        7.862688    2.576338    4.302007
     27          6           0        7.710824    1.069393    4.807782
     28          6           0        7.714009    0.357433    3.432510
     29          6           0        9.115192    3.202020    4.931106
     30          6           0        6.550539    0.770919    5.790162
     31          6           0        5.223958    0.938421    5.083603
     32          7           0        7.620142   -1.303148    0.956274
     33          6           0        7.735074   -1.807059    2.259937
     34          6           0        7.857342   -3.272148    2.147550
     35          6           0        7.821469   -3.518902    0.776539
     36          6           0        7.711818   -2.283934    0.075737
     37          6           0        8.039488   -4.178607    3.229026
     38          6           0        7.875050   -4.536645   -0.260372
     39          8           0        7.871384   -5.768486   -0.267382
     40          6           0        8.063287   -3.811093   -1.665351
     41          6           0        7.069757   -4.410290   -2.623042
     42          8           0        5.843987   -4.238522   -2.463827
     43          8           0        7.718532   -4.885031   -3.697404
     44          6           0        6.787644   -5.467086   -4.700804
     45          1           0        8.964170    2.868775   -3.334514
     46          1           0        7.593276    4.441916    2.545953
     47          1           0        7.756010   -1.596537    4.263450
     48          1           0        9.040318   -2.019033   -4.055861
     49          1           0        8.780350    0.702999   -4.741725
     50          1           0       10.929400   -0.857229   -3.358557
     51          1           0       10.835102    0.872641   -2.905871
     52          1           0       11.094362    0.470302   -4.579636
     53          1           0        6.612548   -0.286974   -4.563026
     54          1           0        6.338003   -1.997123   -4.041019
     55          1           0        8.169524   -2.000845   -6.216454
     56          1           0        7.116437   -0.677677   -6.545218
     57          1           0        8.253586    4.838897   -3.572323
     58          1           0        8.517768    6.182668   -2.528052
     59          1           0        6.845056    5.824191   -3.028898
     60          1           0        7.476775    7.547112   -1.088812
     61          1           0        6.198590    8.163597    0.100586
     62          1           0        5.824236    6.996035   -1.195402
     63          1           0        7.028060    3.165656    4.679532
     64          1           0        8.600584    0.722970    5.334080
     65          1           0        8.901175    4.049858    5.582314
     66          1           0        9.789918    3.488641    4.124951
     67          1           0        9.736704    2.509292    5.497911
     68          1           0        6.564052    1.477961    6.618929
     69          1           0        6.590491   -0.233930    6.210795
     70          1           0        5.044962    2.010800    5.152866
     71          1           0        4.444182    0.378250    5.600679
     72          1           0        5.302297    0.688827    4.025278
     73          1           0        7.377967   -5.022665    3.034283
     74          1           0        7.809206   -3.706965    4.184079
     75          1           0        9.099182   -4.409943    3.122313
     76          1           0        9.091801   -3.991835   -1.976177
     77          1           0        7.112280   -6.491521   -4.883506
     78          1           0        6.776738   -4.781067   -5.547955
     79          1           0        5.762277   -5.632367   -4.368172
     80         12           0       -8.304393    0.199868   -0.182105
     81          6           0       -5.714016   -1.959278    1.045514
     82          6           0       -6.124898    2.793389    0.215486
     83          6           0      -10.697705    2.180131   -0.828717
     84          6           0      -10.581841   -2.321616    0.593179
     85          7           0       -6.216755    0.280140    0.544207
     86          6           0       -5.314740   -0.611875    0.925059
     87          6           0       -3.884327   -0.039554    1.114574
     88          6           0       -4.273247    1.494543    1.386868
     89          6           0       -5.605489    1.544919    0.641690
     90          6           0       -4.534185    1.798166    2.852837
     91          6           0       -3.004951   -0.188770   -0.176330
     92          6           0       -1.510128    0.064773    0.030982
     93          1           0       -0.556221   -0.728243   -0.739519
     94          7           0       -8.280168    2.099635   -0.755594
     95          6           0       -7.305694    3.005500   -0.529538
     96          6           0       -7.775215    4.261141   -1.135403
     97          6           0       -9.177600    4.065360   -1.593331
     98          6           0       -9.452592    2.751873   -1.046305
     99          6           0       -6.891577    5.462602   -1.305945
    100          6           0      -10.120095    4.924226   -2.380899
    101          8           0      -11.370707    4.654746   -2.459522
    102          6           0       -9.552998    6.141186   -2.979977
    103          7           0      -10.363100    0.052441    0.067571
    104          6           0      -11.181805    1.035630   -0.345922
    105          6           0      -12.625100    0.592474   -0.315752
    106          6           0      -12.585839   -0.979555   -0.024651
    107          6           0      -11.063643   -1.164851    0.159672
    108          6           0      -13.510574    1.280212    0.723166
    109          6           0      -13.325837   -1.900695   -1.032904
    110          6           0      -12.621019   -1.873640   -2.370022
    111          7           0       -8.186094   -1.850056    0.490088
    112          6           0       -9.263097   -2.716991    0.777461
    113          6           0       -8.685011   -3.967499    1.310832
    114          6           0       -7.302104   -3.730867    1.318386
    115          6           0       -7.038346   -2.417676    0.843560
    116          6           0       -9.421879   -5.101570    1.754721
    117          6           0       -6.006163   -4.289510    1.630076
    118          8           0       -5.599221   -5.395337    1.984007
    119          6           0       -4.928701   -3.121788    1.586335
    120          6           0       -3.751573   -3.605719    0.784654
    121          8           0       -3.870613   -3.849111   -0.429096
    122          8           0       -2.635920   -3.493623    1.528387
    123          6           0       -1.439653   -3.951134    0.772446
    124          1           0       -5.602182    3.702247    0.514855
    125          1           0      -11.554117    2.782498   -1.140442
    126          1           0      -11.219192   -3.191426    0.766044
    127          1           0       -3.342688   -0.441913    1.962230
    128          1           0       -3.555281    2.171030    0.930522
    129          1           0       -4.530399    0.902842    3.456591
    130          1           0       -5.505989    2.273041    2.886446
    131          1           0       -3.821482    2.544182    3.215951
    132          1           0       -3.240604    0.631216   -0.866866
    133          1           0       -3.149129   -1.151753   -0.626339
    134          1           0       -1.236318    0.069909    1.093030
    135          1           0       -1.279225    1.076833   -0.310229
    136          1           0       -5.965784    5.366707   -0.725346
    137          1           0       -7.412708    6.310381   -0.848162
    138          1           0       -6.693257    5.694158   -2.354623
    139          1           0       -9.129957    6.765854   -2.196849
    140          1           0      -10.357619    6.575543   -3.576470
    141          1           0       -8.723681    5.854357   -3.636172
    142          1           0      -13.101385    0.760659   -1.273856
    143          1           0      -13.051677   -1.226973    0.940548
    144          1           0      -14.395232    1.777275    0.282285
    145          1           0      -12.906336    1.992954    1.268539
    146          1           0      -13.878093    0.633089    1.517749
    147          1           0      -14.339503   -1.532364   -1.208874
    148          1           0      -13.410562   -2.928762   -0.696900
    149          1           0      -13.022619   -0.972199   -2.842476
    150          1           0      -12.862263   -2.763262   -2.948297
    151          1           0      -11.542131   -1.726659   -2.243305
    152          1           0       -8.916174   -5.974185    1.363189
    153          1           0      -10.456895   -5.058268    1.422092
    154          1           0       -9.333317   -4.980056    2.837612
    155          1           0       -4.655005   -2.889834    2.616312
    156          1           0       -0.956936   -4.725592    1.376509
    157          1           0       -0.852272   -3.037779    0.561449
    158          1           0       -1.607166   -4.481952   -0.157400
 ---------------------------------------------------------------------

 SCF Done:  E(RCAM-B3LYP) =  -4069.81193455     A.U. after   19 cycles

 Excitation energies and oscillator strengths:

 Excited State   1:      Singlet-A      1.6689 eV  742.91 nm  f=0.0128  <S**2>=0.000
     309 -> 315       -0.10761
     310 -> 316        0.13416
     311 -> 313       -0.42785
     312 -> 314        0.53678
 This state for optimization and/or second-order correction.
 Total Energy, E(TD-HF/TD-DFT) =  -4069.75060351
 Copying the excited state density for this state as the 1-particle RhoCI density.

 Excited State   2:      Singlet-A      1.6858 eV  735.47 nm  f=0.7398  <S**2>=0.000
     309 -> 315        0.13831
     310 -> 316        0.10963
     311 -> 313        0.53586
     312 -> 314        0.42722

 Excited State   3:      Singlet-A      2.1853 eV  567.35 nm  f=0.1054  <S**2>=0.000
     310 -> 314        0.64202
     312 -> 316       -0.27219

 Excited State   4:      Singlet-A      2.1924 eV  565.52 nm  f=0.0969  <S**2>=0.000
     309 -> 313        0.64011
     311 -> 315       -0.27780

 Excited State   5:      Singlet-A      2.7234 eV  455.25 nm  f=0.0000  <S**2>=0.000
     312 -> 313        0.70694

 The electronic state is 1-A.
 Alpha  occ. eigenvalues --  -46.87937 -46.87557 -19.26361 -19.26062 -19.19118
 Alpha  occ. eigenvalues --  -19.18973 -19.18920 -19.18636 -19.18281 -19.17916
 Alpha  occ. eigenvalues --  -14.42582 -14.42388 -14.41587 -14.41259 -14.39543
 Alpha  occ. eigenvalues --  -14.39251 -14.38724 -14.38495 -10.39177 -10.38856
 Alpha  occ. eigenvalues --  -10.35607 -10.35316 -10.34500 -10.34088 -10.31727
 Alpha  occ. eigenvalues --  -10.31528 -10.31364 -10.31191 -10.31038 -10.30906
 Alpha  occ. eigenvalues --  -10.30700 -10.30646 -10.30348 -10.30296 -10.30251
 Alpha  occ. eigenvalues --  -10.30056 -10.30053 -10.29795 -10.29767 -10.29393
 Alpha  occ. eigenvalues --  -10.29343 -10.29300 -10.28854 -10.28612 -10.28563
 Alpha  occ. eigenvalues --  -10.28499 -10.28406 -10.28295 -10.28222 -10.28005
 Alpha  occ. eigenvalues --  -10.27924 -10.27898 -10.27856 -10.27724 -10.27642
 Alpha  occ. eigenvalues --  -10.27619 -10.27591 -10.27564 -10.27533 -10.27442
 Alpha  occ. eigenvalues --  -10.27391 -10.27368 -10.27367 -10.27298 -10.27265
 Alpha  occ. eigenvalues --  -10.26886 -10.26805 -10.26581 -10.26502 -10.26359
 Alpha  occ. eigenvalues --  -10.26339 -10.26329 -10.26155 -10.26070 -10.25949
 Alpha  occ. eigenvalues --  -10.25902 -10.25838 -10.25754 -10.25562 -10.25330
 Alpha  occ. eigenvalues --  -10.24962 -10.24926 -10.24876 -10.24765 -10.24664
 Alpha  occ. eigenvalues --  -10.24590  -3.16680  -3.16307  -1.91562  -1.91190
 Alpha  occ. eigenvalues --   -1.91148  -1.90991  -1.90778  -1.90615  -1.16714
 Alpha  occ. eigenvalues --   -1.16368  -1.08736  -1.08513  -1.07376  -1.06890
 Alpha  occ. eigenvalues --   -1.06737  -1.06702  -1.04711  -1.04383  -1.03896
 Alpha  occ. eigenvalues --   -1.03559  -1.03371  -1.02939  -1.02547  -1.02008
 Alpha  occ. eigenvalues --   -0.92097  -0.91862  -0.89661  -0.89399  -0.89297
 Alpha  occ. eigenvalues --   -0.89010  -0.88427  -0.88131  -0.87993  -0.87800
 Alpha  occ. eigenvalues --   -0.87689  -0.87569  -0.87418  -0.87034  -0.85097
 Alpha  occ. eigenvalues --   -0.84861  -0.84077  -0.83781  -0.83120  -0.82852
 Alpha  occ. eigenvalues --   -0.82768  -0.82519  -0.81689  -0.81404  -0.80717
 Alpha  occ. eigenvalues --   -0.80286  -0.78933  -0.78540  -0.77346  -0.77043
 Alpha  occ. eigenvalues --   -0.77026  -0.76739  -0.76031  -0.75679  -0.75027
 Alpha  occ. eigenvalues --   -0.74692  -0.72904  -0.72594  -0.71795  -0.71463
 Alpha  occ. eigenvalues --   -0.70057  -0.69674  -0.68992  -0.68692  -0.67771
 Alpha  occ. eigenvalues --   -0.67483  -0.67338  -0.67056  -0.65401  -0.65124
 Alpha  occ. eigenvalues --   -0.64977  -0.64741  -0.64649  -0.64496  -0.64407
 Alpha  occ. eigenvalues --   -0.64101  -0.62400  -0.62076  -0.60584  -0.60250
 Alpha  occ. eigenvalues --   -0.59921  -0.59667  -0.59115  -0.58877  -0.58631
 Alpha  occ. eigenvalues --   -0.58302  -0.57695  -0.57439  -0.57388  -0.57126
 Alpha  occ. eigenvalues --   -0.56436  -0.56093  -0.56072  -0.55682  -0.55652
 Alpha  occ. eigenvalues --   -0.55465  -0.55315  -0.55116  -0.54641  -0.54330
 Alpha  occ. eigenvalues --   -0.54005  -0.53768  -0.53433  -0.53344  -0.53116
 Alpha  occ. eigenvalues --   -0.53035  -0.53005  -0.52890  -0.52745  -0.52589
 Alpha  occ. eigenvalues --   -0.52567  -0.52315  -0.52032  -0.51777  -0.51733
 Alpha  occ. eigenvalues --   -0.51514  -0.51317  -0.51065  -0.50723  -0.50397
 Alpha  occ. eigenvalues --   -0.50172  -0.50056  -0.49873  -0.49779  -0.49638
 Alpha  occ. eigenvalues --   -0.49374  -0.49337  -0.49204  -0.49073  -0.48966
 Alpha  occ. eigenvalues --   -0.48704  -0.48602  -0.48571  -0.48406  -0.48280
 Alpha  occ. eigenvalues --   -0.48224  -0.47821  -0.47468  -0.47424  -0.47006
 Alpha  occ. eigenvalues --   -0.46926  -0.46667  -0.46594  -0.46490  -0.46410
 Alpha  occ. eigenvalues --   -0.46285  -0.46161  -0.45955  -0.45926  -0.45660
 Alpha  occ. eigenvalues --   -0.45336  -0.45111  -0.44692  -0.44642  -0.44372
 Alpha  occ. eigenvalues --   -0.44350  -0.44283  -0.44201  -0.44140  -0.44005
 Alpha  occ. eigenvalues --   -0.43966  -0.43811  -0.43601  -0.43510  -0.43366
 Alpha  occ. eigenvalues --   -0.43244  -0.43150  -0.42828  -0.42794  -0.42762
 Alpha  occ. eigenvalues --   -0.42678  -0.42464  -0.42143  -0.41848  -0.41828
 Alpha  occ. eigenvalues --   -0.41648  -0.41544  -0.41321  -0.41263  -0.40995
 Alpha  occ. eigenvalues --   -0.40968  -0.40873  -0.40704  -0.40617  -0.40573
 Alpha  occ. eigenvalues --   -0.40387  -0.40340  -0.40063  -0.39597  -0.39344
 Alpha  occ. eigenvalues --   -0.38603  -0.38251  -0.37857  -0.37486  -0.37456
 Alpha  occ. eigenvalues --   -0.37380  -0.37162  -0.37056  -0.36819  -0.36560
 Alpha  occ. eigenvalues --   -0.36310  -0.36069  -0.34419  -0.34143  -0.33877
 Alpha  occ. eigenvalues --   -0.33648  -0.33318  -0.33063  -0.31502  -0.31194
 Alpha  occ. eigenvalues --   -0.31168  -0.30863  -0.30139  -0.29815  -0.29589
 Alpha  occ. eigenvalues --   -0.29454  -0.29231  -0.29105  -0.24214  -0.23929
 Alpha  occ. eigenvalues --   -0.21262  -0.21014
 Alpha virt. eigenvalues --   -0.08909  -0.08689  -0.01888  -0.01584  -0.00198
 Alpha virt. eigenvalues --    0.00070   0.02074   0.02322   0.02933   0.03326
 Alpha virt. eigenvalues --    0.04598   0.04865   0.05000   0.05387   0.06083

 Mulliken charges:
               1
     1  Mg   0.837827
     2  C   -0.003099
     3  C   -0.094017
     4  C   -0.046208
     5  C   -0.063996
     6  N   -0.256818
     7  C   -0.052395
     8  C   -0.013936
     9  C   -0.086979
    10  C    0.046211
    11  C    0.104743
    12  C    0.053453
    13  C   -0.072132
    14  H    0.036893
    15  N   -0.433158
    16  C    0.168159
    17  C   -0.177182
    18  C   -0.004260
    19  C    0.148512
    20  C    0.110110
    21  C    0.011782
    22  O   -0.249865
    23  C    0.062685
    24  N   -0.341101
    25  C    0.041235
    26  C   -0.028169
    27  C   -0.024002
    28  C    0.074653
    29  C    0.076094
    30  C    0.035163
    31  C   -0.004541
    32  N   -0.310475
    33  C    0.080214
    34  C   -0.169785
    35  C    0.008515
    36  C    0.082644
    37  C    0.127327
    38  C    0.045996
    39  O   -0.187727
    40  C   -0.005248
    41  C    0.213181
    42  O   -0.257729
    43  O   -0.304688
    44  C    0.157439
    45  H   -0.017344
    46  H   -0.016969
    47  H   -0.041241
    48  H    0.001298
    49  H   -0.003877
    50  H    0.025663
    51  H    0.016431
    52  H    0.016950
    53  H    0.010897
    54  H    0.043920
    55  H    0.018123
    56  H    0.017990
    57  H    0.006149
    58  H    0.027022
    59  H    0.039148
    60  H    0.037769
    61  H    0.035354
    62  H    0.030881
    63  H    0.016112
    64  H    0.009858
    65  H    0.023206
    66  H    0.012747
    67  H    0.005055
    68  H    0.006551
    69  H    0.005197
    70  H    0.008256
    71  H    0.017994
    72  H    0.028519
    73  H    0.047796
    74  H    0.009236
    75  H    0.046420
    76  H    0.035542
    77  H    0.043512
    78  H    0.046565
    79  H    0.053946
    80  Mg   0.837638
    81  C   -0.016592
    82  C   -0.087817
    83  C   -0.045739
    84  C   -0.065181
    85  N   -0.254549
    86  C   -0.049782
    87  C   -0.014883
    88  C   -0.090435
    89  C    0.045744
    90  C    0.114406
    91  C    0.062707
    92  C   -0.079120
    93  H    0.038432
    94  N   -0.423445
    95  C    0.162763
    96  C   -0.174787
    97  C   -0.008079
    98  C    0.152076
    99  C    0.099440
   100  C    0.015396
   101  O   -0.253466
   102  C    0.061283
   103  N   -0.350126
   104  C    0.037450
   105  C   -0.019750
   106  C   -0.034827
   107  C    0.089045
   108  C    0.073748
   109  C    0.034794
   110  C   -0.007645
   111  N   -0.324175
   112  C    0.078592
   113  C   -0.163250
   114  C    0.002442
   115  C    0.096170
   116  C    0.131491
   117  C    0.042329
   118  O   -0.187231
   119  C    0.001077
   120  C    0.211478
   121  O   -0.251119
   122  O   -0.306112
   123  C    0.151407
   124  H   -0.019775
   125  H   -0.015882
   126  H   -0.040635
   127  H   -0.000312
   128  H   -0.004280
   129  H    0.022403
   130  H    0.014073
   131  H    0.016313
   132  H    0.013197
   133  H    0.038084
   134  H    0.020796
   135  H    0.018593
   136  H    0.008722
   137  H    0.025886
   138  H    0.039309
   139  H    0.038144
   140  H    0.036071
   141  H    0.033680
   142  H    0.014203
   143  H    0.012280
   144  H    0.024897
   145  H    0.011601
   146  H    0.005510
   147  H    0.006046
   148  H    0.003604
   149  H    0.010790
   150  H    0.017810
   151  H    0.030271
   152  H    0.046184
   153  H    0.008309
   154  H    0.046862
   155  H    0.034935
   156  H    0.045286
   157  H    0.050899
   158  H    0.054325
 Sum of Mulliken charges =  -0.00000

 Dipole moment (field-independent basis, Debye):
    X=              3.5438    Y=              7.1594    Z=             -1.6653  Tot=              8.1602
 Quadrupole moment (field-independent basis, Debye-Ang):
   XX=           -481.1638   YY=           -549.8839   ZZ=           -475.4560
   XY=             22.5045   XZ=            -34.0761   YZ=             -8.7002

 Normal termination of Gaussian 16 at Sun Sep 12 02:10:10 2021.
