 Gaussian 16, Revision A.03,
 Gaussian 16:  ES64L-G16RevA.03 25-Dec-2016

 -----------------------------------
 #p cam-b3lyp/Def2SVP td=(nstates=5)
 -----------------------------------

 --------------------------------
 TDDFT excited states in gaussian
 --------------------------------
 Symbolic Z-matrix:
 Charge =  0 Multiplicity = 1

                         Standard orientation:
 ---------------------------------------------------------------------
 Center     Atomic      Atomic             Coordinates (Angstroms)
 Number     Number       Type             X           Y           Z
 ---------------------------------------------------------------------
      1         12           0       -4.908055   -1.327032    0.520525
      2          6           0       -5.558723    2.184917    0.285877
      3          6           0       -6.008097   -1.594766   -2.698371
      4          6           0       -4.772715   -4.478063    0.851149
      5          6           0       -4.950067   -0.953460    3.985253
      6          7           0       -5.660297    0.176821   -0.919337
      7          6           0       -5.803770    1.498333   -0.905424
      8          6           0       -6.166542    2.095092   -2.298137
      9          6           0       -6.821014    0.802289   -2.963212
     10          6           0       -6.095143   -0.271657   -2.172216
     11          6           0       -8.318723    0.675623   -2.703739
     12          6           0       -4.901363    2.568474   -3.089948
     13          6           0       -5.185557    3.453682   -4.306909
     14          1           0       -4.253965    4.524794   -4.626600
     15          7           0       -4.858954   -2.757219   -0.841460
     16          6           0       -5.338255   -2.687488   -2.106646
     17          6           0       -5.063765   -4.004889   -2.719664
     18          6           0       -4.557428   -4.908210   -1.649277
     19          6           0       -4.736519   -4.081061   -0.483461
     20          6           0       -5.237879   -4.284829   -4.180851
     21          6           0       -4.010304   -6.300429   -1.671969
     22          8           0       -3.845210   -6.983840   -0.604136
     23          6           0       -3.752318   -6.883296   -3.001161
     24          7           0       -5.084455   -2.590356    2.172957
     25          6           0       -4.927301   -3.912946    2.050313
     26          6           0       -4.815297   -4.576145    3.391045
     27          6           0       -4.684718   -3.395834    4.458551
     28          6           0       -4.835035   -2.190786    3.497544
     29          6           0       -5.982151   -5.492743    3.783868
     30          6           0       -3.458665   -3.436067    5.404909
     31          6           0       -2.191160   -3.205789    4.612758
     32          7           0       -5.022530    0.331450    1.916009
     33          6           0       -5.047250    0.255116    3.316093
     34          6           0       -5.240417    1.627210    3.820188
     35          6           0       -5.331839    2.409308    2.670488
     36          6           0       -5.230177    1.574978    1.520771
     37          6           0       -5.367964    2.002786    5.186610
     38          6           0       -5.516436    3.752565    2.145663
     39          8           0       -5.565416    4.878632    2.642722
     40          6           0       -5.792775    3.645615    0.581047
     41          6           0       -4.910577    4.651998   -0.106143
     42          8           0       -3.669546    4.520825   -0.105577
     43          8           0       -5.667926    5.471785   -0.851067
     44          6           0       -4.851253    6.476440   -1.583097
     45          1           0       -6.549516   -1.834736   -3.615552
     46          1           0       -4.617791   -5.546831    1.012926
     47          1           0       -4.888645   -0.748682    5.055649
     48          1           0       -6.893185    2.907238   -2.269304
     49          1           0       -6.577801    0.722252   -4.022535
     50          1           0       -8.665285    1.427676   -1.995056
     51          1           0       -8.459808   -0.325483   -2.295849
     52          1           0       -8.877372    0.699278   -3.639756
     53          1           0       -4.446415    1.711280   -3.586235
     54          1           0       -4.200911    3.079257   -2.428289
     55          1           0       -6.209489    3.828344   -4.296839
     56          1           0       -5.133264    2.832258   -5.200943
     57          1           0       -5.779175   -3.482477   -4.680627
     58          1           0       -5.896504   -5.149204   -4.263172
     59          1           0       -4.289140   -4.497280   -4.673893
     60          1           0       -4.680071   -6.898901   -3.573506
     61          1           0       -3.280381   -7.848315   -2.819877
     62          1           0       -3.067361   -6.232339   -3.545255
     63          1           0       -3.927416   -5.204919    3.443347
     64          1           0       -5.540283   -3.358091    5.133279
     65          1           0       -5.677855   -6.513355    4.017238
     66          1           0       -6.710342   -5.477406    2.973439
     67          1           0       -6.581861   -5.136033    4.620840
     68          1           0       -3.371701   -4.416813    5.871299
     69          1           0       -3.505074   -2.693090    6.201202
     70          1           0       -1.961781   -4.198283    4.226530
     71          1           0       -1.394557   -2.847135    5.265446
     72          1           0       -2.369779   -2.555940    3.755858
     73          1           0       -4.761667    2.899477    5.314357
     74          1           0       -5.037502    1.203418    5.849488
     75          1           0       -6.441719    2.179194    5.248157
     76          1           0       -6.850729    3.860741    0.434159
     77          1           0       -5.233244    7.460439   -1.310954
     78          1           0       -4.883534    6.194497   -2.635651
     79          1           0       -3.809192    6.567701   -1.274683
     80         12           0        5.568871   -0.046639   -0.297548
     81          6           0        3.758876    3.047426   -0.125030
     82          6           0        3.539101   -0.916489   -2.897156
     83          6           0        6.838009   -2.952558   -0.186340
     84          6           0        6.652669    0.566362    2.957494
     85          7           0        3.901615    1.013443   -1.291898
     86          6           0        3.343171    2.209306   -1.180577
     87          6           0        2.336137    2.556532   -2.309688
     88          6           0        1.942776    1.062772   -2.748800
     89          6           0        3.217717    0.338586   -2.321318
     90          6           0        0.779387    0.489364   -1.956920
     91          6           0        3.008357    3.343685   -3.488897
     92          6           0        2.029242    3.982752   -4.476152
     93          1           0        2.381625    5.268437   -5.072234
     94          7           0        5.588410   -1.492392   -1.656960
     95          6           0        4.700263   -1.682917   -2.655037
     96          6           0        5.144827   -2.893050   -3.363625
     97          6           0        6.273163   -3.494601   -2.602242
     98          6           0        6.263126   -2.663241   -1.415303
     99          6           0        4.563248   -3.326286   -4.677974
    100          6           0        7.198744   -4.638072   -2.888542
    101          8           0        7.952318   -5.138054   -1.980263
    102          6           0        7.128960   -5.215770   -4.238685
    103          7           0        6.423653   -1.153984    1.240470
    104          6           0        6.946273   -2.370916    1.008349
    105          6           0        7.746200   -2.856172    2.193684
    106          6           0        7.853368   -1.603174    3.181662
    107          6           0        6.982899   -0.592166    2.403500
    108          6           0        7.160567   -4.049847    2.947718
    109          6           0        9.280210   -1.169480    3.616065
    110          6           0       10.036711   -0.620021    2.428123
    111          7           0        5.431127    1.590823    1.105230
    112          6           0        5.933229    1.628320    2.424530
    113          6           0        5.493679    2.906147    3.021500
    114          6           0        4.741005    3.518013    2.007799
    115          6           0        4.696509    2.671628    0.867122
    116          6           0        5.758183    3.337292    4.352023
    117          6           0        3.965101    4.682716    1.647054
    118          8           0        3.726644    5.766406    2.178568
    119          6           0        3.188926    4.373879    0.294816
    120          6           0        3.383144    5.544199   -0.629932
    121          8           0        4.511867    5.817892   -1.074547
    122          8           0        2.179406    6.011961   -1.007494
    123          6           0        2.319726    7.166597   -1.934293
    124          1           0        2.814754   -1.380697   -3.567028
    125          1           0        7.384129   -3.897156   -0.131940
    126          1           0        7.031325    0.875406    3.934111
    127          1           0        1.453381    3.092422   -1.982068
    128          1           0        1.805651    0.990490   -3.824592
    129          1           0        0.484522    1.139197   -1.146412
    130          1           0        1.125157   -0.461440   -1.572895
    131          1           0       -0.054718    0.258868   -2.625847
    132          1           0        3.509098    2.630319   -4.156064
    133          1           0        3.681941    4.089562   -3.113985
    134          1           0        1.005711    4.009107   -4.082914
    135          1           0        1.960526    3.343504   -5.359701
    136          1           0        3.639235   -2.781615   -4.908064
    137          1           0        4.242574   -4.366817   -4.558311
    138          1           0        5.284176   -3.270553   -5.496412
    139          1           0        6.117838   -5.567671   -4.429095
    140          1           0        7.926135   -5.960571   -4.279415
    141          1           0        7.329276   -4.423749   -4.968887
    142          1           0        8.743457   -3.152241    1.892161
    143          1           0        7.339397   -1.791429    4.135717
    144          1           0        7.853223   -4.910457    3.008077
    145          1           0        6.236481   -4.338620    2.464807
    146          1           0        6.833696   -3.838589    3.964444
    147          1           0        9.846675   -2.033470    3.972150
    148          1           0        9.284007   -0.431806    4.411561
    149          1           0       10.419362   -1.521733    1.940703
    150          1           0       10.848497    0.025950    2.756377
    151          1           0        9.357610   -0.127005    1.722855
    152          1           0        6.037163    4.380850    4.291484
    153          1           0        6.542343    2.741516    4.814520
    154          1           0        4.782444    3.159857    4.812147
    155          1           0        2.138873    4.221471    0.547289
    156          1           0        1.756966    7.997274   -1.497302
    157          1           0        1.987583    6.798104   -2.923053
    158          1           0        3.303497    7.609138   -2.038272
 ---------------------------------------------------------------------

 SCF Done:  E(RCAM-B3LYP) =  -4069.81138621     A.U. after   19 cycles

 Excitation energies and oscillator strengths:

 Excited State   1:      Singlet-A      1.6555 eV  748.92 nm  f=0.0020  <S**2>=0.000
     309 -> 315        0.11523
     310 -> 316       -0.12318
     311 -> 313        0.46702
     312 -> 314        0.50418
 This state for optimization and/or second-order correction.
 Total Energy, E(TD-HF/TD-DFT) =  -4069.75054770
 Copying the excited state density for this state as the 1-particle RhoCI density.

 Excited State   2:      Singlet-A      1.6972 eV  730.52 nm  f=0.7138  <S**2>=0.000
     309 -> 315        0.13225
     310 -> 316        0.12129
     311 -> 313        0.50217
     312 -> 314       -0.46526

 Excited State   3:      Singlet-A      2.1825 eV  568.08 nm  f=0.0415  <S**2>=0.000
     309 -> 313        0.24479
     310 -> 314        0.59568
     311 -> 315       -0.10215
     312 -> 316        0.24987

 Excited State   4:      Singlet-A      2.1944 eV  565.01 nm  f=0.1455  <S**2>=0.000
     309 -> 313        0.59200
     310 -> 314       -0.24190
     311 -> 315       -0.25944
     312 -> 316       -0.10680

 Excited State   5:      Singlet-A      2.4323 eV  509.75 nm  f=0.0000  <S**2>=0.000
     312 -> 313        0.70689

 The electronic state is 1-A.
 Alpha  occ. eigenvalues --  -46.87992 -46.87453 -19.26443 -19.25988 -19.19185
 Alpha  occ. eigenvalues --  -19.19002 -19.18845 -19.18551 -19.18305 -19.17763
 Alpha  occ. eigenvalues --  -14.42650 -14.42284 -14.41630 -14.41155 -14.39598
 Alpha  occ. eigenvalues --  -14.39149 -14.38770 -14.38384 -10.39245 -10.38764
 Alpha  occ. eigenvalues --  -10.35637 -10.35233 -10.34528 -10.33931 -10.31831
 Alpha  occ. eigenvalues --  -10.31595 -10.31453 -10.31121 -10.31077 -10.30796
 Alpha  occ. eigenvalues --  -10.30751 -10.30682 -10.30388 -10.30187 -10.30141
 Alpha  occ. eigenvalues --  -10.30081 -10.29965 -10.29807 -10.29688 -10.29443
 Alpha  occ. eigenvalues --  -10.29249 -10.29197 -10.28990 -10.28848 -10.28555
 Alpha  occ. eigenvalues --  -10.28473 -10.28428 -10.28335 -10.28181 -10.27965
 Alpha  occ. eigenvalues --  -10.27922 -10.27893 -10.27789 -10.27771 -10.27709
 Alpha  occ. eigenvalues --  -10.27640 -10.27592 -10.27586 -10.27470 -10.27363
 Alpha  occ. eigenvalues --  -10.27349 -10.27319 -10.27269 -10.27251 -10.27214
 Alpha  occ. eigenvalues --  -10.27024 -10.26693 -10.26626 -10.26475 -10.26420
 Alpha  occ. eigenvalues --  -10.26300 -10.26298 -10.26192 -10.26003 -10.25942
 Alpha  occ. eigenvalues --  -10.25741 -10.25722 -10.25644 -10.25556 -10.25250
 Alpha  occ. eigenvalues --  -10.25001 -10.24963 -10.24800 -10.24649 -10.24600
 Alpha  occ. eigenvalues --  -10.24484  -3.16736  -3.16203  -1.91618  -1.91204
 Alpha  occ. eigenvalues --   -1.91086  -1.91046  -1.90674  -1.90511  -1.16792
 Alpha  occ. eigenvalues --   -1.16296  -1.08759  -1.08357  -1.07402  -1.06807
 Alpha  occ. eigenvalues --   -1.06805  -1.06626  -1.04780  -1.04274  -1.03945
 Alpha  occ. eigenvalues --   -1.03454  -1.03417  -1.02836  -1.02594  -1.01902
 Alpha  occ. eigenvalues --   -0.92150  -0.91735  -0.89677  -0.89415  -0.89303
 Alpha  occ. eigenvalues --   -0.88904  -0.88441  -0.88042  -0.88025  -0.87873
 Alpha  occ. eigenvalues --   -0.87580  -0.87476  -0.87472  -0.86952  -0.85202
 Alpha  occ. eigenvalues --   -0.84778  -0.84080  -0.83697  -0.83157  -0.82849
 Alpha  occ. eigenvalues --   -0.82778  -0.82435  -0.81756  -0.81337  -0.80780
 Alpha  occ. eigenvalues --   -0.80210  -0.78984  -0.78449  -0.77404  -0.77124
 Alpha  occ. eigenvalues --   -0.76942  -0.76668  -0.76107  -0.75591  -0.75051
 Alpha  occ. eigenvalues --   -0.74609  -0.72946  -0.72492  -0.71848  -0.71359
 Alpha  occ. eigenvalues --   -0.70047  -0.69595  -0.69081  -0.68611  -0.67822
 Alpha  occ. eigenvalues --   -0.67460  -0.67391  -0.67003  -0.65500  -0.65030
 Alpha  occ. eigenvalues --   -0.65027  -0.64803  -0.64553  -0.64428  -0.64416
 Alpha  occ. eigenvalues --   -0.64013  -0.62460  -0.62002  -0.60627  -0.60161
 Alpha  occ. eigenvalues --   -0.60014  -0.59555  -0.59162  -0.58774  -0.58677
 Alpha  occ. eigenvalues --   -0.58198  -0.57746  -0.57474  -0.57264  -0.57022
 Alpha  occ. eigenvalues --   -0.56484  -0.56158  -0.55998  -0.55704  -0.55616
 Alpha  occ. eigenvalues --   -0.55487  -0.55238  -0.55030  -0.54675  -0.54251
 Alpha  occ. eigenvalues --   -0.54122  -0.53675  -0.53480  -0.53424  -0.53091
 Alpha  occ. eigenvalues --   -0.53031  -0.52967  -0.52920  -0.52668  -0.52572
 Alpha  occ. eigenvalues --   -0.52489  -0.52237  -0.52048  -0.51837  -0.51669
 Alpha  occ. eigenvalues --   -0.51444  -0.51361  -0.50970  -0.50784  -0.50331
 Alpha  occ. eigenvalues --   -0.50196  -0.50108  -0.49787  -0.49716  -0.49690
 Alpha  occ. eigenvalues --   -0.49393  -0.49287  -0.49284  -0.48970  -0.48855
 Alpha  occ. eigenvalues --   -0.48762  -0.48638  -0.48599  -0.48320  -0.48197
 Alpha  occ. eigenvalues --   -0.48134  -0.47882  -0.47476  -0.47385  -0.46974
 Alpha  occ. eigenvalues --   -0.46932  -0.46775  -0.46530  -0.46508  -0.46338
 Alpha  occ. eigenvalues --   -0.46320  -0.46076  -0.45976  -0.45867  -0.45572
 Alpha  occ. eigenvalues --   -0.45354  -0.45021  -0.44746  -0.44697  -0.44316
 Alpha  occ. eigenvalues --   -0.44292  -0.44279  -0.44269  -0.44189  -0.43905
 Alpha  occ. eigenvalues --   -0.43891  -0.43720  -0.43656  -0.43579  -0.43307
 Alpha  occ. eigenvalues --   -0.43198  -0.43161  -0.42857  -0.42803  -0.42695
 Alpha  occ. eigenvalues --   -0.42604  -0.42380  -0.42178  -0.41875  -0.41768
 Alpha  occ. eigenvalues --   -0.41747  -0.41424  -0.41322  -0.41244  -0.41075
 Alpha  occ. eigenvalues --   -0.41031  -0.40769  -0.40728  -0.40545  -0.40506
 Alpha  occ. eigenvalues --   -0.40498  -0.40296  -0.40005  -0.39580  -0.39268
 Alpha  occ. eigenvalues --   -0.38638  -0.38170  -0.37996  -0.37489  -0.37481
 Alpha  occ. eigenvalues --   -0.37450  -0.37073  -0.36980  -0.36873  -0.36486
 Alpha  occ. eigenvalues --   -0.36363  -0.35988  -0.34469  -0.34039  -0.33940
 Alpha  occ. eigenvalues --   -0.33567  -0.33367  -0.32962  -0.31530  -0.31220
 Alpha  occ. eigenvalues --   -0.31109  -0.30754  -0.30164  -0.29658  -0.29637
 Alpha  occ. eigenvalues --   -0.29490  -0.29132  -0.28989  -0.24267  -0.23818
 Alpha  occ. eigenvalues --   -0.21312  -0.20911
 Alpha virt. eigenvalues --   -0.08957  -0.08583  -0.01936  -0.01482  -0.00250
 Alpha virt. eigenvalues --    0.00167   0.02042   0.02446   0.02741   0.03417
 Alpha virt. eigenvalues --    0.04504   0.04924   0.04948   0.05484   0.05911

 Mulliken charges:
               1
     1  Mg   0.836699
     2  C   -0.003642
     3  C   -0.095211
     4  C   -0.045535
     5  C   -0.063497
     6  N   -0.256762
     7  C   -0.053006
     8  C   -0.013587
     9  C   -0.086746
    10  C    0.045544
    11  C    0.104730
    12  C    0.053725
    13  C   -0.071575
    14  H    0.035087
    15  N   -0.433188
    16  C    0.167594
    17  C   -0.178040
    18  C   -0.004291
    19  C    0.148454
    20  C    0.110242
    21  C    0.012002
    22  O   -0.249029
    23  C    0.062854
    24  N   -0.341074
    25  C    0.041118
    26  C   -0.028222
    27  C   -0.024186
    28  C    0.074964
    29  C    0.076036
    30  C    0.034997
    31  C   -0.004512
    32  N   -0.310764
    33  C    0.080626
    34  C   -0.168821
    35  C    0.008995
    36  C    0.082854
    37  C    0.127031
    38  C    0.046816
    39  O   -0.186684
    40  C   -0.005601
    41  C    0.213515
    42  O   -0.257604
    43  O   -0.304701
    44  C    0.157135
    45  H   -0.017618
    46  H   -0.016460
    47  H   -0.040678
    48  H    0.001621
    49  H   -0.004682
    50  H    0.025861
    51  H    0.016814
    52  H    0.016856
    53  H    0.008865
    54  H    0.042980
    55  H    0.019181
    56  H    0.017543
    57  H    0.005646
    58  H    0.027348
    59  H    0.037819
    60  H    0.037659
    61  H    0.036066
    62  H    0.029766
    63  H    0.016821
    64  H    0.009895
    65  H    0.023551
    66  H    0.012550
    67  H    0.005081
    68  H    0.006762
    69  H    0.005187
    70  H    0.008936
    71  H    0.018709
    72  H    0.028467
    73  H    0.049045
    74  H    0.009533
    75  H    0.046374
    76  H    0.035525
    77  H    0.043926
    78  H    0.045521
    79  H    0.054396
    80  Mg   0.837514
    81  C   -0.016835
    82  C   -0.087821
    83  C   -0.045705
    84  C   -0.065445
    85  N   -0.254575
    86  C   -0.049106
    87  C   -0.016257
    88  C   -0.091166
    89  C    0.045830
    90  C    0.112809
    91  C    0.062592
    92  C   -0.077426
    93  H    0.033213
    94  N   -0.423416
    95  C    0.162751
    96  C   -0.175042
    97  C   -0.008154
    98  C    0.151963
    99  C    0.099744
   100  C    0.015303
   101  O   -0.253604
   102  C    0.061340
   103  N   -0.350112
   104  C    0.037346
   105  C   -0.019679
   106  C   -0.034776
   107  C    0.089148
   108  C    0.073797
   109  C    0.034831
   110  C   -0.007581
   111  N   -0.324332
   112  C    0.078864
   113  C   -0.163371
   114  C    0.003074
   115  C    0.095846
   116  C    0.131450
   117  C    0.043020
   118  O   -0.186380
   119  C    0.000519
   120  C    0.210418
   121  O   -0.252501
   122  O   -0.302647
   123  C    0.152958
   124  H   -0.021020
   125  H   -0.016085
   126  H   -0.040860
   127  H    0.005498
   128  H   -0.006164
   129  H    0.028997
   130  H    0.013039
   131  H    0.014961
   132  H    0.012869
   133  H    0.037584
   134  H    0.022534
   135  H    0.017825
   136  H    0.007543
   137  H    0.025262
   138  H    0.038988
   139  H    0.037829
   140  H    0.035893
   141  H    0.033504
   142  H    0.014009
   143  H    0.012060
   144  H    0.024693
   145  H    0.011883
   146  H    0.005159
   147  H    0.005853
   148  H    0.003474
   149  H    0.010736
   150  H    0.017603
   151  H    0.030352
   152  H    0.045999
   153  H    0.007874
   154  H    0.047592
   155  H    0.041880
   156  H    0.044058
   157  H    0.048192
   158  H    0.052380
 Sum of Mulliken charges =  -0.00000

 Dipole moment (field-independent basis, Debye):
    X=             -4.7892    Y=             -4.3488    Z=             -5.6517  Tot=              8.5901
 Quadrupole moment (field-independent basis, Debye-Ang):
   XX=           -510.4665   YY=           -564.2233   ZZ=           -448.5439
   XY=             -0.9381   XZ=             31.3519   YZ=            -25.3281

 Normal termination of Gaussian 16 at Fri Sep 10 21:55:23 2021.
