 Gaussian 16, Revision A.03,
 Gaussian 16:  ES64L-G16RevA.03 25-Dec-2016

 -----------------------------------
 #p cam-b3lyp/Def2SVP td=(nstates=5)
 -----------------------------------

 --------------------------------
 TDDFT excited states in gaussian
 --------------------------------
 Symbolic Z-matrix:
 Charge =  0 Multiplicity = 1

                         Standard orientation:
 ---------------------------------------------------------------------
 Center     Atomic      Atomic             Coordinates (Angstroms)
 Number     Number       Type             X           Y           Z
 ---------------------------------------------------------------------
      1         12           0       16.148823    0.501775    0.580859
      2          6           0       16.395232   -2.515269   -1.329362
      3          6           0       17.091713    2.184825   -2.233633
      4          6           0       16.379432    3.120065    2.355119
      5          6           0       16.341264   -1.471596    3.446942
      6          7           0       16.650191   -0.188735   -1.461804
      7          6           0       16.647975   -1.365293   -2.080575
      8          6           0       16.865229   -1.254474   -3.619371
      9          6           0       17.620102    0.149070   -3.666586
     10          6           0       17.061688    0.768021   -2.397335
     11          6           0       19.134711    0.031145   -3.530363
     12          6           0       15.513766   -1.204940   -4.408565
     13          6           0       15.631042   -1.425027   -5.919579
     14          1           0       14.571017   -2.147529   -6.606374
     15          7           0       16.182004    2.406111    0.056215
     16          6           0       16.579933    2.910755   -1.136376
     17          6           0       16.418504    4.377006   -1.032783
     18          6           0       16.074653    4.698211    0.380259
     19          6           0       16.225945    3.406911    1.000768
     20          6           0       16.541180    5.303068   -2.203727
     21          6           0       15.683581    5.969576    1.064968
     22          8           0       15.654044    6.074821    2.338791
     23          6           0       15.418077    7.129526    0.194873
     24          7           0       16.554340    0.814639    2.604545
     25          6           0       16.537077    2.044660    3.129650
     26          6           0       16.573113    1.999031    4.628502
     27          6           0       16.372802    0.466325    5.029054
     28          6           0       16.336208   -0.146322    3.607227
     29          6           0       17.853662    2.534593    5.283774
     30          6           0       15.212906    0.139832    6.002945
     31          6           0       13.885858    0.403046    5.327105
     32          7           0       16.157261   -1.623433    1.021843
     33          6           0       16.267712   -2.221933    2.285280
     34          6           0       16.336390   -3.678786    2.068648
     35          6           0       16.277427   -3.826613    0.684265
     36          6           0       16.204655   -2.542127    0.073453
     37          6           0       16.497312   -4.665222    3.081309
     38          6           0       16.283801   -4.769767   -0.422205
     39          8           0       16.236063   -5.997151   -0.515712
     40          6           0       16.483169   -3.953733   -1.775042
     41          6           0       15.458935   -4.448703   -2.759551
     42          8           0       14.241810   -4.245949   -2.572832
     43          8           0       16.079097   -4.868668   -3.872912
     44          6           0       15.117595   -5.345504   -4.902618
     45          1           0       17.604623    2.791893   -2.982186
     46          1           0       16.352210    3.992329    3.011513
     47          1           0       16.317051   -2.154411    4.298195
     48          1           0       17.498601   -2.032376   -4.046140
     49          1           0       17.328890    0.738736   -4.535614
     50          1           0       19.435149   -0.989396   -3.293392
     51          1           0       19.407428    0.706385   -2.719086
     52          1           0       19.634679    0.414557   -4.420196
     53          1           0       15.129093   -0.185139   -4.398923
     54          1           0       14.799096   -1.917283   -3.994875
     55          1           0       16.606524   -1.831141   -6.188680
     56          1           0       15.598000   -0.452104   -6.410015
     57          1           0       16.962424    4.797490   -3.071765
     58          1           0       17.285315    6.054048   -1.939149
     59          1           0       15.595733    5.790459   -2.442289
     60          1           0       16.308794    7.348843   -0.394255
     61          1           0       15.065922    7.923943    0.851942
     62          1           0       14.636603    6.864682   -0.517942
     63          1           0       15.764052    2.588956    5.057261
     64          1           0       17.255062    0.052730    5.518166
     65          1           0       17.676870    3.341232    5.995661
     66          1           0       18.529749    2.853758    4.491101
     67          1           0       18.455911    1.782269    5.792421
     68          1           0       15.260310    0.785622    6.879103
     69          1           0       15.221324   -0.893017    6.351375
     70          1           0       13.746013    1.473438    5.473860
     71          1           0       13.092005   -0.164719    5.813574
     72          1           0       13.944188    0.226301    4.252934
     73          1           0       15.804067   -5.469805    2.836301
     74          1           0       16.293999   -4.254518    4.070040
     75          1           0       17.546896   -4.925275    2.944918
     76          1           0       17.501273   -4.147833   -2.111065
     77          1           0       15.403508   -6.365165   -5.161036
     78          1           0       15.122365   -4.601360   -5.699256
     79          1           0       14.090504   -5.498001   -4.569200
     80         12           0      -15.598746    0.521900   -0.164030
     81          6           0      -18.193451   -1.862952    0.513507
     82          6           0      -18.035892    2.633928   -1.275037
     83          6           0      -13.309263    2.465185   -1.188397
     84          6           0      -13.335500   -2.127189   -0.088279
     85          7           0      -17.794539    0.300329   -0.311199
     86          6           0      -18.675021   -0.627088    0.033753
     87          6           0      -20.157053   -0.177197   -0.069895
     88          6           0      -19.978353    0.990520   -1.157734
     89          6           0      -18.523199    1.362366   -0.880374
     90          6           0      -20.080473    0.497920   -2.591696
     91          6           0      -20.708182    0.382571    1.288385
     92          6           0      -22.228064    0.551449    1.344987
     93          1           0      -22.910138    0.295659    2.610606
     94          7           0      -15.664584    2.449169   -0.632967
     95          6           0      -16.742258    3.150563   -1.042751
     96          6           0      -16.263813    4.521374   -1.279654
     97          6           0      -14.782738    4.532895   -1.134657
     98          6           0      -14.520301    3.114333   -0.997194
     99          6           0      -17.191136    5.675157   -1.529219
    100          6           0      -13.768974    5.636738   -1.134253
    101          8           0      -12.513466    5.397944   -1.231769
    102          6           0      -14.294590    7.009569   -1.110463
    103          7           0      -13.643435    0.191287   -0.788343
    104          6           0      -12.844674    1.216874   -1.131974
    105          6           0      -11.410917    0.766155   -1.278886
    106          6           0      -11.372948   -0.733294   -0.724083
    107          6           0      -12.874828   -0.929440   -0.421962
    108          6           0      -10.845854    0.797618   -2.698779
    109          6           0      -10.346401   -1.041991    0.400009
    110          6           0      -10.733613   -0.313570    1.666831
    111          7           0      -15.679843   -1.579399    0.331963
    112          6           0      -14.621060   -2.511765    0.270651
    113          6           0      -15.189104   -3.837297    0.591151
    114          6           0      -16.554153   -3.585746    0.795759
    115          6           0      -16.821835   -2.204507    0.595710
    116          6           0      -14.471441   -5.066328    0.614503
    117          6           0      -17.831416   -4.176376    1.125082
    118          8           0      -18.206212   -5.292689    1.481602
    119          6           0      -18.972180   -3.108768    0.833087
    120          6           0      -19.891700   -3.074337    2.022970
    121          8           0      -19.482682   -2.672129    3.126401
    122          8           0      -21.150930   -3.313690    1.613816
    123          6           0      -22.101624   -3.279028    2.756967
    124          1           0      -18.691821    3.283798   -1.854938
    125          1           0      -12.462473    3.109908   -1.434876
    126          1           0      -12.677517   -2.987473    0.051853
    127          1           0      -20.836256   -0.933580   -0.444518
    128          1           0      -20.633782    1.831310   -0.945952
    129          1           0      -20.138837   -0.579087   -2.644527
    130          1           0      -19.187526    0.853279   -3.089106
    131          1           0      -20.920412    0.982373   -3.097795
    132          1           0      -20.398607    1.430109    1.395923
    133          1           0      -20.381039   -0.223264    2.110925
    134          1           0      -22.731926    0.026967    0.524018
    135          1           0      -22.466714    1.604435    1.176797
    136          1           0      -18.210932    5.332483   -1.743672
    137          1           0      -16.863992    6.153006   -2.459008
    138          1           0      -17.169723    6.414237   -0.725492
    139          1           0      -14.936510    7.165508   -1.974216
    140          1           0      -13.419243    7.656162   -1.023495
    141          1           0      -14.926815    7.126797   -0.223234
    142          1           0      -10.749380    1.379494   -0.679483
    143          1           0      -11.114635   -1.453647   -1.514139
    144          1           0       -9.933297    1.416205   -2.791766
    145          1           0      -11.618342    1.156847   -3.365684
    146          1           0      -10.608874   -0.176501   -3.123196
    147          1           0       -9.356358   -0.673518    0.120378
    148          1           0      -10.247011   -2.100649    0.615360
    149          1           0      -10.319112    0.687172    1.512584
    150          1           0      -10.290153   -0.794779    2.536212
    151          1           0      -11.822223   -0.211049    1.744792
    152          1           0      -14.796208   -5.599771    1.497939
    153          1           0      -13.396421   -4.898897    0.622974
    154          1           0      -14.810651   -5.508159   -0.326241
    155          1           0      -19.489139   -3.421746   -0.074858
    156          1           0      -22.635713   -4.234245    2.757416
    157          1           0      -22.706503   -2.363782    2.614836
    158          1           0      -21.683285   -3.270162    3.756648
 ---------------------------------------------------------------------

 SCF Done:  E(RCAM-B3LYP) =  -4069.81177613     A.U. after   19 cycles

 Excitation energies and oscillator strengths:

 Excited State   1:      Singlet-A      1.6753 eV  740.08 nm  f=0.2133  <S**2>=0.000
     310 -> 316        0.16864
     311 -> 313        0.66671
     312 -> 314       -0.16178
     310 <- 316        0.10167
 This state for optimization and/or second-order correction.
 Total Energy, E(TD-HF/TD-DFT) =  -4069.75021089
 Copying the excited state density for this state as the 1-particle RhoCI density.

 Excited State   2:      Singlet-A      1.6801 eV  737.95 nm  f=0.5641  <S**2>=0.000
     309 -> 315        0.17067
     311 -> 313        0.16173
     312 -> 314        0.66634
     309 <- 315        0.10218

 Excited State   3:      Singlet-A      2.1861 eV  567.15 nm  f=0.1030  <S**2>=0.000
     310 -> 313        0.64249
     311 -> 316       -0.27312

 Excited State   4:      Singlet-A      2.1925 eV  565.48 nm  f=0.0985  <S**2>=0.000
     309 -> 314        0.64071
     312 -> 315       -0.27831

 Excited State   5:      Singlet-A      3.0615 eV  404.97 nm  f=0.0000  <S**2>=0.000
     312 -> 313        0.70710

 The electronic state is 1-A.
 Alpha  occ. eigenvalues --  -46.87770 -46.87660 -19.26350 -19.26259 -19.19161
 Alpha  occ. eigenvalues --  -19.18995 -19.18788 -19.18714 -19.18144 -19.18051
 Alpha  occ. eigenvalues --  -14.42498 -14.42424 -14.41423 -14.41358 -14.39376
 Alpha  occ. eigenvalues --  -14.39352 -14.38599 -14.38560 -10.39091 -10.39054
 Alpha  occ. eigenvalues --  -10.35421 -10.35392 -10.34364 -10.34228 -10.31757
 Alpha  occ. eigenvalues --  -10.31655 -10.31379 -10.31309 -10.31024 -10.30883
 Alpha  occ. eigenvalues --  -10.30544 -10.30481 -10.30397 -10.30360 -10.30180
 Alpha  occ. eigenvalues --  -10.30139 -10.29894 -10.29893 -10.29604 -10.29436
 Alpha  occ. eigenvalues --  -10.29400 -10.29228 -10.28724 -10.28721 -10.28656
 Alpha  occ. eigenvalues --  -10.28513 -10.28405 -10.28339 -10.28142 -10.28091
 Alpha  occ. eigenvalues --  -10.28001 -10.27767 -10.27701 -10.27669 -10.27558
 Alpha  occ. eigenvalues --  -10.27512 -10.27484 -10.27474 -10.27468 -10.27465
 Alpha  occ. eigenvalues --  -10.27455 -10.27423 -10.27377 -10.27372 -10.27133
 Alpha  occ. eigenvalues --  -10.27051 -10.26694 -10.26679 -10.26416 -10.26382
 Alpha  occ. eigenvalues --  -10.26210 -10.26156 -10.26128 -10.26028 -10.25993
 Alpha  occ. eigenvalues --  -10.25932 -10.25848 -10.25818 -10.25410 -10.25394
 Alpha  occ. eigenvalues --  -10.24872 -10.24807 -10.24761 -10.24721 -10.24689
 Alpha  occ. eigenvalues --  -10.24658  -3.16513  -3.16410  -1.91395  -1.91292
 Alpha  occ. eigenvalues --   -1.90981  -1.90881  -1.90823  -1.90718  -1.16644
 Alpha  occ. eigenvalues --   -1.16608  -1.08658  -1.08602  -1.07189  -1.06967
 Alpha  occ. eigenvalues --   -1.06945  -1.06617  -1.04555  -1.04495  -1.03734
 Alpha  occ. eigenvalues --   -1.03663  -1.03207  -1.03038  -1.02385  -1.02111
 Alpha  occ. eigenvalues --   -0.91987  -0.91946  -0.89493  -0.89491  -0.89162
 Alpha  occ. eigenvalues --   -0.89152  -0.88260  -0.88217  -0.87844  -0.87793
 Alpha  occ. eigenvalues --   -0.87684  -0.87647  -0.87247  -0.87120  -0.85000
 Alpha  occ. eigenvalues --   -0.84956  -0.83910  -0.83872  -0.82940  -0.82931
 Alpha  occ. eigenvalues --   -0.82653  -0.82623  -0.81596  -0.81560  -0.80570
 Alpha  occ. eigenvalues --   -0.80443  -0.78771  -0.78635  -0.77192  -0.77144
 Alpha  occ. eigenvalues --   -0.76909  -0.76898  -0.75898  -0.75839  -0.74872
 Alpha  occ. eigenvalues --   -0.74801  -0.72748  -0.72698  -0.71646  -0.71580
 Alpha  occ. eigenvalues --   -0.69880  -0.69752  -0.68847  -0.68827  -0.67615
 Alpha  occ. eigenvalues --   -0.67601  -0.67201  -0.67194  -0.65272  -0.65261
 Alpha  occ. eigenvalues --   -0.64828  -0.64769  -0.64653  -0.64595  -0.64243
 Alpha  occ. eigenvalues --   -0.64201  -0.62278  -0.62272  -0.60415  -0.60339
 Alpha  occ. eigenvalues --   -0.59797  -0.59778  -0.58992  -0.58961  -0.58478
 Alpha  occ. eigenvalues --   -0.58425  -0.57559  -0.57554  -0.57282  -0.57235
 Alpha  occ. eigenvalues --   -0.56284  -0.56204  -0.55953  -0.55887  -0.55494
 Alpha  occ. eigenvalues --   -0.55452  -0.55313  -0.55245  -0.54497  -0.54485
 Alpha  occ. eigenvalues --   -0.53914  -0.53869  -0.53272  -0.53227  -0.53196
 Alpha  occ. eigenvalues --   -0.53142  -0.52902  -0.52889  -0.52730  -0.52669
 Alpha  occ. eigenvalues --   -0.52411  -0.52394  -0.51889  -0.51883  -0.51659
 Alpha  occ. eigenvalues --   -0.51591  -0.51200  -0.51170  -0.50545  -0.50476
 Alpha  occ. eigenvalues --   -0.50005  -0.49980  -0.49892  -0.49864  -0.49488
 Alpha  occ. eigenvalues --   -0.49488  -0.49203  -0.49189  -0.49105  -0.49071
 Alpha  occ. eigenvalues --   -0.48567  -0.48559  -0.48435  -0.48419  -0.48374
 Alpha  occ. eigenvalues --   -0.48339  -0.47669  -0.47594  -0.47271  -0.47118
 Alpha  occ. eigenvalues --   -0.46771  -0.46708  -0.46555  -0.46530  -0.46333
 Alpha  occ. eigenvalues --   -0.46269  -0.46136  -0.46084  -0.45822  -0.45796
 Alpha  occ. eigenvalues --   -0.45206  -0.45175  -0.44552  -0.44514  -0.44480
 Alpha  occ. eigenvalues --   -0.44476  -0.44127  -0.44118  -0.44076  -0.44062
 Alpha  occ. eigenvalues --   -0.43993  -0.43940  -0.43552  -0.43469  -0.43386
 Alpha  occ. eigenvalues --   -0.43360  -0.43001  -0.42930  -0.42900  -0.42673
 Alpha  occ. eigenvalues --   -0.42628  -0.42550  -0.41983  -0.41961  -0.41678
 Alpha  occ. eigenvalues --   -0.41669  -0.41508  -0.41458  -0.41115  -0.40989
 Alpha  occ. eigenvalues --   -0.40843  -0.40796  -0.40722  -0.40698  -0.40545
 Alpha  occ. eigenvalues --   -0.40490  -0.40228  -0.40208  -0.39419  -0.39413
 Alpha  occ. eigenvalues --   -0.38442  -0.38347  -0.37722  -0.37655  -0.37294
 Alpha  occ. eigenvalues --   -0.37264  -0.37238  -0.37200  -0.36771  -0.36688
 Alpha  occ. eigenvalues --   -0.36215  -0.36167  -0.34260  -0.34253  -0.33862
 Alpha  occ. eigenvalues --   -0.33745  -0.33175  -0.33160  -0.31318  -0.31273
 Alpha  occ. eigenvalues --   -0.31009  -0.30972  -0.30003  -0.29955  -0.29423
 Alpha  occ. eigenvalues --   -0.29327  -0.29296  -0.29211  -0.24054  -0.24036
 Alpha  occ. eigenvalues --   -0.21116  -0.21101
 Alpha virt. eigenvalues --   -0.08792  -0.08748  -0.01723  -0.01683  -0.00032
 Alpha virt. eigenvalues --   -0.00029   0.02208   0.02226   0.03148   0.03228
 Alpha virt. eigenvalues --    0.04729   0.04743   0.05123   0.05165   0.06181

 Mulliken charges:
               1
     1  Mg   0.838705
     2  C   -0.002957
     3  C   -0.094114
     4  C   -0.045871
     5  C   -0.063954
     6  N   -0.256778
     7  C   -0.052469
     8  C   -0.014035
     9  C   -0.086978
    10  C    0.046319
    11  C    0.104813
    12  C    0.053466
    13  C   -0.071800
    14  H    0.036131
    15  N   -0.433132
    16  C    0.168423
    17  C   -0.177146
    18  C   -0.003997
    19  C    0.148730
    20  C    0.110178
    21  C    0.012301
    22  O   -0.249615
    23  C    0.062468
    24  N   -0.341117
    25  C    0.041245
    26  C   -0.028194
    27  C   -0.023940
    28  C    0.074823
    29  C    0.076176
    30  C    0.035112
    31  C   -0.004498
    32  N   -0.310456
    33  C    0.080414
    34  C   -0.169718
    35  C    0.008349
    36  C    0.082985
    37  C    0.127312
    38  C    0.046116
    39  O   -0.188459
    40  C   -0.005337
    41  C    0.212873
    42  O   -0.257093
    43  O   -0.304804
    44  C    0.157697
    45  H   -0.017615
    46  H   -0.016832
    47  H   -0.041492
    48  H    0.000922
    49  H   -0.004031
    50  H    0.025463
    51  H    0.016442
    52  H    0.016641
    53  H    0.011225
    54  H    0.044130
    55  H    0.017850
    56  H    0.017955
    57  H    0.005866
    58  H    0.026812
    59  H    0.039584
    60  H    0.037326
    61  H    0.035670
    62  H    0.031535
    63  H    0.016576
    64  H    0.009444
    65  H    0.023216
    66  H    0.012531
    67  H    0.004739
    68  H    0.006370
    69  H    0.004728
    70  H    0.008796
    71  H    0.018168
    72  H    0.028980
    73  H    0.047570
    74  H    0.009118
    75  H    0.045988
    76  H    0.035132
    77  H    0.042928
    78  H    0.046400
    79  H    0.053692
    80  Mg   0.837857
    81  C   -0.016831
    82  C   -0.087812
    83  C   -0.045516
    84  C   -0.064858
    85  N   -0.254543
    86  C   -0.049847
    87  C   -0.015109
    88  C   -0.090499
    89  C    0.045751
    90  C    0.114385
    91  C    0.062530
    92  C   -0.077901
    93  H    0.034918
    94  N   -0.423489
    95  C    0.162925
    96  C   -0.174644
    97  C   -0.007803
    98  C    0.152117
    99  C    0.099377
   100  C    0.015564
   101  O   -0.253161
   102  C    0.061186
   103  N   -0.350091
   104  C    0.037530
   105  C   -0.019842
   106  C   -0.034858
   107  C    0.088934
   108  C    0.073663
   109  C    0.034721
   110  C   -0.007700
   111  N   -0.324115
   112  C    0.078444
   113  C   -0.163083
   114  C    0.002222
   115  C    0.096227
   116  C    0.131475
   117  C    0.042400
   118  O   -0.187852
   119  C    0.000923
   120  C    0.211262
   121  O   -0.251008
   122  O   -0.305640
   123  C    0.152024
   124  H   -0.019690
   125  H   -0.015554
   126  H   -0.040375
   127  H   -0.000663
   128  H   -0.004329
   129  H    0.022449
   130  H    0.014417
   131  H    0.016262
   132  H    0.013926
   133  H    0.037693
   134  H    0.020774
   135  H    0.019588
   136  H    0.008747
   137  H    0.026117
   138  H    0.039798
   139  H    0.038227
   140  H    0.036398
   141  H    0.033910
   142  H    0.014448
   143  H    0.012460
   144  H    0.025178
   145  H    0.011578
   146  H    0.005708
   147  H    0.006365
   148  H    0.003730
   149  H    0.010945
   150  H    0.018031
   151  H    0.030040
   152  H    0.046047
   153  H    0.008596
   154  H    0.046943
   155  H    0.035003
   156  H    0.043914
   157  H    0.049485
   158  H    0.053599
 Sum of Mulliken charges =  -0.00000

 Dipole moment (field-independent basis, Debye):
    X=              0.2707    Y=              6.5207    Z=             -4.9404  Tot=              8.1854
 Quadrupole moment (field-independent basis, Debye-Ang):
   XX=           -362.2477   YY=           -547.3814   ZZ=           -480.6593
   XY=            -28.0208   XZ=              6.0336   YZ=             -9.8454

 Normal termination of Gaussian 16 at Sun Sep 12 22:43:57 2021.
