 Gaussian 16, Revision A.03,
 Gaussian 16:  ES64L-G16RevA.03 25-Dec-2016

 -----------------------------------
 #p cam-b3lyp/Def2SVP td=(nstates=5)
 -----------------------------------

 --------------------------------
 TDDFT excited states in gaussian
 --------------------------------
 Symbolic Z-matrix:
 Charge =  0 Multiplicity = 1

                         Standard orientation:
 ---------------------------------------------------------------------
 Center     Atomic      Atomic             Coordinates (Angstroms)
 Number     Number       Type             X           Y           Z
 ---------------------------------------------------------------------
      1         12           0        6.883441    0.323218    0.320226
      2          6           0        6.977371   -2.918274   -1.195071
      3          6           0        7.831880    1.598463   -2.699257
      4          6           0        7.248328    3.133262    1.743999
      5          6           0        7.059408   -1.278592    3.410356
      6          7           0        7.317013   -0.639124   -1.625682
      7          6           0        7.257979   -1.883358   -2.089975
      8          6           0        7.448065   -1.976471   -3.633534
      9          6           0        8.254138   -0.621375   -3.870094
     10          6           0        7.745225    0.174665   -2.681292
     11          6           0        9.765679   -0.781513   -3.743200
     12          6           0        6.083731   -1.973077   -4.401852
     13          6           0        6.162034   -2.386683   -5.874317
     14          1           0        5.061876   -3.147229   -6.447529
     15          7           0        6.977675    2.143220   -0.442374
     16          6           0        7.370106    2.476965   -1.695331
     17          6           0        7.266127    3.949826   -1.776259
     18          6           0        6.963280    4.460334   -0.410331
     19          6           0        7.078373    3.252710    0.366700
     20          6           0        7.399862    4.714996   -3.057032
     21          6           0        6.634291    5.822561    0.113343
     22          8           0        6.634523    6.088889    1.363801
     23          6           0        6.395095    6.873038   -0.892801
     24          7           0        7.341321    0.872648    2.281375
     25          6           0        7.381013    2.158825    2.646282
     26          6           0        7.445631    2.301402    4.138072
     27          6           0        7.195900    0.840761    4.732978
     28          6           0        7.107499    0.055451    3.401158
     29          6           0        8.758435    2.863872    4.700375
     30          6           0        6.044481    0.686396    5.758075
     31          6           0        4.714879    0.914928    5.074680
     32          7           0        6.820779   -1.727935    1.027257
     33          6           0        6.934163   -2.166054    2.354611
     34          6           0        6.943542   -3.640172    2.323654
     35          6           0        6.851050   -3.959133    0.970305
     36          6           0        6.814347   -2.760173    0.202554
     37          6           0        7.087669   -4.496488    3.450767
     38          6           0        6.799516   -5.033937   -0.007447
     39          8           0        6.703716   -6.260413    0.056362
     40          6           0        7.002048   -4.403852   -1.455825
     41          6           0        5.940190   -4.977886   -2.353740
     42          8           0        4.735590   -4.704766   -2.175664
     43          8           0        6.521441   -5.559475   -3.414138
     44          6           0        5.522026   -6.123746   -4.360141
     45          1           0        8.352030    2.085204   -3.526583
     46          1           0        7.267256    4.081806    2.284687
     47          1           0        7.026736   -1.846950    4.341675
     48          1           0        8.042933   -2.826684   -3.967738
     49          1           0        7.967807   -0.135001   -4.802390
     50          1           0       10.032213   -1.775139   -3.383215
     51          1           0       10.079989   -0.020674   -3.028480
     52          1           0       10.261618   -0.533780   -4.682056
     53          1           0        5.738001   -0.945686   -4.515866
     54          1           0        5.351265   -2.598391   -3.890187
     55          1           0        7.115888   -2.862130   -6.104583
     56          1           0        6.155729   -1.482930   -6.483735
     57          1           0        7.784118    4.087461   -3.860207
     58          1           0        8.176946    5.463069   -2.901352
     59          1           0        6.468801    5.205709   -3.341038
     60          1           0        7.281333    6.980492   -1.518568
     61          1           0        6.086470    7.757474   -0.336588
     62          1           0        5.589938    6.551717   -1.554181
     63          1           0        6.668198    2.972557    4.500802
     64          1           0        8.071680    0.457350    5.257078
     65          1           0        8.626583    3.760346    5.306721
     66          1           0        9.429879    3.053162    3.863343
     67          1           0        9.342101    2.158357    5.291136
     68          1           0        6.133888    1.435230    6.544333
     69          1           0        6.021055   -0.293701    6.234637
     70          1           0        4.618434    2.000004    5.086484
     71          1           0        3.910219    0.445266    5.641383
     72          1           0        4.744762    0.601788    4.030871
     73          1           0        6.359807   -5.297251    3.320523
     74          1           0        6.920015   -3.956450    4.382354
     75          1           0        8.123742   -4.813361    3.332446
     76          1           0        8.005113   -4.679302   -1.780032
     77          1           0        5.764056   -7.178467   -4.491367
     78          1           0        5.538688   -5.486927   -5.244782
     79          1           0        4.496880   -6.191811   -3.994380
     80         12           0       -6.344793    0.823016    0.214405
     81          6           0       -8.839156   -1.756915    0.180143
     82          6           0       -8.260829    2.498658   -2.056197
     83          6           0       -3.963139    2.892743   -0.119328
     84          6           0       -4.139999   -1.518934    1.555984
     85          7           0       -8.279783    0.331946   -0.737912
     86          6           0       -9.164853   -0.647221   -0.627284
     87          6           0      -10.506622   -0.387599   -1.363361
     88          6           0       -9.981068    0.663635   -2.457699
     89          6           0       -8.784760    1.231278   -1.696574
     90          6           0       -9.469950    0.004881   -3.728182
     91          6           0      -11.588957    0.252820   -0.425044
     92          6           0      -13.011860    0.248680   -0.988127
     93          1           0      -14.125849    0.058626   -0.063261
     94          7           0       -6.337936    2.664681   -0.525068
     95          6           0       -7.203244    3.185314   -1.420316
     96          6           0       -6.756736    4.567289   -1.654671
     97          6           0       -5.461244    4.767531   -0.950171
     98          6           0       -5.187540    3.413632   -0.511824
     99          6           0       -7.576960    5.569833   -2.413333
    100          6           0       -4.603509    5.975042   -0.721288
    101          8           0       -3.401583    5.874788   -0.287509
    102          6           0       -5.179487    7.271212   -1.108185
    103          7           0       -4.286504    0.654663    0.454061
    104          6           0       -3.482831    1.721328    0.298294
    105          6           0       -2.084907    1.427176    0.787876
    106          6           0       -2.178359    0.014085    1.530839
    107          6           0       -3.660200   -0.320662    1.252494
    108          6           0       -1.002176    1.364920   -0.289245
    109          6           0       -1.670122   -0.044913    2.997429
    110          6           0       -2.576540    0.770795    3.890972
    111          7           0       -6.485936   -1.204484    0.947462
    112          6           0       -5.434993   -2.008050    1.441309
    113          6           0       -5.999701   -3.346413    1.710213
    114          6           0       -7.345425   -3.234328    1.329481
    115          6           0       -7.596537   -1.924893    0.837735
    116          6           0       -5.275973   -4.473016    2.193031
    117          6           0       -8.608099   -3.929141    1.221805
    118          8           0       -9.023605   -5.034477    1.567227
    119          6           0       -9.601123   -3.041271    0.354633
    120          6           0      -10.920065   -2.981081    1.075255
    121          8           0      -11.012667   -2.412816    2.177570
    122          8           0      -11.892781   -3.409914    0.250465
    123          6           0      -13.221548   -3.358376    0.916455
    124          1           0       -8.669235    2.998534   -2.934953
    125          1           0       -3.130591    3.600045   -0.111297
    126          1           0       -3.540623   -2.275505    2.066892
    127          1           0      -10.930475   -1.255180   -1.854699
    128          1           0      -10.717671    1.440711   -2.644598
    129          1           0       -9.434827   -1.070677   -3.638265
    130          1           0       -8.476726    0.403883   -3.887351
    131          1           0      -10.065793    0.328335   -4.586491
    132          1           0      -11.414437    1.334714   -0.363390
    133          1           0      -11.581002   -0.214715    0.540352
    134          1           0      -13.111337   -0.419647   -1.852058
    135          1           0      -13.228652    1.241145   -1.390673
    136          1           0       -8.402184    5.088771   -2.952772
    137          1           0       -6.935759    5.975300   -3.203470
    138          1           0       -7.925145    6.391772   -1.784171
    139          1           0       -5.430635    7.253465   -2.166038
    140          1           0       -4.454348    8.021065   -0.786048
    141          1           0       -6.119843    7.412656   -0.563799
    142          1           0       -1.758191    2.176735    1.498168
    143          1           0       -1.581044   -0.755254    1.019781
    144          1           0       -0.169255    2.071308   -0.112205
    145          1           0       -1.464160    1.554640   -1.248992
    146          1           0       -0.554767    0.383667   -0.438150
    147          1           0       -0.676051    0.402765    3.072055
    148          1           0       -1.599191   -1.053907    3.389726
    149          1           0       -2.198427    1.789385    3.762178
    150          1           0       -2.488770    0.445064    4.925492
    151          1           0       -3.609509    0.753836    3.524447
    152          1           0       -5.892989   -4.938256    2.950217
    153          1           0       -4.306891   -4.181542    2.592641
    154          1           0       -5.182135   -5.054008    1.271667
    155          1           0       -9.690996   -3.512158   -0.625042
    156          1           0      -13.650328   -4.363214    0.852198
    157          1           0      -13.775009   -2.541604    0.416123
    158          1           0      -13.239524   -3.188809    1.986678
 ---------------------------------------------------------------------

 SCF Done:  E(RCAM-B3LYP) =  -4069.81190676     A.U. after   19 cycles

 Excitation energies and oscillator strengths:

 Excited State   1:      Singlet-A      1.6645 eV  744.86 nm  f=0.0097  <S**2>=0.000
     309 -> 315       -0.10795
     310 -> 316        0.13292
     311 -> 313       -0.43149
     312 -> 314        0.53415
 This state for optimization and/or second-order correction.
 Total Energy, E(TD-HF/TD-DFT) =  -4069.75073638
 Copying the excited state density for this state as the 1-particle RhoCI density.

 Excited State   2:      Singlet-A      1.6898 eV  733.71 nm  f=0.7311  <S**2>=0.000
     309 -> 315        0.13871
     310 -> 316        0.11136
     311 -> 313        0.53295
     312 -> 314        0.43055

 Excited State   3:      Singlet-A      2.1851 eV  567.41 nm  f=0.0998  <S**2>=0.000
     310 -> 314        0.63872
     312 -> 316       -0.27087

 Excited State   4:      Singlet-A      2.1940 eV  565.10 nm  f=0.1012  <S**2>=0.000
     309 -> 313        0.63659
     311 -> 315       -0.27724

 Excited State   5:      Singlet-A      2.6445 eV  468.83 nm  f=0.0000  <S**2>=0.000
     312 -> 313        0.70682

 The electronic state is 1-A.
 Alpha  occ. eigenvalues --  -46.87840 -46.87536 -19.26328 -19.26261 -19.19074
 Alpha  occ. eigenvalues --  -19.19067 -19.18802 -19.18620 -19.18204 -19.17936
 Alpha  occ. eigenvalues --  -14.42489 -14.42378 -14.41490 -14.41225 -14.39438
 Alpha  occ. eigenvalues --  -14.39232 -14.38632 -14.38474 -10.39131 -10.38995
 Alpha  occ. eigenvalues --  -10.35432 -10.35300 -10.34426 -10.34113 -10.31716
 Alpha  occ. eigenvalues --  -10.31678 -10.31447 -10.31189 -10.30940 -10.30917
 Alpha  occ. eigenvalues --  -10.30611 -10.30545 -10.30269 -10.30239 -10.30234
 Alpha  occ. eigenvalues --  -10.30001 -10.29964 -10.29750 -10.29661 -10.29314
 Alpha  occ. eigenvalues --  -10.29284 -10.29279 -10.28783 -10.28626 -10.28584
 Alpha  occ. eigenvalues --  -10.28572 -10.28399 -10.28290 -10.28149 -10.28045
 Alpha  occ. eigenvalues --  -10.27878 -10.27824 -10.27762 -10.27609 -10.27552
 Alpha  occ. eigenvalues --  -10.27546 -10.27486 -10.27481 -10.27441 -10.27384
 Alpha  occ. eigenvalues --  -10.27364 -10.27350 -10.27323 -10.27202 -10.27197
 Alpha  occ. eigenvalues --  -10.26942 -10.26745 -10.26610 -10.26354 -10.26349
 Alpha  occ. eigenvalues --  -10.26261 -10.26252 -10.26060 -10.25945 -10.25938
 Alpha  occ. eigenvalues --  -10.25883 -10.25787 -10.25672 -10.25458 -10.25209
 Alpha  occ. eigenvalues --  -10.24867 -10.24822 -10.24796 -10.24749 -10.24573
 Alpha  occ. eigenvalues --  -10.24562  -3.16584  -3.16286  -1.91466  -1.91169
 Alpha  occ. eigenvalues --   -1.91052  -1.90894  -1.90757  -1.90594  -1.16678
 Alpha  occ. eigenvalues --   -1.16554  -1.08664  -1.08544  -1.07200  -1.06874
 Alpha  occ. eigenvalues --   -1.06852  -1.06694  -1.04618  -1.04378  -1.03799
 Alpha  occ. eigenvalues --   -1.03538  -1.03272  -1.02907  -1.02450  -1.01984
 Alpha  occ. eigenvalues --   -0.92010  -0.91868  -0.89567  -0.89346  -0.89223
 Alpha  occ. eigenvalues --   -0.89051  -0.88330  -0.88064  -0.87907  -0.87709
 Alpha  occ. eigenvalues --   -0.87654  -0.87561  -0.87282  -0.87019  -0.85014
 Alpha  occ. eigenvalues --   -0.84895  -0.83986  -0.83722  -0.82968  -0.82827
 Alpha  occ. eigenvalues --   -0.82672  -0.82549  -0.81623  -0.81485  -0.80627
 Alpha  occ. eigenvalues --   -0.80331  -0.78818  -0.78520  -0.77256  -0.77027
 Alpha  occ. eigenvalues --   -0.76973  -0.76779  -0.75958  -0.75732  -0.74936
 Alpha  occ. eigenvalues --   -0.74656  -0.72811  -0.72568  -0.71706  -0.71455
 Alpha  occ. eigenvalues --   -0.69966  -0.69594  -0.68902  -0.68721  -0.67670
 Alpha  occ. eigenvalues --   -0.67482  -0.67243  -0.67106  -0.65324  -0.65166
 Alpha  occ. eigenvalues --   -0.64893  -0.64659  -0.64645  -0.64538  -0.64314
 Alpha  occ. eigenvalues --   -0.64054  -0.62339  -0.62165  -0.60461  -0.60223
 Alpha  occ. eigenvalues --   -0.59838  -0.59689  -0.59025  -0.58865  -0.58540
 Alpha  occ. eigenvalues --   -0.58302  -0.57625  -0.57442  -0.57342  -0.57106
 Alpha  occ. eigenvalues --   -0.56338  -0.56083  -0.56016  -0.55785  -0.55536
 Alpha  occ. eigenvalues --   -0.55384  -0.55349  -0.55106  -0.54570  -0.54353
 Alpha  occ. eigenvalues --   -0.53929  -0.53814  -0.53326  -0.53240  -0.53107
 Alpha  occ. eigenvalues --   -0.53034  -0.52953  -0.52792  -0.52762  -0.52580
 Alpha  occ. eigenvalues --   -0.52499  -0.52239  -0.51954  -0.51732  -0.51640
 Alpha  occ. eigenvalues --   -0.51563  -0.51237  -0.51076  -0.50564  -0.50382
 Alpha  occ. eigenvalues --   -0.50072  -0.49930  -0.49875  -0.49724  -0.49533
 Alpha  occ. eigenvalues --   -0.49387  -0.49242  -0.49126  -0.49096  -0.48992
 Alpha  occ. eigenvalues --   -0.48629  -0.48495  -0.48451  -0.48448  -0.48240
 Alpha  occ. eigenvalues --   -0.48226  -0.47722  -0.47482  -0.47321  -0.46999
 Alpha  occ. eigenvalues --   -0.46838  -0.46587  -0.46578  -0.46450  -0.46396
 Alpha  occ. eigenvalues --   -0.46202  -0.46141  -0.45945  -0.45861  -0.45695
 Alpha  occ. eigenvalues --   -0.45240  -0.45065  -0.44614  -0.44527  -0.44407
 Alpha  occ. eigenvalues --   -0.44356  -0.44183  -0.44119  -0.44038  -0.44020
 Alpha  occ. eigenvalues --   -0.43950  -0.43838  -0.43533  -0.43439  -0.43421
 Alpha  occ. eigenvalues --   -0.43268  -0.43063  -0.42825  -0.42776  -0.42741
 Alpha  occ. eigenvalues --   -0.42708  -0.42411  -0.42060  -0.41832  -0.41740
 Alpha  occ. eigenvalues --   -0.41568  -0.41549  -0.41346  -0.41174  -0.40909
 Alpha  occ. eigenvalues --   -0.40870  -0.40820  -0.40628  -0.40615  -0.40588
 Alpha  occ. eigenvalues --   -0.40343  -0.40263  -0.40140  -0.39506  -0.39261
 Alpha  occ. eigenvalues --   -0.38512  -0.38202  -0.37784  -0.37555  -0.37362
 Alpha  occ. eigenvalues --   -0.37299  -0.37125  -0.37088  -0.36759  -0.36664
 Alpha  occ. eigenvalues --   -0.36236  -0.36084  -0.34326  -0.34128  -0.33822
 Alpha  occ. eigenvalues --   -0.33763  -0.33225  -0.33050  -0.31335  -0.31177
 Alpha  occ. eigenvalues --   -0.31069  -0.30851  -0.30065  -0.29840  -0.29475
 Alpha  occ. eigenvalues --   -0.29358  -0.29213  -0.29086  -0.24120  -0.23910
 Alpha  occ. eigenvalues --   -0.21164  -0.20992
 Alpha virt. eigenvalues --   -0.08805  -0.08671  -0.01784  -0.01557  -0.00072
 Alpha virt. eigenvalues --    0.00075   0.02165   0.02333   0.03008   0.03342
 Alpha virt. eigenvalues --    0.04680   0.04843   0.05050   0.05263   0.06141

 Mulliken charges:
               1
     1  Mg   0.837560
     2  C   -0.003163
     3  C   -0.093953
     4  C   -0.045870
     5  C   -0.064191
     6  N   -0.256816
     7  C   -0.052658
     8  C   -0.013918
     9  C   -0.087037
    10  C    0.046321
    11  C    0.104765
    12  C    0.053413
    13  C   -0.071852
    14  H    0.036089
    15  N   -0.433323
    16  C    0.168488
    17  C   -0.176845
    18  C   -0.003646
    19  C    0.148650
    20  C    0.110117
    21  C    0.012797
    22  O   -0.249228
    23  C    0.062217
    24  N   -0.341043
    25  C    0.041139
    26  C   -0.028301
    27  C   -0.023925
    28  C    0.074451
    29  C    0.076087
    30  C    0.035218
    31  C   -0.004687
    32  N   -0.310330
    33  C    0.079828
    34  C   -0.170175
    35  C    0.008335
    36  C    0.082383
    37  C    0.127404
    38  C    0.045797
    39  O   -0.188431
    40  C   -0.005207
    41  C    0.213071
    42  O   -0.257791
    43  O   -0.304658
    44  C    0.157650
    45  H   -0.017375
    46  H   -0.016482
    47  H   -0.041596
    48  H    0.001021
    49  H   -0.003898
    50  H    0.025547
    51  H    0.016521
    52  H    0.016805
    53  H    0.011218
    54  H    0.043718
    55  H    0.018001
    56  H    0.018093
    57  H    0.005824
    58  H    0.027017
    59  H    0.040288
    60  H    0.037049
    61  H    0.036447
    62  H    0.032412
    63  H    0.016719
    64  H    0.009677
    65  H    0.023529
    66  H    0.012678
    67  H    0.004857
    68  H    0.006837
    69  H    0.004766
    70  H    0.009320
    71  H    0.017144
    72  H    0.028119
    73  H    0.047292
    74  H    0.008954
    75  H    0.046216
    76  H    0.035329
    77  H    0.043185
    78  H    0.046480
    79  H    0.053535
    80  Mg   0.837704
    81  C   -0.017036
    82  C   -0.088108
    83  C   -0.045640
    84  C   -0.064152
    85  N   -0.254592
    86  C   -0.049805
    87  C   -0.015094
    88  C   -0.090468
    89  C    0.045722
    90  C    0.114473
    91  C    0.062582
    92  C   -0.077745
    93  H    0.034657
    94  N   -0.423383
    95  C    0.162809
    96  C   -0.175046
    97  C   -0.008082
    98  C    0.152050
    99  C    0.099557
   100  C    0.015229
   101  O   -0.253337
   102  C    0.061263
   103  N   -0.350051
   104  C    0.037544
   105  C   -0.020016
   106  C   -0.035477
   107  C    0.088776
   108  C    0.072885
   109  C    0.034627
   110  C   -0.007689
   111  N   -0.324201
   112  C    0.078385
   113  C   -0.162719
   114  C    0.002191
   115  C    0.096329
   116  C    0.131564
   117  C    0.042512
   118  O   -0.187846
   119  C    0.000885
   120  C    0.211212
   121  O   -0.251097
   122  O   -0.305633
   123  C    0.152095
   124  H   -0.020171
   125  H   -0.015729
   126  H   -0.039042
   127  H   -0.000778
   128  H   -0.004621
   129  H    0.022472
   130  H    0.014393
   131  H    0.015867
   132  H    0.013865
   133  H    0.037666
   134  H    0.020690
   135  H    0.019423
   136  H    0.008512
   137  H    0.025521
   138  H    0.039459
   139  H    0.037806
   140  H    0.036047
   141  H    0.033891
   142  H    0.014346
   143  H    0.015213
   144  H    0.024498
   145  H    0.010839
   146  H    0.008341
   147  H    0.006679
   148  H    0.004508
   149  H    0.010822
   150  H    0.017371
   151  H    0.029704
   152  H    0.045769
   153  H    0.009450
   154  H    0.047767
   155  H    0.034955
   156  H    0.043808
   157  H    0.049343
   158  H    0.053503
 Sum of Mulliken charges =  -0.00000

 Dipole moment (field-independent basis, Debye):
    X=              1.5064    Y=              5.5334    Z=             -6.3084  Tot=              8.5255
 Quadrupole moment (field-independent basis, Debye-Ang):
   XX=           -454.1382   YY=           -554.8425   ZZ=           -467.5523
   XY=            -25.4697   XZ=             21.4798   YZ=            -10.0048

 Normal termination of Gaussian 16 at Sat Sep 11 17:12:26 2021.
