 Gaussian 16, Revision A.03,
 Gaussian 16:  ES64L-G16RevA.03 25-Dec-2016

 -----------------------------------
 #p cam-b3lyp/Def2SVP td=(nstates=5)
 -----------------------------------

 --------------------------------
 TDDFT excited states in gaussian
 --------------------------------
 Symbolic Z-matrix:
 Charge =  0 Multiplicity = 1

                         Standard orientation:
 ---------------------------------------------------------------------
 Center     Atomic      Atomic             Coordinates (Angstroms)
 Number     Number       Type             X           Y           Z
 ---------------------------------------------------------------------
      1         12           0       15.948302   -0.644733    0.500908
      2          6           0       16.223237    2.122137   -1.753212
      3          6           0       16.742580    1.518386    3.017474
      4          6           0       16.157637   -3.146504    2.438418
      5          6           0       16.298908   -2.740053   -2.261766
      6          7           0       16.401293    1.522159    0.505910
      7          6           0       16.414584    2.479220   -0.416603
      8          6           0       16.575997    3.909630    0.179421
      9          6           0       17.284951    3.530154    1.556150
     10          6           0       16.750968    2.118473    1.723311
     11          6           0       18.806235    3.471955    1.462295
     12          6           0       15.197668    4.612686    0.419530
     13          6           0       15.270411    6.118512    0.688880
     14          1           0       14.210624    6.973637    0.176084
     15          7           0       15.904609   -0.744751    2.473454
     16          6           0       16.246033    0.237348    3.341899
     17          6           0       16.042821   -0.325536    4.694136
     18          6           0       15.737283   -1.775260    4.542343
     19          6           0       15.949496   -1.954800    3.128799
     20          6           0       16.096949    0.497358    5.944603
     21          6           0       15.330417   -2.833533    5.518381
     22          8           0       15.340838   -4.076185    5.217909
     23          6           0       14.999723   -2.378400    6.880929
     24          7           0       16.412305   -2.654532    0.179900
     25          6           0       16.374723   -3.539945    1.181706
     26          6           0       16.462956   -4.947254    0.670204
     27          6           0       16.323964   -4.850051   -0.917557
     28          6           0       16.258198   -3.308910   -1.054781
     29          6           0       17.747762   -5.708742    1.024350
     30          6           0       15.208438   -5.697710   -1.578991
     31          6           0       13.851714   -5.168859   -1.170683
     32          7           0       16.037583   -0.394949   -1.653316
     33          6           0       16.209314   -1.403363   -2.612630
     34          6           0       16.315750   -0.738237   -3.924250
     35          6           0       16.214493    0.620738   -3.633085
     36          6           0       16.081259    0.794982   -2.225896
     37          6           0       16.541424   -1.385567   -5.171034
     38          6           0       16.212591    1.967461   -4.180984
     39          8           0       16.199792    2.440984   -5.318131
     40          6           0       16.340575    2.999289   -2.974842
     41          6           0       15.299390    4.066229   -3.177036
     42          8           0       14.083595    3.797957   -3.091963
     43          8           0       15.894170    5.268796   -3.201772
     44          6           0       14.913556    6.374337   -3.370084
     45          1           0       17.210743    2.049461    3.848572
     46          1           0       16.125651   -4.044270    3.059249
     47          1           0       16.324757   -3.333808   -3.177321
     48          1           0       17.218352    4.573420   -0.399532
     49          1           0       16.946296    4.162980    2.376252
     50          1           0       19.146036    3.574635    0.431803
     51          1           0       19.085233    2.495873    1.859683
     52          1           0       19.263615    4.207130    2.124940
     53          1           0       14.782104    4.274302    1.368669
     54          1           0       14.519867    4.427972   -0.414612
     55          1           0       16.248332    6.523471    0.426987
     56          1           0       15.190607    6.277353    1.764334
     57          1           0       16.503994    1.489553    5.753794
     58          1           0       16.825982    0.026886    6.604055
     59          1           0       15.129298    0.549311    6.443887
     60          1           0       15.862724   -1.868244    7.309321
     61          1           0       14.645585   -3.259630    7.414661
     62          1           0       14.203118   -1.636202    6.821674
     63          1           0       15.650994   -5.557782    1.063140
     64          1           0       17.234701   -5.164403   -1.427866
     65          1           0       17.570283   -6.641901    1.559533
     66          1           0       18.386363   -5.041623    1.602653
     67          1           0       18.389950   -5.941434    0.175312
     68          1           0       15.265474   -6.731168   -1.238907
     69          1           0       15.260689   -5.703496   -2.667792
     70          1           0       13.683802   -5.647775   -0.206693
     71          1           0       13.092800   -5.469870   -1.893630
     72          1           0       13.879043   -4.092560   -0.999456
     73          1           0       15.865554   -0.915675   -5.885435
     74          1           0       16.359115   -2.457586   -5.099322
     75          1           0       17.593339   -1.150808   -5.332958
     76          1           0       17.352229    3.402066   -3.012899
     77          1           0       15.222023    6.946556   -4.245097
     78          1           0       14.868236    6.896544   -2.414233
     79          1           0       13.903584    6.082790   -3.660420
     80         12           0      -15.777700   -0.641715   -0.521591
     81          6           0      -17.035434    1.770149    1.819351
     82          6           0      -15.580491    1.891383   -2.797356
     83          6           0      -15.097878   -2.813910   -2.732221
     84          6           0      -17.129322   -3.121986    1.519746
     85          7           0      -16.272325    1.509921   -0.387225
     86          6           0      -16.684392    2.325789    0.571364
     87          6           0      -16.645996    3.831315    0.195213
     88          6           0      -16.733972    3.682586   -1.401360
     89          6           0      -16.126449    2.289305   -1.550887
     90          6           0      -18.160228    3.640373   -1.924168
     91          6           0      -15.308123    4.523306    0.634787
     92          6           0      -15.326327    6.052441    0.578511
     93          1           0      -14.585366    6.795199    1.594269
     94          7           0      -14.939244   -0.436573   -2.308631
     95          6           0      -14.934853    0.668408   -3.083396
     96          6           0      -14.205976    0.299131   -4.306727
     97          6           0      -13.923480   -1.161309   -4.261640
     98          6           0      -14.677262   -1.539339   -3.083085
     99          6           0      -13.777941    1.306313   -5.334246
    100          6           0      -13.119715   -2.069836   -5.141828
    101          8           0      -13.206050   -3.345395   -5.050556
    102          6           0      -12.299208   -1.423216   -6.176304
    103          7           0      -16.250798   -2.657398   -0.710181
    104          6           0      -15.785222   -3.383200   -1.741872
    105          6           0      -16.022774   -4.858236   -1.522293
    106          6           0      -16.530002   -4.991480   -0.011483
    107          6           0      -16.585507   -3.495806    0.369661
    108          6           0      -17.036224   -5.515496   -2.458944
    109          6           0      -15.742881   -5.960930    0.912250
    110          6           0      -14.351811   -5.423063    1.159244
    111          7           0      -16.720517   -0.714558    1.421037
    112          6           0      -17.235178   -1.854143    2.077198
    113          6           0      -17.881079   -1.385988    3.320616
    114          6           0      -17.716210    0.006979    3.289977
    115          6           0      -17.034682    0.382527    2.100875
    116          6           0      -18.553923   -2.207300    4.268689
    117          6           0      -17.973104    1.246108    3.988026
    118          8           0      -18.438794    1.543459    5.087323
    119          6           0      -17.655338    2.454703    3.005834
    120          6           0      -16.817180    3.454051    3.755034
    121          8           0      -15.668717    3.160287    4.130997
    122          8           0      -17.421754    4.655352    3.713659
    123          6           0      -16.622937    5.682455    4.433916
    124          1           0      -15.693103    2.560915   -3.650546
    125          1           0      -14.790677   -3.614739   -3.408812
    126          1           0      -17.487606   -3.842921    2.257687
    127          1           0      -17.483876    4.412496    0.561221
    128          1           0      -16.116094    4.423678   -1.901725
    129          1           0      -18.882217    3.598401   -1.122225
    130          1           0      -18.222831    2.750385   -2.536575
    131          1           0      -18.339842    4.483067   -2.597925
    132          1           0      -14.534669    4.316857   -0.116133
    133          1           0      -15.016992    4.201255    1.615683
    134          1           0      -16.343941    6.449134    0.478250
    135          1           0      -14.822674    6.372021   -0.337039
    136          1           0      -14.270620    2.274016   -5.178602
    137          1           0      -14.159821    0.959393   -6.300519
    138          1           0      -12.692406    1.406949   -5.398767
    139          1           0      -12.938746   -0.831484   -6.826928
    140          1           0      -11.730422   -2.229084   -6.644209
    141          1           0      -11.610996   -0.722936   -5.689912
    142          1           0      -15.103040   -5.419041   -1.634945
    143          1           0      -17.562403   -5.367421    0.040058
    144          1           0      -16.619708   -6.373344   -3.019912
    145          1           0      -17.410916   -4.762199   -3.139147
    146          1           0      -17.947861   -5.867527   -1.979162
    147          1           0      -15.618533   -6.931086    0.424935
    148          1           0      -16.229049   -6.139360    1.865566
    149          1           0      -13.798080   -5.756146    0.276337
    150          1           0      -13.933621   -5.846294    2.070308
    151          1           0      -14.347530   -4.326872    1.156869
    152          1           0      -18.242379   -1.870932    5.248634
    153          1           0      -18.323878   -3.259848    4.117058
    154          1           0      -19.593996   -1.975134    4.024496
    155          1           0      -18.608990    2.877273    2.687134
    156          1           0      -17.280006    6.127741    5.187355
    157          1           0      -16.225903    6.355399    3.650808
    158          1           0      -15.799935    5.337050    5.048581
 ---------------------------------------------------------------------

 SCF Done:  E(RCAM-B3LYP) =  -4069.81178809     A.U. after   19 cycles

 Excitation energies and oscillator strengths:

 Excited State   1:      Singlet-A      1.6754 eV  740.04 nm  f=0.2328  <S**2>=0.000
     310 -> 316        0.16891
     311 -> 313        0.66757
     312 -> 314        0.15818
     310 <- 316        0.10183
 This state for optimization and/or second-order correction.
 Total Energy, E(TD-HF/TD-DFT) =  -4069.75021907
 Copying the excited state density for this state as the 1-particle RhoCI density.

 Excited State   2:      Singlet-A      1.6801 eV  737.94 nm  f=0.5452  <S**2>=0.000
     309 -> 315        0.17090
     311 -> 313       -0.15813
     312 -> 314        0.66721
     309 <- 315        0.10232

 Excited State   3:      Singlet-A      2.1862 eV  567.12 nm  f=0.0956  <S**2>=0.000
     310 -> 313        0.64213
     311 -> 316       -0.27304

 Excited State   4:      Singlet-A      2.1926 eV  565.47 nm  f=0.1045  <S**2>=0.000
     309 -> 314        0.64036
     312 -> 315       -0.27819

 Excited State   5:      Singlet-A      3.0635 eV  404.71 nm  f=0.0000  <S**2>=0.000
     312 -> 313        0.70710

 The electronic state is 1-A.
 Alpha  occ. eigenvalues --  -46.87773 -46.87661 -19.26354 -19.26266 -19.19164
 Alpha  occ. eigenvalues --  -19.19001 -19.18788 -19.18708 -19.18149 -19.18054
 Alpha  occ. eigenvalues --  -14.42498 -14.42426 -14.41426 -14.41360 -14.39379
 Alpha  occ. eigenvalues --  -14.39351 -14.38600 -14.38563 -10.39094 -10.39060
 Alpha  occ. eigenvalues --  -10.35421 -10.35385 -10.34369 -10.34231 -10.31761
 Alpha  occ. eigenvalues --  -10.31663 -10.31382 -10.31310 -10.31023 -10.30885
 Alpha  occ. eigenvalues --  -10.30547 -10.30484 -10.30398 -10.30361 -10.30182
 Alpha  occ. eigenvalues --  -10.30140 -10.29897 -10.29896 -10.29607 -10.29436
 Alpha  occ. eigenvalues --  -10.29400 -10.29230 -10.28727 -10.28720 -10.28654
 Alpha  occ. eigenvalues --  -10.28517 -10.28405 -10.28341 -10.28141 -10.28094
 Alpha  occ. eigenvalues --  -10.28001 -10.27770 -10.27703 -10.27669 -10.27560
 Alpha  occ. eigenvalues --  -10.27519 -10.27484 -10.27477 -10.27465 -10.27459
 Alpha  occ. eigenvalues --  -10.27454 -10.27425 -10.27380 -10.27376 -10.27137
 Alpha  occ. eigenvalues --  -10.27053 -10.26692 -10.26682 -10.26403 -10.26380
 Alpha  occ. eigenvalues --  -10.26213 -10.26159 -10.26138 -10.26027 -10.25996
 Alpha  occ. eigenvalues --  -10.25935 -10.25855 -10.25823 -10.25412 -10.25399
 Alpha  occ. eigenvalues --  -10.24873 -10.24810 -10.24764 -10.24730 -10.24690
 Alpha  occ. eigenvalues --  -10.24660  -3.16515  -3.16411  -1.91397  -1.91293
 Alpha  occ. eigenvalues --   -1.90984  -1.90881  -1.90826  -1.90718  -1.16648
 Alpha  occ. eigenvalues --   -1.16615  -1.08661  -1.08607  -1.07189  -1.06960
 Alpha  occ. eigenvalues --   -1.06949  -1.06624  -1.04557  -1.04495  -1.03737
 Alpha  occ. eigenvalues --   -1.03663  -1.03210  -1.03039  -1.02387  -1.02112
 Alpha  occ. eigenvalues --   -0.91988  -0.91949  -0.89495  -0.89495  -0.89165
 Alpha  occ. eigenvalues --   -0.89152  -0.88263  -0.88221  -0.87848  -0.87796
 Alpha  occ. eigenvalues --   -0.87684  -0.87649  -0.87248  -0.87116  -0.85000
 Alpha  occ. eigenvalues --   -0.84959  -0.83912  -0.83877  -0.82940  -0.82927
 Alpha  occ. eigenvalues --   -0.82652  -0.82625  -0.81599  -0.81565  -0.80574
 Alpha  occ. eigenvalues --   -0.80443  -0.78773  -0.78634  -0.77195  -0.77145
 Alpha  occ. eigenvalues --   -0.76912  -0.76900  -0.75901  -0.75840  -0.74875
 Alpha  occ. eigenvalues --   -0.74804  -0.72751  -0.72700  -0.71649  -0.71582
 Alpha  occ. eigenvalues --   -0.69882  -0.69758  -0.68850  -0.68827  -0.67618
 Alpha  occ. eigenvalues --   -0.67602  -0.67198  -0.67196  -0.65272  -0.65264
 Alpha  occ. eigenvalues --   -0.64831  -0.64771  -0.64655  -0.64598  -0.64245
 Alpha  occ. eigenvalues --   -0.64204  -0.62281  -0.62277  -0.60417  -0.60337
 Alpha  occ. eigenvalues --   -0.59797  -0.59781  -0.58994  -0.58964  -0.58481
 Alpha  occ. eigenvalues --   -0.58426  -0.57563  -0.57557  -0.57285  -0.57236
 Alpha  occ. eigenvalues --   -0.56287  -0.56204  -0.55958  -0.55888  -0.55496
 Alpha  occ. eigenvalues --   -0.55451  -0.55317  -0.55249  -0.54502  -0.54490
 Alpha  occ. eigenvalues --   -0.53913  -0.53872  -0.53275  -0.53227  -0.53198
 Alpha  occ. eigenvalues --   -0.53141  -0.52903  -0.52892  -0.52731  -0.52663
 Alpha  occ. eigenvalues --   -0.52413  -0.52401  -0.51893  -0.51888  -0.51657
 Alpha  occ. eigenvalues --   -0.51593  -0.51203  -0.51173  -0.50545  -0.50469
 Alpha  occ. eigenvalues --   -0.50007  -0.49978  -0.49893  -0.49867  -0.49491
 Alpha  occ. eigenvalues --   -0.49485  -0.49202  -0.49192  -0.49106  -0.49074
 Alpha  occ. eigenvalues --   -0.48571  -0.48560  -0.48437  -0.48421  -0.48377
 Alpha  occ. eigenvalues --   -0.48335  -0.47671  -0.47594  -0.47273  -0.47117
 Alpha  occ. eigenvalues --   -0.46774  -0.46710  -0.46554  -0.46532  -0.46336
 Alpha  occ. eigenvalues --   -0.46271  -0.46140  -0.46087  -0.45825  -0.45801
 Alpha  occ. eigenvalues --   -0.45209  -0.45177  -0.44556  -0.44515  -0.44482
 Alpha  occ. eigenvalues --   -0.44476  -0.44128  -0.44120  -0.44077  -0.44065
 Alpha  occ. eigenvalues --   -0.43996  -0.43937  -0.43556  -0.43474  -0.43387
 Alpha  occ. eigenvalues --   -0.43362  -0.43004  -0.42932  -0.42903  -0.42678
 Alpha  occ. eigenvalues --   -0.42632  -0.42553  -0.41986  -0.41965  -0.41681
 Alpha  occ. eigenvalues --   -0.41670  -0.41511  -0.41459  -0.41118  -0.40990
 Alpha  occ. eigenvalues --   -0.40846  -0.40797  -0.40720  -0.40696  -0.40548
 Alpha  occ. eigenvalues --   -0.40494  -0.40226  -0.40211  -0.39426  -0.39416
 Alpha  occ. eigenvalues --   -0.38445  -0.38351  -0.37725  -0.37654  -0.37296
 Alpha  occ. eigenvalues --   -0.37266  -0.37241  -0.37200  -0.36774  -0.36693
 Alpha  occ. eigenvalues --   -0.36218  -0.36170  -0.34263  -0.34254  -0.33865
 Alpha  occ. eigenvalues --   -0.33750  -0.33176  -0.33163  -0.31318  -0.31268
 Alpha  occ. eigenvalues --   -0.31012  -0.30973  -0.30008  -0.29958  -0.29425
 Alpha  occ. eigenvalues --   -0.29326  -0.29299  -0.29212  -0.24057  -0.24037
 Alpha  occ. eigenvalues --   -0.21117  -0.21104
 Alpha virt. eigenvalues --   -0.08792  -0.08750  -0.01726  -0.01683  -0.00033
 Alpha virt. eigenvalues --   -0.00026   0.02206   0.02223   0.03147   0.03228
 Alpha virt. eigenvalues --    0.04729   0.04741   0.05117   0.05162   0.06181

 Mulliken charges:
               1
     1  Mg   0.838747
     2  C   -0.002962
     3  C   -0.094115
     4  C   -0.045852
     5  C   -0.063949
     6  N   -0.256779
     7  C   -0.052478
     8  C   -0.014049
     9  C   -0.087007
    10  C    0.046335
    11  C    0.104821
    12  C    0.053480
    13  C   -0.071806
    14  H    0.036104
    15  N   -0.433147
    16  C    0.168444
    17  C   -0.177136
    18  C   -0.003967
    19  C    0.148725
    20  C    0.110176
    21  C    0.012318
    22  O   -0.249591
    23  C    0.062459
    24  N   -0.341127
    25  C    0.041243
    26  C   -0.028179
    27  C   -0.023965
    28  C    0.074821
    29  C    0.076178
    30  C    0.035129
    31  C   -0.004511
    32  N   -0.310448
    33  C    0.080390
    34  C   -0.169738
    35  C    0.008333
    36  C    0.082996
    37  C    0.127318
    38  C    0.046087
    39  O   -0.188528
    40  C   -0.005323
    41  C    0.212856
    42  O   -0.257095
    43  O   -0.304799
    44  C    0.157708
    45  H   -0.017596
    46  H   -0.016813
    47  H   -0.041519
    48  H    0.000905
    49  H   -0.004013
    50  H    0.025448
    51  H    0.016449
    52  H    0.016651
    53  H    0.011250
    54  H    0.044116
    55  H    0.017840
    56  H    0.017983
    57  H    0.005874
    58  H    0.026835
    59  H    0.039632
    60  H    0.037335
    61  H    0.035713
    62  H    0.031563
    63  H    0.016592
    64  H    0.009428
    65  H    0.023230
    66  H    0.012535
    67  H    0.004727
    68  H    0.006371
    69  H    0.004698
    70  H    0.008822
    71  H    0.018156
    72  H    0.028989
    73  H    0.047524
    74  H    0.009104
    75  H    0.045967
    76  H    0.035118
    77  H    0.042886
    78  H    0.046416
    79  H    0.053666
    80  Mg   0.837867
    81  C   -0.016832
    82  C   -0.087762
    83  C   -0.045481
    84  C   -0.064867
    85  N   -0.254550
    86  C   -0.049868
    87  C   -0.015108
    88  C   -0.090512
    89  C    0.045760
    90  C    0.114374
    91  C    0.062525
    92  C   -0.077913
    93  H    0.034896
    94  N   -0.423482
    95  C    0.162939
    96  C   -0.174584
    97  C   -0.007750
    98  C    0.152116
    99  C    0.099346
   100  C    0.015617
   101  O   -0.253139
   102  C    0.061168
   103  N   -0.350057
   104  C    0.037523
   105  C   -0.019857
   106  C   -0.034783
   107  C    0.088862
   108  C    0.073668
   109  C    0.034728
   110  C   -0.007685
   111  N   -0.324116
   112  C    0.078416
   113  C   -0.163155
   114  C    0.002207
   115  C    0.096204
   116  C    0.131489
   117  C    0.042357
   118  O   -0.187945
   119  C    0.000943
   120  C    0.211224
   121  O   -0.251005
   122  O   -0.305627
   123  C    0.152032
   124  H   -0.019622
   125  H   -0.015527
   126  H   -0.040490
   127  H   -0.000677
   128  H   -0.004281
   129  H    0.022432
   130  H    0.014424
   131  H    0.016302
   132  H    0.013968
   133  H    0.037675
   134  H    0.020762
   135  H    0.019642
   136  H    0.008779
   137  H    0.026191
   138  H    0.039931
   139  H    0.038264
   140  H    0.036514
   141  H    0.033983
   142  H    0.014453
   143  H    0.012384
   144  H    0.025179
   145  H    0.011629
   146  H    0.005645
   147  H    0.006273
   148  H    0.003619
   149  H    0.010983
   150  H    0.017939
   151  H    0.030108
   152  H    0.045976
   153  H    0.008503
   154  H    0.046897
   155  H    0.034994
   156  H    0.043875
   157  H    0.049514
   158  H    0.053575
 Sum of Mulliken charges =  -0.00000

 Dipole moment (field-independent basis, Debye):
    X=              1.7128    Y=              3.1600    Z=             -0.0063  Tot=              3.5943
 Quadrupole moment (field-independent basis, Debye-Ang):
   XX=           -451.5894   YY=           -460.8280   ZZ=           -536.0729
   XY=              1.2264   XZ=            131.8705   YZ=              8.1243

 Normal termination of Gaussian 16 at Sun Sep 12 11:51:04 2021.
