 Gaussian 16, Revision A.03,
 Gaussian 16:  ES64L-G16RevA.03 25-Dec-2016

 -----------------------------------
 #p cam-b3lyp/Def2SVP td=(nstates=5)
 -----------------------------------

 --------------------------------
 TDDFT excited states in gaussian
 --------------------------------
 Symbolic Z-matrix:
 Charge =  0 Multiplicity = 1

                         Standard orientation:
 ---------------------------------------------------------------------
 Center     Atomic      Atomic             Coordinates (Angstroms)
 Number     Number       Type             X           Y           Z
 ---------------------------------------------------------------------
      1         12           0       -5.043246   -1.296552    0.199657
      2          6           0       -6.139313    2.097773   -0.099364
      3          6           0       -5.902174   -1.706198   -3.077156
      4          6           0       -4.510717   -4.401781    0.561023
      5          6           0       -5.343023   -0.934091    3.652832
      6          7           0       -5.900512    0.094780   -1.293641
      7          6           0       -6.218821    1.385450   -1.298080
      8          6           0       -6.573132    1.929531   -2.714347
      9          6           0       -7.008848    0.561577   -3.407782
     10          6           0       -6.195710   -0.406764   -2.566921
     11          6           0       -8.489342    0.236632   -3.237339
     12          6           0       -5.336687    2.567516   -3.432616
     13          6           0       -5.662155    3.407823   -4.670884
     14          1           0       -4.863549    4.593548   -4.942233
     15          7           0       -4.722706   -2.706629   -1.146369
     16          6           0       -5.129975   -2.700475   -2.438414
     17          6           0       -4.646527   -3.969261   -3.024195
     18          6           0       -4.090060   -4.797876   -1.918829
     19          6           0       -4.447291   -4.002644   -0.771933
     20          6           0       -4.693625   -4.268946   -4.491070
     21          6           0       -3.362495   -6.104922   -1.898511
     22          8           0       -3.172679   -6.760975   -0.817707
     23          6           0       -2.949822   -6.647443   -3.205575
     24          7           0       -5.149441   -2.573164    1.847874
     25          6           0       -4.810909   -3.863014    1.744603
     26          6           0       -4.692730   -4.506270    3.094490
     27          6           0       -4.784593   -3.319759    4.159151
     28          6           0       -5.035508   -2.144806    3.182013
     29          6           0       -5.749010   -5.570199    3.423641
     30          6           0       -3.623278   -3.197133    5.177351
     31          6           0       -2.352220   -2.799782    4.460677
     32          7           0       -5.460804    0.331074    1.573529
     33          6           0       -5.559412    0.251240    2.970159
     34          6           0       -5.963114    1.585121    3.451671
     35          6           0       -6.088224    2.348837    2.292822
     36          6           0       -5.807609    1.536177    1.157423
     37          6           0       -6.221449    1.939523    4.805221
     38          6           0       -6.417671    3.655931    1.748006
     39          8           0       -6.645625    4.765157    2.232925
     40          6           0       -6.582653    3.514164    0.170504
     41          6           0       -5.802189    4.629398   -0.470151
     42          8           0       -4.557036    4.664486   -0.394461
     43          8           0       -6.615483    5.341622   -1.265029
     44          6           0       -5.896914    6.446455   -1.954345
     45          1           0       -6.350711   -2.015477   -4.023254
     46          1           0       -4.225229   -5.440543    0.739651
     47          1           0       -5.373901   -0.723643    4.723444
     48          1           0       -7.401618    2.637775   -2.734981
     49          1           0       -6.693828    0.515279   -4.450059
     50          1           0       -8.974758    0.935447   -2.556200
     51          1           0       -8.520502   -0.774604   -2.831231
     52          1           0       -8.988808    0.186354   -4.205214
     53          1           0       -4.742865    1.778778   -3.894492
     54          1           0       -4.751404    3.166520   -2.734072
     55          1           0       -6.725511    3.642935   -4.724781
     56          1           0       -5.474054    2.799447   -5.555585
     57          1           0       -5.305619   -3.545417   -5.028205
     58          1           0       -5.225440   -5.213204   -4.606218
     59          1           0       -3.697126   -4.352984   -4.924959
     60          1           0       -3.831127   -6.785964   -3.832204
     61          1           0       -2.365665   -7.541218   -2.989298
     62          1           0       -2.325897   -5.910806   -3.712557
     63          1           0       -3.733972   -5.011375    3.204393
     64          1           0       -5.676646   -3.396595    4.781254
     65          1           0       -5.326453   -6.541406    3.682303
     66          1           0       -6.422662   -5.651354    2.571057
     67          1           0       -6.440078   -5.296971    4.220628
     68          1           0       -3.435054   -4.157890    5.655330
     69          1           0       -3.815819   -2.467440    5.963943
     70          1           0       -1.970211   -3.752695    4.096180
     71          1           0       -1.651067   -2.338758    5.157134
     72          1           0       -2.563658   -2.178926    3.589862
     73          1           0       -5.748429    2.908818    4.962347
     74          1           0       -5.828250    1.190799    5.492542
     75          1           0       -7.310861    1.971482    4.801193
     76          1           0       -7.649028    3.586732   -0.040922
     77          1           0       -6.421908    7.370719   -1.712783
     78          1           0       -5.828032    6.163393   -3.004839
     79          1           0       -4.896684    6.675335   -1.584897
     80         12           0        5.207101    1.360737    0.015825
     81          6           0        5.877507   -2.092754   -0.693392
     82          6           0        4.603209    0.426684    3.240333
     83          6           0        4.175874    4.309375    0.572187
     84          6           0        4.745434    1.830135   -3.406499
     85          7           0        5.266003   -0.608288    1.021675
     86          6           0        5.593771   -1.841085    0.665135
     87          6           0        5.697152   -2.845590    1.844050
     88          6           0        4.735908   -2.092281    2.886828
     89          6           0        4.900046   -0.660752    2.380405
     90          6           0        3.273944   -2.483220    2.748388
     91          6           0        7.160199   -2.969225    2.397433
     92          6           0        7.394040   -4.153405    3.338064
     93          1           0        8.686841   -4.831164    3.295770
     94          7           0        4.968936    2.336416    1.727514
     95          6           0        4.756076    1.799673    2.947301
     96          6           0        4.627285    2.937622    3.870681
     97          6           0        4.617120    4.192271    3.070395
     98          6           0        4.564839    3.648365    1.728176
     99          6           0        4.608267    2.776448    5.363025
    100          6           0        4.636623    5.641844    3.450585
    101          8           0        4.382063    6.564925    2.598557
    102          6           0        4.870546    5.944161    4.870230
    103          7           0        4.348500    2.808033   -1.205036
    104          6           0        4.041691    4.025345   -0.723443
    105          6           0        3.695693    4.982135   -1.839344
    106          6           0        4.070068    4.216981   -3.192852
    107          6           0        4.503272    2.856847   -2.603141
    108          6           0        2.237281    5.435959   -1.898265
    109          6           0        5.038508    4.942541   -4.166690
    110          6           0        6.413162    5.045509   -3.546124
    111          7           0        5.467638    0.168078   -1.766800
    112          6           0        5.190832    0.551266   -3.097456
    113          6           0        5.416713   -0.635214   -3.948144
    114          6           0        5.789989   -1.640566   -3.043463
    115          6           0        5.776738   -1.122943   -1.720058
    116          6           0        5.225596   -0.697028   -5.357315
    117          6           0        6.181915   -3.024826   -2.905996
    118          8           0        6.446905   -3.934666   -3.690660
    119          6           0        6.133525   -3.413140   -1.365456
    120          6           0        7.409159   -4.135292   -1.028178
    121          8           0        8.502233   -3.544265   -1.078146
    122          8           0        7.109338   -5.333978   -0.495606
    123          6           0        8.342097   -6.083454   -0.134459
    124          1           0        4.172368    0.211866    4.218652
    125          1           0        3.916893    5.363425    0.696198
    126          1           0        4.717714    1.920971   -4.494450
    127          1           0        5.312299   -3.835915    1.632095
    128          1           0        5.108871   -2.182085    3.903780
    129          1           0        3.105857   -3.116842    1.890243
    130          1           0        2.729436   -1.553784    2.644876
    131          1           0        2.916521   -2.940255    3.675588
    132          1           0        7.352757   -2.139002    3.089079
    133          1           0        7.870113   -3.000347    1.593887
    134          1           0        6.576123   -4.882775    3.293761
    135          1           0        7.372069   -3.788280    4.367724
    136          1           0        4.464102    1.728234    5.652605
    137          1           0        3.709530    3.285187    5.728165
    138          1           0        5.483871    3.216172    5.845359
    139          1           0        4.101835    5.466066    5.472695
    140          1           0        4.938255    7.032149    4.930019
    141          1           0        5.826501    5.500136    5.169577
    142          1           0        4.288293    5.886171   -1.771280
    143          1           0        3.180856    4.022828   -3.810477
    144          1           0        2.120125    6.535237   -1.854292
    145          1           0        1.699742    4.963495   -1.086869
    146          1           0        1.682844    5.096260   -2.771423
    147          1           0        4.700510    5.966492   -4.343970
    148          1           0        5.121002    4.458581   -5.134148
    149          1           0        6.330806    5.931555   -2.909545
    150          1           0        7.171323    5.180862   -4.314833
    151          1           0        6.615538    4.188367   -2.893438
    152          1           0        6.071988   -1.235118   -5.762989
    153          1           0        5.140623    0.297184   -5.791001
    154          1           0        4.281491   -1.246501   -5.402170
    155          1           0        5.254975   -4.041315   -1.213392
    156          1           0        8.290145   -7.049450   -0.646152
    157          1           0        8.368519   -6.099950    0.971340
    158          1           0        9.287137   -5.700348   -0.501316
 ---------------------------------------------------------------------

 SCF Done:  E(RCAM-B3LYP) =  -4069.81170757     A.U. after   19 cycles

 Excitation energies and oscillator strengths:

 Excited State   1:      Singlet-A      1.6579 eV  747.86 nm  f=0.0160  <S**2>=0.000
     309 -> 315        0.11113
     310 -> 316        0.12813
     311 -> 313        0.44985
     312 -> 314        0.51940
 This state for optimization and/or second-order correction.
 Total Energy, E(TD-HF/TD-DFT) =  -4069.75078246
 Copying the excited state density for this state as the 1-particle RhoCI density.

 Excited State   2:      Singlet-A      1.6964 eV  730.88 nm  f=0.7042  <S**2>=0.000
     309 -> 315        0.13592
     310 -> 316       -0.11730
     311 -> 313        0.51751
     312 -> 314       -0.44824

 Excited State   3:      Singlet-A      2.1836 eV  567.80 nm  f=0.0254  <S**2>=0.000
     309 -> 313        0.27236
     310 -> 314        0.58368
     311 -> 315       -0.11378
     312 -> 316       -0.24514

 Excited State   4:      Singlet-A      2.1955 eV  564.71 nm  f=0.1563  <S**2>=0.000
     309 -> 313        0.57976
     310 -> 314       -0.26934
     311 -> 315       -0.25454
     312 -> 316        0.11924

 Excited State   5:      Singlet-A      2.4875 eV  498.43 nm  f=0.0000  <S**2>=0.000
     312 -> 313        0.70710

 The electronic state is 1-A.
 Alpha  occ. eigenvalues --  -46.87879 -46.87493 -19.26334 -19.26239 -19.19071
 Alpha  occ. eigenvalues --  -19.19047 -19.18856 -19.18520 -19.18230 -19.17923
 Alpha  occ. eigenvalues --  -14.42529 -14.42332 -14.41542 -14.41186 -14.39479
 Alpha  occ. eigenvalues --  -14.39182 -14.38668 -14.38442 -10.39133 -10.38974
 Alpha  occ. eigenvalues --  -10.35485 -10.35195 -10.34451 -10.34102 -10.31723
 Alpha  occ. eigenvalues --  -10.31660 -10.31484 -10.31162 -10.30977 -10.30852
 Alpha  occ. eigenvalues --  -10.30650 -10.30591 -10.30302 -10.30235 -10.30216
 Alpha  occ. eigenvalues --  -10.30022 -10.29958 -10.29719 -10.29704 -10.29329
 Alpha  occ. eigenvalues --  -10.29263 -10.29249 -10.28817 -10.28612 -10.28569
 Alpha  occ. eigenvalues --  -10.28542 -10.28434 -10.28240 -10.28183 -10.27989
 Alpha  occ. eigenvalues --  -10.27864 -10.27847 -10.27804 -10.27650 -10.27649
 Alpha  occ. eigenvalues --  -10.27585 -10.27509 -10.27508 -10.27480 -10.27335
 Alpha  occ. eigenvalues --  -10.27320 -10.27306 -10.27303 -10.27220 -10.27151
 Alpha  occ. eigenvalues --  -10.26915 -10.26778 -10.26564 -10.26401 -10.26393
 Alpha  occ. eigenvalues --  -10.26293 -10.26217 -10.26117 -10.25999 -10.25938
 Alpha  occ. eigenvalues --  -10.25854 -10.25782 -10.25774 -10.25554 -10.25063
 Alpha  occ. eigenvalues --  -10.24967 -10.24904 -10.24875 -10.24723 -10.24602
 Alpha  occ. eigenvalues --  -10.24505  -3.16622  -3.16243  -1.91504  -1.91125
 Alpha  occ. eigenvalues --   -1.91090  -1.90932  -1.90714  -1.90551  -1.16683
 Alpha  occ. eigenvalues --   -1.16532  -1.08687  -1.08537  -1.07256  -1.06832
 Alpha  occ. eigenvalues --   -1.06767  -1.06694  -1.04658  -1.04333  -1.03849
 Alpha  occ. eigenvalues --   -1.03495  -1.03315  -1.02869  -1.02494  -1.01945
 Alpha  occ. eigenvalues --   -0.92046  -0.91834  -0.89648  -0.89330  -0.89259
 Alpha  occ. eigenvalues --   -0.89000  -0.88412  -0.88034  -0.87951  -0.87754
 Alpha  occ. eigenvalues --   -0.87666  -0.87522  -0.87323  -0.86950  -0.85056
 Alpha  occ. eigenvalues --   -0.84846  -0.84079  -0.83692  -0.83024  -0.82747
 Alpha  occ. eigenvalues --   -0.82713  -0.82493  -0.81656  -0.81463  -0.80666
 Alpha  occ. eigenvalues --   -0.80293  -0.78859  -0.78479  -0.77315  -0.77019
 Alpha  occ. eigenvalues --   -0.76993  -0.76742  -0.75994  -0.75693  -0.75007
 Alpha  occ. eigenvalues --   -0.74597  -0.72861  -0.72546  -0.71755  -0.71401
 Alpha  occ. eigenvalues --   -0.70074  -0.69588  -0.68944  -0.68675  -0.67714
 Alpha  occ. eigenvalues --   -0.67440  -0.67282  -0.67048  -0.65364  -0.65124
 Alpha  occ. eigenvalues --   -0.64938  -0.64710  -0.64616  -0.64503  -0.64386
 Alpha  occ. eigenvalues --   -0.64033  -0.62370  -0.62142  -0.60511  -0.60163
 Alpha  occ. eigenvalues --   -0.59875  -0.59645  -0.59074  -0.58829  -0.58586
 Alpha  occ. eigenvalues --   -0.58268  -0.57652  -0.57424  -0.57397  -0.57068
 Alpha  occ. eigenvalues --   -0.56380  -0.56060  -0.56040  -0.55752  -0.55583
 Alpha  occ. eigenvalues --   -0.55451  -0.55299  -0.55083  -0.54624  -0.54329
 Alpha  occ. eigenvalues --   -0.53965  -0.53762  -0.53379  -0.53277  -0.53070
 Alpha  occ. eigenvalues --   -0.52997  -0.52988  -0.52805  -0.52756  -0.52606
 Alpha  occ. eigenvalues --   -0.52495  -0.52252  -0.52000  -0.51782  -0.51675
 Alpha  occ. eigenvalues --   -0.51508  -0.51287  -0.51060  -0.50609  -0.50296
 Alpha  occ. eigenvalues --   -0.50159  -0.49972  -0.49813  -0.49672  -0.49573
 Alpha  occ. eigenvalues --   -0.49325  -0.49279  -0.49164  -0.49054  -0.48958
 Alpha  occ. eigenvalues --   -0.48669  -0.48557  -0.48494  -0.48416  -0.48194
 Alpha  occ. eigenvalues --   -0.48156  -0.47771  -0.47434  -0.47367  -0.46942
 Alpha  occ. eigenvalues --   -0.46897  -0.46623  -0.46553  -0.46446  -0.46400
 Alpha  occ. eigenvalues --   -0.46253  -0.46111  -0.45922  -0.45899  -0.45690
 Alpha  occ. eigenvalues --   -0.45316  -0.44988  -0.44658  -0.44580  -0.44372
 Alpha  occ. eigenvalues --   -0.44323  -0.44251  -0.44157  -0.44076  -0.43975
 Alpha  occ. eigenvalues --   -0.43915  -0.43781  -0.43570  -0.43472  -0.43418
 Alpha  occ. eigenvalues --   -0.43223  -0.43114  -0.42825  -0.42799  -0.42747
 Alpha  occ. eigenvalues --   -0.42740  -0.42380  -0.42131  -0.41812  -0.41784
 Alpha  occ. eigenvalues --   -0.41612  -0.41516  -0.41305  -0.41222  -0.40971
 Alpha  occ. eigenvalues --   -0.40870  -0.40816  -0.40688  -0.40563  -0.40527
 Alpha  occ. eigenvalues --   -0.40315  -0.40302  -0.40077  -0.39625  -0.39262
 Alpha  occ. eigenvalues --   -0.38591  -0.38162  -0.37825  -0.37512  -0.37432
 Alpha  occ. eigenvalues --   -0.37336  -0.37098  -0.37046  -0.36790  -0.36639
 Alpha  occ. eigenvalues --   -0.36280  -0.36049  -0.34369  -0.34092  -0.33827
 Alpha  occ. eigenvalues --   -0.33738  -0.33267  -0.33013  -0.31389  -0.31115
 Alpha  occ. eigenvalues --   -0.31078  -0.30804  -0.30090  -0.29831  -0.29515
 Alpha  occ. eigenvalues --   -0.29395  -0.29163  -0.29062  -0.24163  -0.23871
 Alpha  occ. eigenvalues --   -0.21210  -0.20952
 Alpha virt. eigenvalues --   -0.08848  -0.08629  -0.01833  -0.01509  -0.00114
 Alpha virt. eigenvalues --    0.00143   0.02126   0.02351   0.03016   0.03384
 Alpha virt. eigenvalues --    0.04637   0.04888   0.05043   0.05285   0.06102

 Mulliken charges:
               1
     1  Mg   0.838629
     2  C   -0.002775
     3  C   -0.093830
     4  C   -0.046126
     5  C   -0.064355
     6  N   -0.256721
     7  C   -0.052550
     8  C   -0.013988
     9  C   -0.087041
    10  C    0.046297
    11  C    0.104741
    12  C    0.053459
    13  C   -0.071724
    14  H    0.035649
    15  N   -0.433237
    16  C    0.168498
    17  C   -0.176714
    18  C   -0.003711
    19  C    0.148710
    20  C    0.110051
    21  C    0.012444
    22  O   -0.249902
    23  C    0.062290
    24  N   -0.340991
    25  C    0.041151
    26  C   -0.028200
    27  C   -0.023747
    28  C    0.074386
    29  C    0.076109
    30  C    0.035393
    31  C   -0.004418
    32  N   -0.310422
    33  C    0.080142
    34  C   -0.170071
    35  C    0.008533
    36  C    0.082836
    37  C    0.127371
    38  C    0.046205
    39  O   -0.188192
    40  C   -0.005390
    41  C    0.213000
    42  O   -0.257012
    43  O   -0.304804
    44  C    0.157549
    45  H   -0.017218
    46  H   -0.016947
    47  H   -0.042089
    48  H    0.001095
    49  H   -0.003852
    50  H    0.025555
    51  H    0.016495
    52  H    0.016918
    53  H    0.011138
    54  H    0.043967
    55  H    0.018144
    56  H    0.018050
    57  H    0.005942
    58  H    0.027165
    59  H    0.040505
    60  H    0.037387
    61  H    0.036424
    62  H    0.032524
    63  H    0.015893
    64  H    0.009636
    65  H    0.023148
    66  H    0.013038
    67  H    0.004805
    68  H    0.006033
    69  H    0.004506
    70  H    0.008304
    71  H    0.015379
    72  H    0.029876
    73  H    0.047486
    74  H    0.008390
    75  H    0.046164
    76  H    0.035283
    77  H    0.043225
    78  H    0.046223
    79  H    0.053894
    80  Mg   0.838048
    81  C   -0.017015
    82  C   -0.087733
    83  C   -0.044162
    84  C   -0.065027
    85  N   -0.254638
    86  C   -0.049978
    87  C   -0.015127
    88  C   -0.090602
    89  C    0.046056
    90  C    0.114231
    91  C    0.062596
    92  C   -0.077711
    93  H    0.034360
    94  N   -0.423792
    95  C    0.163429
    96  C   -0.173938
    97  C   -0.006849
    98  C    0.152305
    99  C    0.099102
   100  C    0.016240
   101  O   -0.252287
   102  C    0.061121
   103  N   -0.349963
   104  C    0.038207
   105  C   -0.020317
   106  C   -0.034259
   107  C    0.088836
   108  C    0.072807
   109  C    0.034820
   110  C   -0.007550
   111  N   -0.323896
   112  C    0.078215
   113  C   -0.163880
   114  C    0.001820
   115  C    0.095992
   116  C    0.131650
   117  C    0.041732
   118  O   -0.189044
   119  C    0.001082
   120  C    0.211077
   121  O   -0.251251
   122  O   -0.305473
   123  C    0.152203
   124  H   -0.019847
   125  H   -0.014462
   126  H   -0.041411
   127  H   -0.000472
   128  H   -0.004815
   129  H    0.023258
   130  H    0.015027
   131  H    0.015789
   132  H    0.013742
   133  H    0.037488
   134  H    0.020926
   135  H    0.019332
   136  H    0.008304
   137  H    0.027112
   138  H    0.039528
   139  H    0.038872
   140  H    0.036523
   141  H    0.033218
   142  H    0.013949
   143  H    0.011860
   144  H    0.025008
   145  H    0.016382
   146  H    0.005554
   147  H    0.005997
   148  H    0.002725
   149  H    0.011043
   150  H    0.017261
   151  H    0.030139
   152  H    0.045491
   153  H    0.008072
   154  H    0.045450
   155  H    0.035080
   156  H    0.043631
   157  H    0.049521
   158  H    0.053285
 Sum of Mulliken charges =  -0.00000

 Dipole moment (field-independent basis, Debye):
    X=             -3.7471    Y=             -2.0241    Z=              0.3477  Tot=              4.2731
 Quadrupole moment (field-independent basis, Debye-Ang):
   XX=           -525.1098   YY=           -544.6007   ZZ=           -450.1952
   XY=             20.4454   XZ=             56.1660   YZ=            -39.1978

 Normal termination of Gaussian 16 at Sat Sep  4 02:46:01 2021.
