 Gaussian 16, Revision A.03,
 Gaussian 16:  ES64L-G16RevA.03 25-Dec-2016

 -----------------------------------
 #p cam-b3lyp/Def2SVP td=(nstates=5)
 -----------------------------------

 --------------------------------
 TDDFT excited states in gaussian
 --------------------------------
 Symbolic Z-matrix:
 Charge =  0 Multiplicity = 1

                         Standard orientation:
 ---------------------------------------------------------------------
 Center     Atomic      Atomic             Coordinates (Angstroms)
 Number     Number       Type             X           Y           Z
 ---------------------------------------------------------------------
      1         12           0       -6.537284   -0.720675   -0.082568
      2          6           0       -6.743463    2.714140    0.903207
      3          6           0       -7.329252    0.293321   -3.242894
      4          6           0       -6.807489   -3.778339   -0.878997
      5          6           0       -6.886004   -1.554364    3.283293
      6          7           0       -6.957713    1.277789   -0.936983
      7          6           0       -6.945516    2.520517   -0.465124
      8          6           0       -7.092601    3.604186   -1.574809
      9          6           0       -7.823708    2.727269   -2.687687
     10          6           0       -7.313036    1.353891   -2.288975
     11          6           0       -9.344453    2.738872   -2.570639
     12          6           0       -5.706862    4.130557   -2.079183
     13          6           0       -5.760226    5.410332   -2.918637
     14          1           0       -4.681616    6.378386   -2.788938
     15          7           0       -6.518866   -1.588866   -1.857041
     16          6           0       -6.855943   -1.021085   -3.039957
     17          6           0       -6.677512   -2.073897   -4.062909
     18          6           0       -6.391971   -3.352626   -3.354805
     19          6           0       -6.589811   -2.958060   -1.983472
     20          6           0       -6.734339   -1.807979   -5.535936
     21          6           0       -6.012831   -4.716739   -3.838108
     22          8           0       -6.038289   -5.740799   -3.073108
     23          6           0       -5.691780   -4.840101   -5.271548
     24          7           0       -7.027512   -2.433492    1.005351
     25          6           0       -7.015302   -3.641975    0.432286
     26          6           0       -7.118489   -4.733004    1.456467
     27          6           0       -6.958934   -4.022053    2.877327
     28          6           0       -6.868385   -2.552553    2.397077
     29          6           0       -8.418759   -5.548437    1.436972
     30          6           0       -5.848374   -4.561977    3.813040
     31          6           0       -4.488880   -4.261472    3.222641
     32          7           0       -6.596844    0.357462    1.800281
     33          6           0       -6.772127   -0.189273    3.079746
     34          6           0       -6.852753    0.939768    4.024645
     35          6           0       -6.734617    2.072740    3.221984
     36          6           0       -6.615744    1.677268    1.858987
     37          6           0       -7.073085    0.838988    5.426690
     38          6           0       -6.705892    3.526137    3.196101
     39          8           0       -6.672285    4.408239    4.055322
     40          6           0       -6.832890    4.002923    1.682043
     41          6           0       -5.773440    5.043941    1.442968
     42          8           0       -4.562924    4.741329    1.463963
     43          8           0       -6.349754    6.170219    0.995861
     44          6           0       -5.350694    7.234528    0.710767
     45          1           0       -7.799367    0.463506   -4.213446
     46          1           0       -6.796471   -4.848308   -1.096903
     47          1           0       -6.909733   -1.739808    4.358700
     48          1           0       -7.717894    4.453916   -1.300234
     49          1           0       -7.485494    2.980355   -3.692317
     50          1           0       -9.670234    3.244668   -1.661816
     51          1           0       -9.642845    1.690512   -2.550701
     52          1           0       -9.798693    3.162709   -3.466633
     53          1           0       -5.307893    3.438655   -2.820908
     54          1           0       -5.021911    4.276093   -1.243128
     55          1           0       -6.728729    5.903701   -2.832047
     56          1           0       -5.691008    5.132100   -3.970300
     57          1           0       -7.124111   -0.813293   -5.748592
     58          1           0       -7.478247   -2.486205   -5.953453
     59          1           0       -5.772103   -1.974438   -6.020420
     60          1           0       -6.552121   -4.523516   -5.861579
     61          1           0       -5.357370   -5.866603   -5.417545
     62          1           0       -4.883464   -4.149274   -5.513069
     63          1           0       -6.320579   -5.463790    1.331096
     64          1           0       -7.868074   -4.093540    3.474845
     65          1           0       -8.261772   -6.619971    1.310980
     66          1           0       -9.054190   -5.150649    0.646224
     67          1           0       -9.054092   -5.416674    2.312419
     68          1           0       -5.925016   -5.644672    3.907080
     69          1           0       -5.887584   -4.138305    4.816641
     70          1           0       -4.339805   -5.083812    2.523809
     71          1           0       -3.725916   -4.268066    4.001778
     72          1           0       -4.502104   -3.338832    2.642085
     73          1           0       -6.381677    1.539269    5.895230
     74          1           0       -6.907771   -0.178094    5.781400
     75          1           0       -8.119329    1.137964    5.488684
     76          1           0       -7.837850    4.406918    1.563868
     77          1           0       -5.639969    8.110269    1.291827
     78          1           0       -5.309056    7.337996   -0.373653
     79          1           0       -4.341788    7.061914    1.087135
     80         12           0        6.695352   -0.798646    0.234049
     81          6           0        6.524726    2.737351   -0.354733
     82          6           0        5.895917   -1.233569   -3.053249
     83          6           0        6.395205   -3.902453    0.820348
     84          6           0        6.348849   -0.109031    3.632589
     85          7           0        6.287887    0.643290   -1.392927
     86          6           0        6.312620    1.962051   -1.513761
     87          6           0        6.177822    2.476958   -2.971938
     88          6           0        5.425804    1.207860   -3.606541
     89          6           0        5.923698    0.125605   -2.650779
     90          6           0        3.912443    1.286190   -3.492720
     91          6           0        7.571212    2.718120   -3.651872
     92          6           0        7.519841    3.509992   -4.960326
     93          1           0        8.614643    4.428192   -5.261656
     94          7           0        6.700386   -2.346584   -1.007892
     95          6           0        6.369561   -2.341195   -2.316253
     96          6           0        6.517178   -3.731359   -2.774290
     97          6           0        6.802953   -4.587313   -1.590912
     98          6           0        6.619326   -3.627482   -0.520819
     99          6           0        6.464578   -4.120664   -4.223122
    100          6           0        7.167103   -6.033850   -1.445557
    101          8           0        7.136617   -6.624926   -0.308665
    102          6           0        7.470054   -6.761526   -2.686603
    103          7           0        6.201539   -1.868737    1.946774
    104          6           0        6.193840   -3.213296    1.943659
    105          6           0        6.081802   -3.761396    3.346308
    106          6           0        6.260060   -2.501695    4.315313
    107          6           0        6.359591   -1.380784    3.257470
    108          6           0        4.772674   -4.477229    3.678215
    109          6           0        7.370364   -2.597640    5.397295
    110          6           0        8.731880   -2.605741    4.740335
    111          7           0        6.660346    0.976444    1.465264
    112          6           0        6.478745    1.040770    2.864181
    113          6           0        6.414124    2.470734    3.229515
    114          6           0        6.540548    3.144181    2.005186
    115          6           0        6.654233    2.200297    0.948938
    116          6           0        6.209888    2.985968    4.540601
    117          6           0        6.593006    4.438813    1.364972
    118          8           0        6.632230    5.602924    1.761249
    119          6           0        6.458071    4.231941   -0.205187
    120          6           0        7.526724    5.051461   -0.875187
    121          8           0        8.728714    4.776441   -0.713361
    122          8           0        6.952366    5.882870   -1.763578
    123          6           0        7.972933    6.709131   -2.461829
    124          1           0        5.429103   -1.482932   -4.006550
    125          1           0        6.394228   -4.960884    1.090893
    126          1           0        6.340470    0.189704    4.683002
    127          1           0        5.568274    3.365410   -3.085429
    128          1           0        5.769595    1.010394   -4.618553
    129          1           0        3.596352    2.129294   -2.896565
    130          1           0        3.603874    0.358237   -3.029320
    131          1           0        3.459307    1.291196   -4.488203
    132          1           0        7.957286    1.761328   -4.026347
    133          1           0        8.251219    3.190644   -2.969995
    134          1           0        6.552012    4.005438   -5.104558
    135          1           0        7.588033    2.807139   -5.794213
    136          1           0        6.076483   -3.304607   -4.845087
    137          1           0        5.713339   -4.912608   -4.314359
    138          1           0        7.420865   -4.496349   -4.593311
    139          1           0        6.611480   -6.713429   -3.352201
    140          1           0        7.794292   -7.755099   -2.371069
    141          1           0        8.294082   -6.252141   -3.198581
    142          1           0        6.872273   -4.474025    3.547336
    143          1           0        5.348469   -2.303730    4.898116
    144          1           0        4.919976   -5.516608    4.027606
    145          1           0        4.140582   -4.457125    2.800381
    146          1           0        4.151017   -3.981613    4.421928
    147          1           0        7.284651   -3.539092    5.945452
    148          1           0        7.332915   -1.795614    6.126912
    149          1           0        8.864001   -3.654840    4.459221
    150          1           0        9.498366   -2.285962    5.443391
    151          1           0        8.726774   -2.015145    3.816849
    152          1           0        6.903211    3.807317    4.663840
    153          1           0        6.362184    2.219173    5.297304
    154          1           0        5.162203    3.290222    4.469575
    155          1           0        5.455938    4.552140   -0.492873
    156          1           0        7.691712    7.756396   -2.314104
    157          1           0        7.997745    6.336290   -3.503040
    158          1           0        8.980883    6.702641   -2.063784
 ---------------------------------------------------------------------

 SCF Done:  E(RCAM-B3LYP) =  -4069.81162781     A.U. after   19 cycles

 Excitation energies and oscillator strengths:

 Excited State   1:      Singlet-A      1.6664 eV  744.04 nm  f=0.0456  <S**2>=0.000
     309 -> 315       -0.11003
     310 -> 316        0.13167
     311 -> 313       -0.43881
     312 -> 314        0.52799
 This state for optimization and/or second-order correction.
 Total Energy, E(TD-HF/TD-DFT) =  -4069.75038998
 Copying the excited state density for this state as the 1-particle RhoCI density.

 Excited State   2:      Singlet-A      1.6881 eV  734.45 nm  f=0.6946  <S**2>=0.000
     309 -> 315        0.13658
     310 -> 316        0.11309
     311 -> 313        0.52690
     312 -> 314        0.43802

 Excited State   3:      Singlet-A      2.1851 eV  567.41 nm  f=0.0485  <S**2>=0.000
     309 -> 313       -0.19461
     310 -> 314        0.61276
     312 -> 316       -0.25979

 Excited State   4:      Singlet-A      2.1927 eV  565.44 nm  f=0.1427  <S**2>=0.000
     309 -> 313        0.61063
     310 -> 314        0.19307
     311 -> 315       -0.26554

 Excited State   5:      Singlet-A      2.6499 eV  467.88 nm  f=0.0000  <S**2>=0.000
     312 -> 313        0.70710

 The electronic state is 1-A.
 Alpha  occ. eigenvalues --  -46.87850 -46.87553 -19.26288 -19.26269 -19.19075
 Alpha  occ. eigenvalues --  -19.19030 -19.18884 -19.18621 -19.18204 -19.17933
 Alpha  occ. eigenvalues --  -14.42503 -14.42394 -14.41501 -14.41251 -14.39459
 Alpha  occ. eigenvalues --  -14.39246 -14.38638 -14.38488 -10.39092 -10.39002
 Alpha  occ. eigenvalues --  -10.35519 -10.35300 -10.34423 -10.34110 -10.31693
 Alpha  occ. eigenvalues --  -10.31665 -10.31454 -10.31204 -10.30963 -10.30928
 Alpha  occ. eigenvalues --  -10.30620 -10.30559 -10.30285 -10.30263 -10.30249
 Alpha  occ. eigenvalues --  -10.30038 -10.29967 -10.29781 -10.29685 -10.29331
 Alpha  occ. eigenvalues --  -10.29312 -10.29291 -10.28799 -10.28639 -10.28613
 Alpha  occ. eigenvalues --  -10.28589 -10.28417 -10.28298 -10.28167 -10.28058
 Alpha  occ. eigenvalues --  -10.27889 -10.27845 -10.27782 -10.27642 -10.27569
 Alpha  occ. eigenvalues --  -10.27563 -10.27547 -10.27493 -10.27452 -10.27412
 Alpha  occ. eigenvalues --  -10.27390 -10.27378 -10.27361 -10.27272 -10.27189
 Alpha  occ. eigenvalues --  -10.26938 -10.26760 -10.26630 -10.26504 -10.26339
 Alpha  occ. eigenvalues --  -10.26280 -10.26228 -10.26071 -10.26042 -10.25939
 Alpha  occ. eigenvalues --  -10.25882 -10.25824 -10.25696 -10.25475 -10.25292
 Alpha  occ. eigenvalues --  -10.24882 -10.24838 -10.24757 -10.24734 -10.24643
 Alpha  occ. eigenvalues --  -10.24583  -3.16593  -3.16303  -1.91475  -1.91185
 Alpha  occ. eigenvalues --   -1.91061  -1.90903  -1.90773  -1.90610  -1.16638
 Alpha  occ. eigenvalues --   -1.16562  -1.08658  -1.08540  -1.07286  -1.06874
 Alpha  occ. eigenvalues --   -1.06859  -1.06652  -1.04633  -1.04392  -1.03812
 Alpha  occ. eigenvalues --   -1.03557  -1.03286  -1.02930  -1.02463  -1.02002
 Alpha  occ. eigenvalues --   -0.92017  -0.91879  -0.89568  -0.89390  -0.89238
 Alpha  occ. eigenvalues --   -0.89067  -0.88334  -0.88117  -0.87918  -0.87726
 Alpha  occ. eigenvalues --   -0.87670  -0.87584  -0.87341  -0.87025  -0.85033
 Alpha  occ. eigenvalues --   -0.84913  -0.83980  -0.83775  -0.83037  -0.82842
 Alpha  occ. eigenvalues --   -0.82698  -0.82565  -0.81615  -0.81501  -0.80641
 Alpha  occ. eigenvalues --   -0.80346  -0.78857  -0.78532  -0.77269  -0.77050
 Alpha  occ. eigenvalues --   -0.76975  -0.76809  -0.75963  -0.75746  -0.74941
 Alpha  occ. eigenvalues --   -0.74702  -0.72824  -0.72589  -0.71718  -0.71480
 Alpha  occ. eigenvalues --   -0.69954  -0.69659  -0.68925  -0.68738  -0.67691
 Alpha  occ. eigenvalues --   -0.67500  -0.67277  -0.67120  -0.65334  -0.65183
 Alpha  occ. eigenvalues --   -0.64896  -0.64669  -0.64663  -0.64560  -0.64316
 Alpha  occ. eigenvalues --   -0.64102  -0.62322  -0.62186  -0.60503  -0.60240
 Alpha  occ. eigenvalues --   -0.59855  -0.59703  -0.59034  -0.58889  -0.58550
 Alpha  occ. eigenvalues --   -0.58323  -0.57617  -0.57448  -0.57354  -0.57133
 Alpha  occ. eigenvalues --   -0.56361  -0.56100  -0.56002  -0.55801  -0.55576
 Alpha  occ. eigenvalues --   -0.55376  -0.55358  -0.55147  -0.54554  -0.54393
 Alpha  occ. eigenvalues --   -0.53945  -0.53829  -0.53354  -0.53275  -0.53127
 Alpha  occ. eigenvalues --   -0.53050  -0.52954  -0.52820  -0.52811  -0.52584
 Alpha  occ. eigenvalues --   -0.52483  -0.52304  -0.51957  -0.51748  -0.51670
 Alpha  occ. eigenvalues --   -0.51575  -0.51237  -0.51098  -0.50650  -0.50390
 Alpha  occ. eigenvalues --   -0.50082  -0.49980  -0.49890  -0.49768  -0.49569
 Alpha  occ. eigenvalues --   -0.49397  -0.49262  -0.49142  -0.49105  -0.49006
 Alpha  occ. eigenvalues --   -0.48631  -0.48518  -0.48489  -0.48461  -0.48272
 Alpha  occ. eigenvalues --   -0.48246  -0.47746  -0.47503  -0.47348  -0.47023
 Alpha  occ. eigenvalues --   -0.46845  -0.46610  -0.46605  -0.46470  -0.46407
 Alpha  occ. eigenvalues --   -0.46202  -0.46168  -0.45977  -0.45855  -0.45716
 Alpha  occ. eigenvalues --   -0.45247  -0.45107  -0.44618  -0.44566  -0.44418
 Alpha  occ. eigenvalues --   -0.44382  -0.44195  -0.44139  -0.44065  -0.44032
 Alpha  occ. eigenvalues --   -0.43982  -0.43844  -0.43525  -0.43462  -0.43436
 Alpha  occ. eigenvalues --   -0.43290  -0.43072  -0.42840  -0.42797  -0.42733
 Alpha  occ. eigenvalues --   -0.42680  -0.42455  -0.42054  -0.41872  -0.41749
 Alpha  occ. eigenvalues --   -0.41584  -0.41564  -0.41372  -0.41189  -0.40922
 Alpha  occ. eigenvalues --   -0.40892  -0.40888  -0.40638  -0.40617  -0.40613
 Alpha  occ. eigenvalues --   -0.40394  -0.40290  -0.40156  -0.39488  -0.39327
 Alpha  occ. eigenvalues --   -0.38516  -0.38252  -0.37799  -0.37578  -0.37369
 Alpha  occ. eigenvalues --   -0.37314  -0.37165  -0.37106  -0.36735  -0.36684
 Alpha  occ. eigenvalues --   -0.36227  -0.36120  -0.34336  -0.34147  -0.33788
 Alpha  occ. eigenvalues --   -0.33771  -0.33234  -0.33069  -0.31412  -0.31180
 Alpha  occ. eigenvalues --   -0.31086  -0.30868  -0.30062  -0.29837  -0.29507
 Alpha  occ. eigenvalues --   -0.29371  -0.29222  -0.29094  -0.24131  -0.23927
 Alpha  occ. eigenvalues --   -0.21180  -0.21010
 Alpha virt. eigenvalues --   -0.08828  -0.08683  -0.01803  -0.01578  -0.00118
 Alpha virt. eigenvalues --    0.00070   0.02156   0.02323   0.03057   0.03322
 Alpha virt. eigenvalues --    0.04667   0.04825   0.05082   0.05256   0.06131

 Mulliken charges:
               1
     1  Mg   0.838456
     2  C   -0.002931
     3  C   -0.094376
     4  C   -0.045840
     5  C   -0.063959
     6  N   -0.256731
     7  C   -0.052457
     8  C   -0.013956
     9  C   -0.086941
    10  C    0.046194
    11  C    0.104811
    12  C    0.053568
    13  C   -0.071855
    14  H    0.036411
    15  N   -0.433075
    16  C    0.168246
    17  C   -0.177430
    18  C   -0.004176
    19  C    0.148620
    20  C    0.110238
    21  C    0.012107
    22  O   -0.249495
    23  C    0.062632
    24  N   -0.341131
    25  C    0.041176
    26  C   -0.028163
    27  C   -0.024042
    28  C    0.074939
    29  C    0.076122
    30  C    0.035102
    31  C   -0.004481
    32  N   -0.310529
    33  C    0.080529
    34  C   -0.169621
    35  C    0.008522
    36  C    0.083047
    37  C    0.127279
    38  C    0.046291
    39  O   -0.187905
    40  C   -0.005381
    41  C    0.212980
    42  O   -0.256955
    43  O   -0.304892
    44  C    0.157425
    45  H   -0.017690
    46  H   -0.016803
    47  H   -0.041377
    48  H    0.001164
    49  H   -0.004259
    50  H    0.025610
    51  H    0.016459
    52  H    0.016659
    53  H    0.010640
    54  H    0.044292
    55  H    0.018099
    56  H    0.017553
    57  H    0.005807
    58  H    0.026873
    59  H    0.038753
    60  H    0.037441
    61  H    0.035520
    62  H    0.030747
    63  H    0.016609
    64  H    0.009582
    65  H    0.023301
    66  H    0.012542
    67  H    0.004841
    68  H    0.006534
    69  H    0.004737
    70  H    0.008955
    71  H    0.017998
    72  H    0.028874
    73  H    0.047796
    74  H    0.009107
    75  H    0.046180
    76  H    0.035259
    77  H    0.043315
    78  H    0.046217
    79  H    0.054298
    80  Mg   0.838036
    81  C   -0.016717
    82  C   -0.087899
    83  C   -0.045378
    84  C   -0.064372
    85  N   -0.254507
    86  C   -0.049585
    87  C   -0.015092
    88  C   -0.090595
    89  C    0.045840
    90  C    0.114410
    91  C    0.062595
    92  C   -0.077626
    93  H    0.034584
    94  N   -0.423441
    95  C    0.162853
    96  C   -0.174801
    97  C   -0.007892
    98  C    0.151981
    99  C    0.099462
   100  C    0.015498
   101  O   -0.253315
   102  C    0.061251
   103  N   -0.349905
   104  C    0.037509
   105  C   -0.019856
   106  C   -0.034886
   107  C    0.088982
   108  C    0.073642
   109  C    0.034705
   110  C   -0.007620
   111  N   -0.324247
   112  C    0.078604
   113  C   -0.162554
   114  C    0.002625
   115  C    0.096266
   116  C    0.131313
   117  C    0.042907
   118  O   -0.187581
   119  C    0.000678
   120  C    0.211157
   121  O   -0.251203
   122  O   -0.305548
   123  C    0.152139
   124  H   -0.020254
   125  H   -0.015704
   126  H   -0.040149
   127  H   -0.000661
   128  H   -0.004908
   129  H    0.023312
   130  H    0.014770
   131  H    0.015141
   132  H    0.013822
   133  H    0.037699
   134  H    0.020535
   135  H    0.019264
   136  H    0.008291
   137  H    0.025932
   138  H    0.039440
   139  H    0.038184
   140  H    0.036191
   141  H    0.033681
   142  H    0.014160
   143  H    0.012845
   144  H    0.024766
   145  H    0.011936
   146  H    0.005781
   147  H    0.006071
   148  H    0.003790
   149  H    0.010780
   150  H    0.017785
   151  H    0.030111
   152  H    0.045800
   153  H    0.008390
   154  H    0.048615
   155  H    0.035736
   156  H    0.043780
   157  H    0.049173
   158  H    0.053479
 Sum of Mulliken charges =  -0.00000

 Dipole moment (field-independent basis, Debye):
    X=             -3.8863    Y=             -2.2076    Z=             -7.4743  Tot=              8.7087
 Quadrupole moment (field-independent basis, Debye-Ang):
   XX=           -518.0417   YY=           -546.5745   ZZ=           -452.4987
   XY=            -15.1193   XZ=              2.1503   YZ=            -43.7165

 Normal termination of Gaussian 16 at Sat Sep 11 14:18:04 2021.
