 Gaussian 16, Revision A.03,
 Gaussian 16:  ES64L-G16RevA.03 25-Dec-2016

 -----------------------------------
 #p cam-b3lyp/Def2SVP td=(nstates=5)
 -----------------------------------

 --------------------------------
 TDDFT excited states in gaussian
 --------------------------------
 Symbolic Z-matrix:
 Charge =  0 Multiplicity = 1

                         Standard orientation:
 ---------------------------------------------------------------------
 Center     Atomic      Atomic             Coordinates (Angstroms)
 Number     Number       Type             X           Y           Z
 ---------------------------------------------------------------------
      1         12           0        3.483661    1.710033    0.446409
      2          6           0        5.125459   -1.044744   -1.143534
      3          6           0        3.685854    3.358276   -2.534443
      4          6           0        2.451629    4.311003    1.938550
      5          6           0        4.424021    0.317275    3.499540
      6          7           0        4.320213    1.124767   -1.517844
      7          6           0        4.867629    0.018557   -2.011612
      8          6           0        5.072763    0.066670   -3.555302
      9          6           0        5.123053    1.647881   -3.753398
     10          6           0        4.297780    2.069742   -2.550534
     11          6           0        6.524422    2.234635   -3.617792
     12          6           0        3.873391   -0.570472   -4.334588
     13          6           0        4.135743   -0.858615   -5.815635
     14          1           0        3.537478   -2.041619   -6.415574
     15          7           0        2.683965    3.367262   -0.272567
     16          6           0        2.861272    3.879609   -1.514078
     17          6           0        2.058472    5.120560   -1.561358
     18          6           0        1.552270    5.387681   -0.186404
     19          6           0        2.239517    4.367208    0.563066
     20          6           0        1.800763    5.886270   -2.822716
     21          6           0        0.608350    6.408312    0.366281
     22          8           0        0.484997    6.610909    1.622590
     23          6           0       -0.112589    7.236908   -0.616938
     24          7           0        3.627171    2.364052    2.423604
     25          6           0        3.042155    3.500067    2.818839
     26          6           0        3.035936    3.619532    4.314040
     27          6           0        3.525217    2.205857    4.872502
     28          6           0        3.821718    1.508407    3.521976
     29          6           0        3.916024    4.732131    4.900196
     30          6           0        2.595769    1.489532    5.884146
     31          6           0        1.318406    1.064145    5.195316
     32          7           0        4.422427   -0.132911    1.104682
     33          6           0        4.738728   -0.494145    2.422307
     34          6           0        5.458848   -1.779144    2.356925
     35          6           0        5.526422   -2.069850    0.995761
     36          6           0        4.912035   -1.019329    0.256014
     37          6           0        6.003252   -2.486671    3.464835
     38          6           0        5.996477   -3.011560   -0.007279
     39          8           0        6.505272   -4.132918    0.027003
     40          6           0        5.863575   -2.326756   -1.438784
     41          6           0        5.207434   -3.320057   -2.358643
     42          8           0        4.021490   -3.667144   -2.184191
     43          8           0        5.992983   -3.522418   -3.427523
     44          6           0        5.386605   -4.475837   -4.394711
     45          1           0        3.902822    4.055799   -3.345816
     46          1           0        2.012233    5.137157    2.501435
     47          1           0        4.673734   -0.218797    4.416995
     48          1           0        6.002942   -0.382027   -3.904389
     49          1           0        4.633619    1.958149   -4.676387
     50          1           0        7.239208    1.484831   -3.278976
     51          1           0        6.435035    3.034889   -2.882879
     52          1           0        6.835184    2.713994   -4.546456
     53          1           0        3.073952    0.164613   -4.427373
     54          1           0        3.536169   -1.484098   -3.843779
     55          1           0        5.199651   -0.808447   -6.049072
     56          1           0        3.691209   -0.055682   -6.403758
     57          1           0        2.437064    5.542250   -3.637158
     58          1           0        2.120473    6.912549   -2.643143
     59          1           0        0.747348    5.873070   -3.102846
     60          1           0        0.608951    7.774316   -1.232667
     61          1           0       -0.807761    7.848369   -0.042742
     62          1           0       -0.665067    6.582990   -1.292296
     63          1           0        2.032508    3.822628    4.685943
     64          1           0        4.479377    2.280397    5.394706
     65          1           0        3.370024    5.438276    5.526254
     66          1           0        4.409103    5.242605    4.073407
     67          1           0        4.770266    4.382021    5.479085
     68          1           0        2.315548    2.168904    6.688432
     69          1           0        3.050607    0.608672    6.337421
     70          1           0        0.709889    1.967037    5.231723
     71          1           0        0.843011    0.250546    5.744194
     72          1           0        1.491579    0.830056    4.144745
     73          1           0        5.752195   -3.535919    3.309863
     74          1           0        5.599394   -2.117770    4.407392
     75          1           0        7.063011   -2.260737    3.347700
     76          1           0        6.873587   -2.075464   -1.761044
     77          1           0        6.107448   -5.278920   -4.548588
     78          1           0        5.089996   -3.888717   -5.264032
     79          1           0        4.523355   -5.039488   -4.039134
     80         12           0       -3.614249   -1.857434    0.327021
     81          6           0       -4.746306    0.917674   -1.646883
     82          6           0       -3.723361    0.215612    3.033534
     83          6           0       -2.194095   -4.142109    2.009526
     84          6           0       -2.518420   -3.336390   -2.632297
     85          7           0       -4.179117    0.270527    0.539102
     86          6           0       -4.652008    1.206864   -0.269598
     87          6           0       -5.121530    2.500210    0.448999
     88          6           0       -4.230261    2.373499    1.778835
     89          6           0       -4.057731    0.856371    1.813807
     90          6           0       -2.855734    3.007566    1.644764
     91          6           0       -6.654945    2.476560    0.780803
     92          6           0       -7.242845    3.825441    1.201095
     93          1           0       -8.608443    4.146319    0.795336
     94          7           0       -3.497146   -2.122335    2.290354
     95          6           0       -3.585332   -1.173664    3.246141
     96          6           0       -3.415857   -1.876429    4.527372
     97          6           0       -3.056126   -3.292001    4.241940
     98          6           0       -2.877561   -3.233995    2.804982
     99          6           0       -3.672248   -1.222718    5.854153
    100          6           0       -2.886747   -4.495493    5.118918
    101          8           0       -2.338648   -5.570965    4.687897
    102          6           0       -3.296353   -4.346386    6.523011
    103          7           0       -2.327836   -3.403540   -0.199316
    104          6           0       -1.898662   -4.288259    0.717753
    105          6           0       -1.212290   -5.463166    0.062856
    106          6           0       -1.484413   -5.300585   -1.504660
    107          6           0       -2.238303   -3.952670   -1.492169
    108          6           0        0.292032   -5.576514    0.308910
    109          6           0       -2.137767   -6.506175   -2.234289
    110          6           0       -3.557213   -6.695159   -1.749674
    111          7           0       -3.778948   -1.422683   -1.782935
    112          6           0       -3.223623   -2.159972   -2.851640
    113          6           0       -3.507801   -1.409756   -4.092140
    114          6           0       -4.194125   -0.267469   -3.653242
    115          6           0       -4.310519   -0.293270   -2.237162
    116          6           0       -3.099803   -1.784966   -5.403204
    117          6           0       -4.837290    0.959541   -4.064939
    118          8           0       -5.122416    1.470064   -5.147432
    119          6           0       -5.112505    1.843902   -2.773213
    120          6           0       -6.531950    2.336881   -2.841602
    121          8           0       -7.482473    1.537698   -2.775182
    122          8           0       -6.536717    3.679590   -2.755152
    123          6           0       -7.923208    4.215075   -2.807331
    124          1           0       -3.504172    0.836447    3.902672
    125          1           0       -1.780499   -5.008204    2.531356
    126          1           0       -2.295752   -3.779384   -3.605356
    127          1           0       -4.884450    3.420503   -0.071216
    128          1           0       -4.776190    2.715450    2.654272
    129          1           0       -2.660375    3.336099    0.634801
    130          1           0       -2.148878    2.242061    1.937005
    131          1           0       -2.741343    3.816757    2.371724
    132          1           0       -6.812441    1.906631    1.705533
    133          1           0       -7.216619    2.078060   -0.041593
    134          1           0       -6.567819    4.658831    0.971413
    135          1           0       -7.328601    3.842368    2.290311
    136          1           0       -3.761869   -0.133855    5.755458
    137          1           0       -2.771942   -1.367242    6.461129
    138          1           0       -4.525941   -1.656325    6.379388
    139          1           0       -2.732579   -3.536355    6.979591
    140          1           0       -3.183424   -5.337273    6.967170
    141          1           0       -4.350946   -4.050231    6.550235
    142          1           0       -1.642215   -6.398732    0.398989
    143          1           0       -0.552573   -5.134293   -2.064881
    144          1           0        0.589017   -6.542242    0.759727
    145          1           0        0.597781   -4.752393    0.939693
    146          1           0        0.915924   -5.436834   -0.572251
    147          1           0       -1.602829   -7.428618   -1.995363
    148          1           0       -2.141662   -6.406750   -3.314604
    149          1           0       -3.429021   -7.274041   -0.830133
    150          1           0       -4.142636   -7.245013   -2.483832
    151          1           0       -4.010242   -5.735584   -1.474660
    152          1           0       -3.947681   -1.615645   -6.053536
    153          1           0       -2.773244   -2.822284   -5.436353
    154          1           0       -2.271002   -1.088616   -5.556316
    155          1           0       -4.393577    2.664081   -2.778457
    156          1           0       -7.955528    4.938798   -3.627617
    157          1           0       -8.134687    4.596294   -1.790623
    158          1           0       -8.713622    3.532331   -3.096405
 ---------------------------------------------------------------------

 SCF Done:  E(RCAM-B3LYP) =  -4069.81311493     A.U. after   19 cycles

 Excitation energies and oscillator strengths:

 Excited State   1:      Singlet-A      1.6526 eV  750.25 nm  f=0.1540  <S**2>=0.000
     309 -> 315        0.10646
     310 -> 316        0.13014
     311 -> 313       -0.43701
     312 -> 314        0.53029
 This state for optimization and/or second-order correction.
 Total Energy, E(TD-HF/TD-DFT) =  -4069.75238387
 Copying the excited state density for this state as the 1-particle RhoCI density.

 Excited State   2:      Singlet-A      1.6879 eV  734.54 nm  f=0.5029  <S**2>=0.000
     309 -> 315       -0.13658
     310 -> 316        0.11210
     311 -> 313        0.52815
     312 -> 314        0.43534

 Excited State   3:      Singlet-A      2.1797 eV  568.82 nm  f=0.0634  <S**2>=0.000
     309 -> 313        0.28346
     310 -> 314        0.57938
     311 -> 315        0.11716
     312 -> 316       -0.23953

 Excited State   4:      Singlet-A      2.1944 eV  565.00 nm  f=0.1253  <S**2>=0.000
     309 -> 313        0.57450
     310 -> 314       -0.28012
     311 -> 315        0.25120
     312 -> 316        0.12367

 Excited State   5:      Singlet-A      2.2215 eV  558.11 nm  f=0.0000  <S**2>=0.000
     312 -> 313        0.70698

 The electronic state is 1-A.
 Alpha  occ. eigenvalues --  -46.87952 -46.87378 -19.26527 -19.26278 -19.19316
 Alpha  occ. eigenvalues --  -19.19057 -19.19039 -19.18492 -19.18335 -19.17902
 Alpha  occ. eigenvalues --  -14.42598 -14.42216 -14.41620 -14.41024 -14.39562
 Alpha  occ. eigenvalues --  -14.39083 -14.38740 -14.38339 -10.39350 -10.38984
 Alpha  occ. eigenvalues --  -10.35668 -10.35173 -10.34557 -10.34082 -10.31914
 Alpha  occ. eigenvalues --  -10.31710 -10.31542 -10.31061 -10.31050 -10.30763
 Alpha  occ. eigenvalues --  -10.30715 -10.30682 -10.30385 -10.30131 -10.30122
 Alpha  occ. eigenvalues --  -10.30107 -10.29791 -10.29770 -10.29533 -10.29409
 Alpha  occ. eigenvalues --  -10.29173 -10.29154 -10.28876 -10.28645 -10.28522
 Alpha  occ. eigenvalues --  -10.28485 -10.28481 -10.28227 -10.28161 -10.27942
 Alpha  occ. eigenvalues --  -10.27865 -10.27838 -10.27767 -10.27746 -10.27731
 Alpha  occ. eigenvalues --  -10.27690 -10.27568 -10.27556 -10.27389 -10.27344
 Alpha  occ. eigenvalues --  -10.27301 -10.27238 -10.27224 -10.26947 -10.26914
 Alpha  occ. eigenvalues --  -10.26827 -10.26754 -10.26604 -10.26494 -10.26474
 Alpha  occ. eigenvalues --  -10.26333 -10.26252 -10.26181 -10.25948 -10.25710
 Alpha  occ. eigenvalues --  -10.25699 -10.25653 -10.25612 -10.25610 -10.25052
 Alpha  occ. eigenvalues --  -10.24985 -10.24972 -10.24652 -10.24379 -10.24367
 Alpha  occ. eigenvalues --  -10.24365  -3.16694  -3.16129  -1.91576  -1.91163
 Alpha  occ. eigenvalues --   -1.91011  -1.91005  -1.90598  -1.90437  -1.16880
 Alpha  occ. eigenvalues --   -1.16564  -1.08798  -1.08525  -1.07444  -1.06913
 Alpha  occ. eigenvalues --   -1.06845  -1.06744  -1.04731  -1.04226  -1.03928
 Alpha  occ. eigenvalues --   -1.03395  -1.03376  -1.02728  -1.02573  -1.01816
 Alpha  occ. eigenvalues --   -0.92139  -0.91755  -0.89732  -0.89313  -0.89142
 Alpha  occ. eigenvalues --   -0.88868  -0.88499  -0.88006  -0.87820  -0.87775
 Alpha  occ. eigenvalues --   -0.87579  -0.87426  -0.87374  -0.86908  -0.85126
 Alpha  occ. eigenvalues --   -0.84729  -0.84172  -0.83437  -0.83157  -0.82814
 Alpha  occ. eigenvalues --   -0.82663  -0.82376  -0.81773  -0.81411  -0.80771
 Alpha  occ. eigenvalues --   -0.80220  -0.78940  -0.78411  -0.77391  -0.77098
 Alpha  occ. eigenvalues --   -0.76872  -0.76599  -0.76079  -0.75590  -0.75097
 Alpha  occ. eigenvalues --   -0.74292  -0.72931  -0.72426  -0.71837  -0.71205
 Alpha  occ. eigenvalues --   -0.70156  -0.69300  -0.69022  -0.68567  -0.67812
 Alpha  occ. eigenvalues --   -0.67363  -0.67330  -0.66984  -0.65437  -0.65032
 Alpha  occ. eigenvalues --   -0.65032  -0.64806  -0.64514  -0.64470  -0.64390
 Alpha  occ. eigenvalues --   -0.63802  -0.62507  -0.62074  -0.60611  -0.60060
 Alpha  occ. eigenvalues --   -0.59938  -0.59539  -0.59160  -0.58696  -0.58680
 Alpha  occ. eigenvalues --   -0.58156  -0.57777  -0.57506  -0.57395  -0.56919
 Alpha  occ. eigenvalues --   -0.56465  -0.56176  -0.55984  -0.55707  -0.55688
 Alpha  occ. eigenvalues --   -0.55563  -0.55261  -0.54912  -0.54756  -0.54130
 Alpha  occ. eigenvalues --   -0.54028  -0.53638  -0.53474  -0.53386  -0.53116
 Alpha  occ. eigenvalues --   -0.52974  -0.52914  -0.52896  -0.52701  -0.52674
 Alpha  occ. eigenvalues --   -0.52453  -0.52050  -0.52007  -0.51759  -0.51704
 Alpha  occ. eigenvalues --   -0.51442  -0.51374  -0.50960  -0.50723  -0.50260
 Alpha  occ. eigenvalues --   -0.50237  -0.50082  -0.49716  -0.49677  -0.49404
 Alpha  occ. eigenvalues --   -0.49380  -0.49245  -0.49235  -0.48986  -0.48846
 Alpha  occ. eigenvalues --   -0.48766  -0.48664  -0.48631  -0.48338  -0.48132
 Alpha  occ. eigenvalues --   -0.47913  -0.47865  -0.47460  -0.47314  -0.46971
 Alpha  occ. eigenvalues --   -0.46802  -0.46699  -0.46529  -0.46404  -0.46345
 Alpha  occ. eigenvalues --   -0.46249  -0.46003  -0.45987  -0.45737  -0.45574
 Alpha  occ. eigenvalues --   -0.45407  -0.44751  -0.44689  -0.44681  -0.44339
 Alpha  occ. eigenvalues --   -0.44274  -0.44237  -0.44196  -0.44184  -0.43881
 Alpha  occ. eigenvalues --   -0.43759  -0.43737  -0.43681  -0.43548  -0.43357
 Alpha  occ. eigenvalues --   -0.43199  -0.43066  -0.42926  -0.42899  -0.42783
 Alpha  occ. eigenvalues --   -0.42591  -0.42215  -0.42160  -0.41878  -0.41680
 Alpha  occ. eigenvalues --   -0.41647  -0.41393  -0.41302  -0.41165  -0.41042
 Alpha  occ. eigenvalues --   -0.41020  -0.40771  -0.40647  -0.40491  -0.40410
 Alpha  occ. eigenvalues --   -0.40364  -0.40043  -0.40014  -0.39712  -0.38988
 Alpha  occ. eigenvalues --   -0.38673  -0.37894  -0.37889  -0.37513  -0.37408
 Alpha  occ. eigenvalues --   -0.37406  -0.36974  -0.36952  -0.36869  -0.36591
 Alpha  occ. eigenvalues --   -0.36403  -0.35836  -0.34446  -0.34035  -0.33973
 Alpha  occ. eigenvalues --   -0.33722  -0.33357  -0.32894  -0.31565  -0.31207
 Alpha  occ. eigenvalues --   -0.31041  -0.30686  -0.30195  -0.29812  -0.29611
 Alpha  occ. eigenvalues --   -0.29473  -0.29100  -0.28990  -0.24242  -0.23755
 Alpha  occ. eigenvalues --   -0.21285  -0.20830
 Alpha virt. eigenvalues --   -0.08934  -0.08537  -0.01922  -0.01376  -0.00234
 Alpha virt. eigenvalues --    0.00196   0.02024   0.02330   0.02543   0.03617
 Alpha virt. eigenvalues --    0.04571   0.04851   0.05054   0.05286   0.06015

 Mulliken charges:
               1
     1  Mg   0.839069
     2  C   -0.003157
     3  C   -0.092727
     4  C   -0.047204
     5  C   -0.063529
     6  N   -0.256766
     7  C   -0.052017
     8  C   -0.014283
     9  C   -0.087234
    10  C    0.046339
    11  C    0.104660
    12  C    0.053323
    13  C   -0.072009
    14  H    0.035118
    15  N   -0.433283
    16  C    0.168603
    17  C   -0.176455
    18  C   -0.004853
    19  C    0.148956
    20  C    0.109776
    21  C    0.010932
    22  O   -0.251644
    23  C    0.062536
    24  N   -0.341059
    25  C    0.041650
    26  C   -0.027947
    27  C   -0.023796
    28  C    0.074476
    29  C    0.076147
    30  C    0.035201
    31  C   -0.004669
    32  N   -0.310649
    33  C    0.080682
    34  C   -0.168967
    35  C    0.008251
    36  C    0.083011
    37  C    0.127324
    38  C    0.045708
    39  O   -0.188254
    40  C   -0.005520
    41  C    0.214155
    42  O   -0.259718
    43  O   -0.303938
    44  C    0.158000
    45  H   -0.016803
    46  H   -0.017941
    47  H   -0.041318
    48  H    0.001017
    49  H   -0.003002
    50  H    0.025445
    51  H    0.016462
    52  H    0.017316
    53  H    0.012497
    54  H    0.042801
    55  H    0.018169
    56  H    0.019418
    57  H    0.006957
    58  H    0.026924
    59  H    0.041450
    60  H    0.038692
    61  H    0.034642
    62  H    0.031935
    63  H    0.014337
    64  H    0.010010
    65  H    0.022624
    66  H    0.013226
    67  H    0.005199
    68  H    0.005402
    69  H    0.005897
    70  H    0.004831
    71  H    0.017242
    72  H    0.031587
    73  H    0.048356
    74  H    0.009479
    75  H    0.046103
    76  H    0.035785
    77  H    0.043697
    78  H    0.047169
    79  H    0.051692
    80  Mg   0.836739
    81  C   -0.017647
    82  C   -0.088982
    83  C   -0.045289
    84  C   -0.062644
    85  N   -0.255031
    86  C   -0.050195
    87  C   -0.014713
    88  C   -0.090635
    89  C    0.045798
    90  C    0.114350
    91  C    0.062582
    92  C   -0.077474
    93  H    0.033561
    94  N   -0.423716
    95  C    0.163586
    96  C   -0.175183
    97  C   -0.007819
    98  C    0.152440
    99  C    0.099640
   100  C    0.014979
   101  O   -0.252229
   102  C    0.061555
   103  N   -0.350515
   104  C    0.039817
   105  C   -0.021684
   106  C   -0.034510
   107  C    0.089666
   108  C    0.068435
   109  C    0.034346
   110  C   -0.007308
   111  N   -0.323920
   112  C    0.078000
   113  C   -0.163848
   114  C    0.001065
   115  C    0.096374
   116  C    0.132035
   117  C    0.040988
   118  O   -0.190442
   119  C    0.001563
   120  C    0.211278
   121  O   -0.250822
   122  O   -0.306366
   123  C    0.152133
   124  H   -0.019346
   125  H   -0.014370
   126  H   -0.040746
   127  H   -0.002460
   128  H   -0.004706
   129  H    0.019642
   130  H    0.014103
   131  H    0.023365
   132  H    0.013849
   133  H    0.037070
   134  H    0.020801
   135  H    0.019848
   136  H    0.008777
   137  H    0.024486
   138  H    0.039316
   139  H    0.036904
   140  H    0.036138
   141  H    0.033682
   142  H    0.012530
   143  H    0.019078
   144  H    0.022990
   145  H    0.013684
   146  H    0.022654
   147  H    0.006904
   148  H    0.001923
   149  H    0.010812
   150  H    0.016274
   151  H    0.029066
   152  H    0.044942
   153  H    0.008689
   154  H    0.044605
   155  H    0.031870
   156  H    0.042722
   157  H    0.049852
   158  H    0.053563
 Sum of Mulliken charges =  -0.00000

 Dipole moment (field-independent basis, Debye):
    X=              2.3888    Y=              5.0347    Z=              1.1392  Tot=              5.6879
 Quadrupole moment (field-independent basis, Debye-Ang):
   XX=           -526.3866   YY=           -519.1474   ZZ=           -474.8699
   XY=              9.4473   XZ=            -41.3063   YZ=             12.0314

 Normal termination of Gaussian 16 at Fri Sep  3 14:48:57 2021.
