 Gaussian 16, Revision A.03,
 Gaussian 16:  ES64L-G16RevA.03 25-Dec-2016

 -----------------------------------
 #p cam-b3lyp/Def2SVP td=(nstates=5)
 -----------------------------------

 --------------------------------
 TDDFT excited states in gaussian
 --------------------------------
 Symbolic Z-matrix:
 Charge =  0 Multiplicity = 1

                         Standard orientation:
 ---------------------------------------------------------------------
 Center     Atomic      Atomic             Coordinates (Angstroms)
 Number     Number       Type             X           Y           Z
 ---------------------------------------------------------------------
      1         12           0       -4.566371   -0.018448   -0.004154
      2          6           0       -4.174918    3.538345    0.086415
      3          6           0       -5.320220    0.298111   -3.316943
      4          6           0       -5.358768   -3.089072   -0.005724
      5          6           0       -4.899459    0.077882    3.463617
      6          7           0       -4.696335    1.747192   -1.333164
      7          6           0       -4.464166    3.048148   -1.189002
      8          6           0       -4.482687    3.831949   -2.535363
      9          6           0       -5.392493    2.840970   -3.391056
     10          6           0       -5.092638    1.543986   -2.660409
     11          6           0       -6.885118    3.134186   -3.278825
     12          6           0       -3.053342    3.978686   -3.157595
     13          6           0       -2.936286    5.001007   -4.291840
     14          1           0       -1.711476    5.777519   -4.411073
     15          7           0       -4.764175   -1.289790   -1.503292
     16          6           0       -5.056146   -0.984877   -2.790563
     17          6           0       -5.093520   -2.272852   -3.516100
     18          6           0       -4.987122   -3.365369   -2.509531
     19          6           0       -5.059745   -2.616080   -1.281251
     20          6           0       -5.170177   -2.374573   -5.008590
     21          6           0       -4.853425   -4.850153   -2.634723
     22          8           0       -5.010286   -5.633744   -1.636748
     23          6           0       -4.618370   -5.376499   -3.991465
     24          7           0       -5.278379   -1.302021    1.480137
     25          6           0       -5.485330   -2.599433    1.229380
     26          6           0       -5.718451   -3.369784    2.495142
     27          6           0       -5.385658   -2.365754    3.691355
     28          6           0       -5.080733   -1.097312    2.856883
     29          6           0       -7.132544   -3.936430    2.682928
     30          6           0       -4.337154   -2.834083    4.731416
     31          6           0       -2.973709   -2.919862    4.082756
     32          7           0       -4.370712    1.486968    1.547130
     33          6           0       -4.576414    1.311352    2.923182
     34          6           0       -4.433700    2.636462    3.553885
     35          6           0       -4.169562    3.499241    2.491959
     36          6           0       -4.174591    2.764298    1.272071
     37          6           0       -4.606835    2.924339    4.936486
     38          6           0       -3.908636    4.875184    2.101376
     39          8           0       -3.696679    5.924368    2.711114
     40          6           0       -4.022340    4.976233    0.516230
     41          6           0       -2.820558    5.734202    0.021749
     42          8           0       -1.674689    5.249086    0.116687
     43          8           0       -3.226957    6.794285   -0.693517
     44          6           0       -2.082956    7.573133   -1.238322
     45          1           0       -5.798171    0.298317   -4.298525
     46          1           0       -5.529336   -4.166087    0.052433
     47          1           0       -4.906404    0.171298    4.551127
     48          1           0       -4.950799    4.815058   -2.482534
     49          1           0       -5.061529    2.777300   -4.427459
     50          1           0       -7.085912    3.896333   -2.526007
     51          1           0       -7.347071    2.188230   -2.995524
     52          1           0       -7.303418    3.392311   -4.252054
     53          1           0       -2.803116    3.068136   -3.701973
     54          1           0       -2.318570    4.210721   -2.385846
     55          1           0       -3.808214    5.654553   -4.330918
     56          1           0       -2.958028    4.463364   -5.239820
     57          1           0       -5.403709   -1.413043   -5.464076
     58          1           0       -6.030733   -3.001498   -5.241219
     59          1           0       -4.268980   -2.813657   -5.436821
     60          1           0       -5.441188   -5.077329   -4.641094
     61          1           0       -4.459976   -6.448043   -3.875037
     62          1           0       -3.720636   -4.911560   -4.399941
     63          1           0       -5.054583   -4.231136    2.556599
     64          1           0       -6.267899   -2.134599    4.288761
     65          1           0       -7.155478   -5.016464    2.830259
     66          1           0       -7.729169   -3.646929    1.818337
     67          1           0       -7.700155   -3.488006    3.497883
     68          1           0       -4.582783   -3.831361    5.094800
     69          1           0       -4.264504   -2.174534    5.596268
     70          1           0       -2.989021   -3.902678    3.613001
     71          1           0       -2.188925   -2.860109    4.837577
     72          1           0       -2.863364   -2.180928    3.288851
     73          1           0       -3.792304    3.593695    5.213017
     74          1           0       -4.592118    2.013994    5.535367
     75          1           0       -5.587737    3.399202    4.922582
     76          1           0       -4.953399    5.499815    0.301488
     77          1           0       -2.202368    8.601073   -0.895811
     78          1           0       -2.071923    7.396264   -2.313961
     79          1           0       -1.099690    7.333700   -0.831875
     80         12           0        4.311051   -1.512556    0.205969
     81          6           0        5.339952    1.923235    0.331570
     82          6           0        4.187723   -1.196124   -3.188035
     83          6           0        2.974981   -4.387957    0.085862
     84          6           0        3.422502   -1.224682    3.563543
     85          7           0        4.732680    0.193319   -1.137326
     86          6           0        5.175894    1.431552   -0.980208
     87          6           0        5.535824    2.158652   -2.303593
     88          6           0        4.604866    1.313968   -3.302941
     89          6           0        4.526821    0.006289   -2.517724
     90          6           0        3.199224    1.876010   -3.435644
     91          6           0        7.054113    2.012957   -2.671809
     92          6           0        7.539836    2.949754   -3.780061
     93          1           0        8.896874    3.482547   -3.696012
     94          7           0        4.137017   -2.785665   -1.306477
     95          6           0        4.129378   -2.489055   -2.623003
     96          6           0        3.956310   -3.771181   -3.323266
     97          6           0        3.697258   -4.828589   -2.308629
     98          6           0        3.569597   -4.020529   -1.112465
     99          6           0        4.120997   -3.915968   -4.808303
    100          6           0        3.570966   -6.319086   -2.401817
    101          8           0        3.108150   -7.017574   -1.431899
    102          6           0        3.917258   -6.926782   -3.694980
    103          7           0        3.145081   -2.582949    1.553971
    104          6           0        2.738152   -3.833755    1.275021
    105          6           0        2.152112   -4.501773    2.495958
    106          6           0        2.472274   -3.520791    3.717738
    107          6           0        3.138956   -2.362205    2.944029
    108          6           0        0.649695   -4.778608    2.446130
    109          6           0        3.227106   -4.130476    4.930669
    110          6           0        4.636375   -4.501159    4.528248
    111          7           0        4.527395   -0.016158    1.749361
    112          6           0        4.060131   -0.089370    3.079918
    113          6           0        4.343074    1.215021    3.713111
    114          6           0        4.939250    1.970427    2.692122
    115          6           0        5.003657    1.198654    1.500600
    116          6           0        4.009100    1.581986    5.047249
    117          6           0        5.519065    3.248855    2.348419
    118          8           0        5.812069    4.266414    2.974877
    119          6           0        5.689338    3.318451    0.769631
    120          6           0        7.076559    3.819010    0.473693
    121          8           0        8.072256    3.139211    0.778745
    122          8           0        6.993677    4.908942   -0.310885
    123          6           0        8.344754    5.435736   -0.640900
    124          1           0        3.897394   -1.140894   -4.237575
    125          1           0        2.597293   -5.412092    0.130285
    126          1           0        3.264892   -1.088807    4.635631
    127          1           0        5.261121    3.206163   -2.335600
    128          1           0        5.094884    1.155336   -4.260061
    129          1           0        3.021749    2.685066   -2.742768
    130          1           0        2.531385    1.049439   -3.231196
    131          1           0        3.006930    2.169724   -4.471545
    132          1           0        7.212213    1.043839   -3.162266
    133          1           0        7.670279    2.132308   -1.801901
    134          1           0        6.822895    3.754557   -3.983143
    135          1           0        7.583309    2.387107   -4.715766
    136          1           0        4.145653   -2.939393   -5.307395
    137          1           0        3.209343   -4.391236   -5.186293
    138          1           0        4.979871   -4.533985   -5.078581
    139          1           0        3.286903   -6.503361   -4.473334
    140          1           0        3.850191   -8.005148   -3.538418
    141          1           0        4.949371   -6.655721   -3.943721
    142          1           0        2.627022   -5.457805    2.679139
    143          1           0        1.553573   -3.112851    4.164284
    144          1           0        0.397232   -5.845360    2.595753
    145          1           0        0.269227   -4.427428    1.496155
    146          1           0        0.051861   -4.212106    3.158085
    147          1           0        2.742592   -5.055722    5.252097
    148          1           0        3.265400   -3.471163    5.791375
    149          1           0        4.510303   -5.484576    4.065549
    150          1           0        5.282415   -4.556013    5.402117
    151          1           0        5.017524   -3.820816    3.757854
    152          1           0        4.868526    2.099567    5.452197
    153          1           0        3.749858    0.711330    5.646019
    154          1           0        3.144521    2.225001    4.862037
    155          1           0        4.920992    3.991143    0.386606
    156          1           0        8.362368    6.485648   -0.332610
    157          1           0        8.493439    5.224008   -1.716455
    158          1           0        9.186831    5.038344   -0.086433
 ---------------------------------------------------------------------

 SCF Done:  E(RCAM-B3LYP) =  -4069.81145151     A.U. after   19 cycles

 Excitation energies and oscillator strengths:

 Excited State   1:      Singlet-A      1.6477 eV  752.46 nm  f=0.0016  <S**2>=0.000
     309 -> 315       -0.11318
     310 -> 316        0.12248
     311 -> 313       -0.46477
     312 -> 314        0.50686
 This state for optimization and/or second-order correction.
 Total Energy, E(TD-HF/TD-DFT) =  -4069.75089937
 Copying the excited state density for this state as the 1-particle RhoCI density.

 Excited State   2:      Singlet-A      1.7046 eV  727.35 nm  f=0.6972  <S**2>=0.000
     309 -> 315        0.13424
     310 -> 316        0.12215
     311 -> 313        0.50423
     312 -> 314        0.46239

 Excited State   3:      Singlet-A      2.1805 eV  568.60 nm  f=0.0180  <S**2>=0.000
     309 -> 313       -0.31238
     310 -> 314        0.56449
     311 -> 315        0.12888
     312 -> 316       -0.23478

 Excited State   4:      Singlet-A      2.1965 eV  564.48 nm  f=0.1569  <S**2>=0.000
     309 -> 313        0.55954
     310 -> 314        0.30762
     311 -> 315       -0.24687
     312 -> 316       -0.13754

 Excited State   5:      Singlet-A      2.3580 eV  525.81 nm  f=0.0000  <S**2>=0.000
     312 -> 313        0.70705

 The electronic state is 1-A.
 Alpha  occ. eigenvalues --  -46.87871 -46.87435 -19.26329 -19.26135 -19.19065
 Alpha  occ. eigenvalues --  -19.18941 -19.18841 -19.18529 -19.18207 -19.17775
 Alpha  occ. eigenvalues --  -14.42530 -14.42275 -14.41532 -14.41136 -14.39472
 Alpha  occ. eigenvalues --  -14.39133 -14.38656 -14.38360 -10.39126 -10.38863
 Alpha  occ. eigenvalues --  -10.35474 -10.35212 -10.34430 -10.33949 -10.31720
 Alpha  occ. eigenvalues --  -10.31576 -10.31488 -10.31075 -10.30988 -10.30814
 Alpha  occ. eigenvalues --  -10.30646 -10.30574 -10.30293 -10.30161 -10.30124
 Alpha  occ. eigenvalues --  -10.29999 -10.29944 -10.29697 -10.29654 -10.29324
 Alpha  occ. eigenvalues --  -10.29227 -10.29174 -10.28855 -10.28706 -10.28526
 Alpha  occ. eigenvalues --  -10.28516 -10.28430 -10.28217 -10.28173 -10.27936
 Alpha  occ. eigenvalues --  -10.27854 -10.27810 -10.27766 -10.27649 -10.27624
 Alpha  occ. eigenvalues --  -10.27574 -10.27547 -10.27476 -10.27461 -10.27350
 Alpha  occ. eigenvalues --  -10.27335 -10.27252 -10.27251 -10.27210 -10.27161
 Alpha  occ. eigenvalues --  -10.26851 -10.26766 -10.26528 -10.26431 -10.26377
 Alpha  occ. eigenvalues --  -10.26321 -10.26293 -10.26107 -10.25996 -10.25896
 Alpha  occ. eigenvalues --  -10.25793 -10.25719 -10.25551 -10.25510 -10.25138
 Alpha  occ. eigenvalues --  -10.24968 -10.24891 -10.24859 -10.24623 -10.24589
 Alpha  occ. eigenvalues --  -10.24458  -3.16613  -3.16185  -1.91495  -1.91082
 Alpha  occ. eigenvalues --   -1.91067  -1.90923  -1.90656  -1.90492  -1.16678
 Alpha  occ. eigenvalues --   -1.16427  -1.08663  -1.08377  -1.07237  -1.06784
 Alpha  occ. eigenvalues --   -1.06724  -1.06687  -1.04660  -1.04271  -1.03840
 Alpha  occ. eigenvalues --   -1.03439  -1.03305  -1.02812  -1.02485  -1.01881
 Alpha  occ. eigenvalues --   -0.92039  -0.91743  -0.89633  -0.89291  -0.89289
 Alpha  occ. eigenvalues --   -0.88948  -0.88393  -0.88013  -0.87933  -0.87762
 Alpha  occ. eigenvalues --   -0.87538  -0.87470  -0.87337  -0.86940  -0.85080
 Alpha  occ. eigenvalues --   -0.84799  -0.84060  -0.83671  -0.83034  -0.82765
 Alpha  occ. eigenvalues --   -0.82733  -0.82457  -0.81653  -0.81378  -0.80667
 Alpha  occ. eigenvalues --   -0.80230  -0.78866  -0.78431  -0.77321  -0.77034
 Alpha  occ. eigenvalues --   -0.76943  -0.76694  -0.76003  -0.75625  -0.74993
 Alpha  occ. eigenvalues --   -0.74581  -0.72853  -0.72471  -0.71751  -0.71354
 Alpha  occ. eigenvalues --   -0.70061  -0.69573  -0.68964  -0.68627  -0.67710
 Alpha  occ. eigenvalues --   -0.67383  -0.67317  -0.67021  -0.65383  -0.65063
 Alpha  occ. eigenvalues --   -0.64933  -0.64711  -0.64554  -0.64445  -0.64373
 Alpha  occ. eigenvalues --   -0.63998  -0.62362  -0.62064  -0.60513  -0.60143
 Alpha  occ. eigenvalues --   -0.59893  -0.59583  -0.59066  -0.58769  -0.58579
 Alpha  occ. eigenvalues --   -0.58203  -0.57642  -0.57387  -0.57301  -0.57021
 Alpha  occ. eigenvalues --   -0.56379  -0.56044  -0.55989  -0.55683  -0.55585
 Alpha  occ. eigenvalues --   -0.55436  -0.55253  -0.55034  -0.54614  -0.54282
 Alpha  occ. eigenvalues --   -0.53996  -0.53714  -0.53375  -0.53297  -0.53024
 Alpha  occ. eigenvalues --   -0.52997  -0.52939  -0.52830  -0.52699  -0.52592
 Alpha  occ. eigenvalues --   -0.52504  -0.52229  -0.51974  -0.51704  -0.51604
 Alpha  occ. eigenvalues --   -0.51469  -0.51279  -0.50978  -0.50642  -0.50324
 Alpha  occ. eigenvalues --   -0.50156  -0.49989  -0.49786  -0.49667  -0.49588
 Alpha  occ. eigenvalues --   -0.49295  -0.49280  -0.49181  -0.48987  -0.48876
 Alpha  occ. eigenvalues --   -0.48664  -0.48542  -0.48492  -0.48337  -0.48161
 Alpha  occ. eigenvalues --   -0.48138  -0.47781  -0.47402  -0.47370  -0.46936
 Alpha  occ. eigenvalues --   -0.46887  -0.46652  -0.46504  -0.46444  -0.46361
 Alpha  occ. eigenvalues --   -0.46238  -0.46061  -0.45889  -0.45847  -0.45584
 Alpha  occ. eigenvalues --   -0.45297  -0.44982  -0.44645  -0.44602  -0.44305
 Alpha  occ. eigenvalues --   -0.44265  -0.44251  -0.44175  -0.44079  -0.43916
 Alpha  occ. eigenvalues --   -0.43883  -0.43731  -0.43565  -0.43478  -0.43341
 Alpha  occ. eigenvalues --   -0.43171  -0.43107  -0.42813  -0.42733  -0.42717
 Alpha  occ. eigenvalues --   -0.42669  -0.42360  -0.42129  -0.41780  -0.41770
 Alpha  occ. eigenvalues --   -0.41637  -0.41432  -0.41266  -0.41221  -0.40986
 Alpha  occ. eigenvalues --   -0.40878  -0.40768  -0.40679  -0.40546  -0.40513
 Alpha  occ. eigenvalues --   -0.40353  -0.40288  -0.40055  -0.39609  -0.39246
 Alpha  occ. eigenvalues --   -0.38580  -0.38143  -0.37866  -0.37473  -0.37421
 Alpha  occ. eigenvalues --   -0.37355  -0.37057  -0.36991  -0.36779  -0.36558
 Alpha  occ. eigenvalues --   -0.36274  -0.36006  -0.34361  -0.34026  -0.33820
 Alpha  occ. eigenvalues --   -0.33639  -0.33259  -0.32951  -0.31373  -0.31108
 Alpha  occ. eigenvalues --   -0.31086  -0.30747  -0.30068  -0.29678  -0.29508
 Alpha  occ. eigenvalues --   -0.29381  -0.29115  -0.28956  -0.24156  -0.23805
 Alpha  occ. eigenvalues --   -0.21205  -0.20893
 Alpha virt. eigenvalues --   -0.08842  -0.08565  -0.01824  -0.01467  -0.00112
 Alpha virt. eigenvalues --    0.00177   0.02143   0.02454   0.02871   0.03502
 Alpha virt. eigenvalues --    0.04619   0.04949   0.05049   0.05394   0.06048

 Mulliken charges:
               1
     1  Mg   0.838907
     2  C   -0.002902
     3  C   -0.094742
     4  C   -0.045511
     5  C   -0.064224
     6  N   -0.256662
     7  C   -0.052753
     8  C   -0.013863
     9  C   -0.086933
    10  C    0.046182
    11  C    0.104800
    12  C    0.053773
    13  C   -0.071363
    14  H    0.034934
    15  N   -0.433221
    16  C    0.168512
    17  C   -0.177450
    18  C   -0.003597
    19  C    0.148954
    20  C    0.110337
    21  C    0.013382
    22  O   -0.248681
    23  C    0.062343
    24  N   -0.340895
    25  C    0.040963
    26  C   -0.028703
    27  C   -0.024796
    28  C    0.074399
    29  C    0.076046
    30  C    0.042502
    31  C   -0.018175
    32  N   -0.310528
    33  C    0.080391
    34  C   -0.169777
    35  C    0.008686
    36  C    0.083126
    37  C    0.127257
    38  C    0.046487
    39  O   -0.187487
    40  C   -0.005563
    41  C    0.213208
    42  O   -0.257055
    43  O   -0.304855
    44  C    0.157365
    45  H   -0.017736
    46  H   -0.016402
    47  H   -0.041723
    48  H    0.001232
    49  H   -0.004608
    50  H    0.025717
    51  H    0.016640
    52  H    0.016614
    53  H    0.010167
    54  H    0.043929
    55  H    0.018566
    56  H    0.017274
    57  H    0.005425
    58  H    0.027096
    59  H    0.038702
    60  H    0.036850
    61  H    0.036770
    62  H    0.031047
    63  H    0.016906
    64  H    0.009959
    65  H    0.023592
    66  H    0.012824
    67  H    0.004854
    68  H    0.006358
    69  H    0.003912
    70  H    0.013886
    71  H    0.018873
    72  H    0.030707
    73  H    0.048083
    74  H    0.008684
    75  H    0.046269
    76  H    0.035268
    77  H    0.043667
    78  H    0.045615
    79  H    0.054268
    80  Mg   0.838032
    81  C   -0.015924
    82  C   -0.088283
    83  C   -0.045807
    84  C   -0.064335
    85  N   -0.254514
    86  C   -0.048564
    87  C   -0.015133
    88  C   -0.090815
    89  C    0.046066
    90  C    0.114191
    91  C    0.062643
    92  C   -0.077379
    93  H    0.034290
    94  N   -0.423315
    95  C    0.162735
    96  C   -0.175922
    97  C   -0.008115
    98  C    0.151612
    99  C    0.100032
   100  C    0.015051
   101  O   -0.252993
   102  C    0.061504
   103  N   -0.349954
   104  C    0.037476
   105  C   -0.021288
   106  C   -0.034898
   107  C    0.089169
   108  C    0.073825
   109  C    0.034615
   110  C   -0.007202
   111  N   -0.324637
   112  C    0.079363
   113  C   -0.161629
   114  C    0.003927
   115  C    0.096431
   116  C    0.130651
   117  C    0.044235
   118  O   -0.186956
   119  C    0.000107
   120  C    0.210892
   121  O   -0.251641
   122  O   -0.305231
   123  C    0.152243
   124  H   -0.021358
   125  H   -0.015367
   126  H   -0.040822
   127  H   -0.000167
   128  H   -0.005577
   129  H    0.026382
   130  H    0.014150
   131  H    0.013624
   132  H    0.013560
   133  H    0.037665
   134  H    0.020500
   135  H    0.018918
   136  H    0.007807
   137  H    0.024074
   138  H    0.039177
   139  H    0.037051
   140  H    0.036043
   141  H    0.033592
   142  H    0.013831
   143  H    0.011952
   144  H    0.024760
   145  H    0.012624
   146  H    0.005704
   147  H    0.005484
   148  H    0.003083
   149  H    0.010825
   150  H    0.017457
   151  H    0.030339
   152  H    0.045509
   153  H    0.007272
   154  H    0.051028
   155  H    0.038383
   156  H    0.043753
   157  H    0.048873
   158  H    0.053223
 Sum of Mulliken charges =  -0.00000

 Dipole moment (field-independent basis, Debye):
    X=             -3.8279    Y=             -1.4710    Z=             -7.7368  Tot=              8.7564
 Quadrupole moment (field-independent basis, Debye-Ang):
   XX=           -513.8913   YY=           -551.9734   ZZ=           -447.7257
   XY=             -7.7135   XZ=            -19.3615   YZ=            -41.3169

 Normal termination of Gaussian 16 at Thu Sep  9 15:40:34 2021.
