 Gaussian 16, Revision A.03,
 Gaussian 16:  ES64L-G16RevA.03 25-Dec-2016

 -----------------------------------
 #p cam-b3lyp/Def2SVP td=(nstates=5)
 -----------------------------------

 --------------------------------
 TDDFT excited states in gaussian
 --------------------------------
 Symbolic Z-matrix:
 Charge =  0 Multiplicity = 1

                         Standard orientation:
 ---------------------------------------------------------------------
 Center     Atomic      Atomic             Coordinates (Angstroms)
 Number     Number       Type             X           Y           Z
 ---------------------------------------------------------------------
      1         12           0       -5.107778   -1.044162   -0.049222
      2          6           0       -5.506312    2.501490    0.236677
      3          6           0       -5.922416   -0.720121   -3.346862
      4          6           0       -5.206858   -4.209026   -0.223693
      5          6           0       -5.443737   -1.212859    3.415505
      6          7           0       -5.626013    0.719898   -1.282174
      7          6           0       -5.684640    2.030230   -1.065919
      8          6           0       -5.878691    2.863250   -2.368146
      9          6           0       -6.551293    1.745128   -3.284338
     10          6           0       -5.971930    0.507552   -2.622017
     11          6           0       -8.071543    1.697252   -3.170104
     12          6           0       -4.518239    3.353680   -2.968461
     13          6           0       -4.631754    4.437193   -4.044783
     14          1           0       -3.607609    5.468757   -4.110747
     15          7           0       -5.026088   -2.244071   -1.616511
     16          6           0       -5.381631   -1.940749   -2.888073
     17          6           0       -5.137510   -3.163945   -3.682350
     18          6           0       -4.790958   -4.259852   -2.735257
     19          6           0       -5.022682   -3.612996   -1.469058
     20          6           0       -5.194337   -3.198296   -5.178793
     21          6           0       -4.334982   -5.670046   -2.939142
     22          8           0       -4.313101   -6.522292   -1.986372
     23          6           0       -3.994100   -6.057084   -4.320099
     24          7           0       -5.516335   -2.531780    1.357087
     25          6           0       -5.434193   -3.827303    1.034819
     26          6           0       -5.488835   -4.698009    2.254993
     27          6           0       -5.381041   -3.712335    3.506624
     28          6           0       -5.364414   -2.364246    2.744621
     29          6           0       -6.743510   -5.570399    2.398999
     30          6           0       -4.252270   -3.995409    4.529446
     31          6           0       -2.905152   -3.744487    3.889597
     32          7           0       -5.242786    0.380446    1.582744
     33          6           0       -5.400897    0.089070    2.945379
     34          6           0       -5.550676    1.376725    3.647930
     35          6           0       -5.485464    2.333133    2.636557
     36          6           0       -5.332622    1.682762    1.378801
     37          6           0       -5.778730    1.543634    5.042408
     38          6           0       -5.534061    3.752037    2.323176
     39          8           0       -5.555783    4.787240    2.990541
     40          6           0       -5.671811    3.912145    0.744817
     41          6           0       -4.667160    4.941099    0.302956
     42          8           0       -3.442481    4.714669    0.382057
     43          8           0       -5.298425    5.923696   -0.357762
     44          6           0       -4.354876    6.963065   -0.849273
     45          1           0       -6.391627   -0.771113   -4.331332
     46          1           0       -5.136695   -5.298756   -0.225287
     47          1           0       -5.467835   -1.182806    4.506362
     48          1           0       -6.551021    3.715361   -2.266639
     49          1           0       -6.217459    1.812324   -4.319598
     50          1           0       -8.432526    2.354501   -2.379133
     51          1           0       -8.313765    0.658979   -2.942485
     52          1           0       -8.539146    1.910130   -4.131774
     53          1           0       -4.075847    2.551321   -3.558860
     54          1           0       -3.850062    3.698696   -2.178633
     55          1           0       -5.625980    4.884725   -4.056516
     56          1           0       -4.537728    3.960494   -5.020548
     57          1           0       -5.634559   -2.287982   -5.583857
     58          1           0       -5.896976   -3.985028   -5.452764
     59          1           0       -4.219997   -3.404962   -5.621831
     60          1           0       -4.864416   -5.910625   -4.960138
     61          1           0       -3.604028   -7.072519   -4.260207
     62          1           0       -3.221510   -5.384962   -4.694672
     63          1           0       -4.651916   -5.394825    2.275958
     64          1           0       -6.290752   -3.713304    4.107539
     65          1           0       -6.528390   -6.635562    2.487632
     66          1           0       -7.391657   -5.372004    1.545866
     67          1           0       -7.393320   -5.302602    3.231735
     68          1           0       -4.271946   -5.040606    4.836238
     69          1           0       -4.323630   -3.384251    5.429249
     70          1           0       -2.705740   -4.679558    3.367383
     71          1           0       -2.150416   -3.555400    4.653686
     72          1           0       -2.962014   -2.957095    3.137755
     73          1           0       -5.130178    2.359205    5.362083
     74          1           0       -5.562801    0.627353    5.591414
     75          1           0       -6.839978    1.791830    5.045175
     76          1           0       -6.695713    4.229705    0.550131
     77          1           0       -4.696003    7.919498   -0.452910
     78          1           0       -4.308437    6.851968   -1.932742
     79          1           0       -3.341849    6.923277   -0.447363
     80         12           0        5.465555   -0.476900    0.199453
     81          6           0        4.455666    2.962705    0.367895
     82          6           0        5.264837   -0.214306   -3.195446
     83          6           0        5.912708   -3.613563    0.029803
     84          6           0        4.489577   -0.782234    3.531108
     85          7           0        4.920348    1.208928   -1.124557
     86          6           0        4.614647    2.485805   -0.949955
     87          6           0        4.549981    3.316592   -2.259596
     88          6           0        4.251052    2.120488   -3.288613
     89          6           0        4.879992    0.966171   -2.511011
     90          6           0        2.769276    1.829921   -3.459596
     91          6           0        5.910688    4.027199   -2.584462
     92          6           0        5.832630    5.098265   -3.674636
     93          1           0        6.678853    6.281786   -3.549466
     94          7           0        6.045895   -1.610962   -1.322279
     95          6           0        5.907122   -1.341377   -2.637327
     96          6           0        6.475255   -2.497864   -3.347223
     97          6           0        6.811109   -3.545035   -2.344563
     98          6           0        6.237849   -2.959212   -1.149461
     99          6           0        6.724954   -2.501647   -4.827448
    100          6           0        7.518478   -4.862353   -2.447094
    101          8           0        7.489095   -5.718421   -1.493622
    102          6           0        8.168183   -5.159332   -3.732073
    103          7           0        5.040538   -2.034577    1.509155
    104          6           0        5.386213   -3.299961    1.213770
    105          6           0        5.231362   -4.202239    2.414721
    106          6           0        4.938976   -3.228246    3.648997
    107          6           0        4.884574   -1.879033    2.899299
    108          6           0        4.123166   -5.250769    2.320552
    109          6           0        5.877047   -3.352070    4.880813
    110          6           0        7.269528   -2.888866    4.517744
    111          7           0        4.798475    0.866925    1.754184
    112          6           0        4.417081    0.526164    3.070441
    113          6           0        3.930464    1.762356    3.716545
    114          6           0        4.041817    2.739673    2.716086
    115          6           0        4.542196    2.149804    1.523955
    116          6           0        3.421195    1.863304    5.041913
    117          6           0        3.839860    4.134047    2.394167
    118          8           0        3.517935    5.135223    3.032725
    119          6           0        3.979641    4.314921    0.821219
    120          6           0        4.877096    5.495011    0.567309
    121          8           0        6.075364    5.460571    0.898313
    122          8           0        4.231700    6.379127   -0.215120
    123          6           0        5.085324    7.562209   -0.504027
    124          1           0        5.014471   -0.306053   -4.252700
    125          1           0        6.152386   -4.679002    0.059371
    126          1           0        4.259786   -0.774264    4.598727
    127          1           0        3.750200    4.046544   -2.295476
    128          1           0        4.769461    2.272069   -4.231823
    129          1           0        2.164807    2.398990   -2.769008
    130          1           0        2.654566    0.769359   -3.277677
    131          1           0        2.471029    1.991315   -4.499473
    132          1           0        6.581555    3.309480   -3.073902
    133          1           0        6.343254    4.446036   -1.696712
    134          1           0        4.797849    5.387287   -3.895192
    135          1           0        6.195975    4.667601   -4.610867
    136          1           0        6.225136   -1.659543   -5.321856
    137          1           0        6.227439   -3.389096   -5.233382
    138          1           0        7.787557   -2.547807   -5.075239
    139          1           0        7.426278   -5.132274   -4.526628
    140          1           0        8.695388   -6.103415   -3.581671
    141          1           0        8.891706   -4.365815   -3.949920
    142          1           0        6.145926   -4.749405    2.607830
    143          1           0        3.936638   -3.394198    4.070457
    144          1           0        4.488731   -6.285826    2.458729
    145          1           0        3.633939   -5.145142    1.361368
    146          1           0        3.297768   -5.114189    3.017166
    147          1           0        5.967184   -4.397901    5.184577
    148          1           0        5.531312   -2.794430    5.744808
    149          1           0        7.709243   -3.773684    4.047818
    150          1           0        7.821872   -2.600007    5.409666
    151          1           0        7.235893   -2.096222    3.761290
    152          1           0        3.851297    2.757329    5.473455
    153          1           0        3.664432    0.980559    5.629600
    154          1           0        2.350263    1.935948    4.834336
    155          1           0        2.977621    4.468560    0.418810
    156          1           0        4.521861    8.446745   -0.191309
    157          1           0        5.348995    7.485816   -1.575658
    158          1           0        5.995547    7.676395    0.072944
 ---------------------------------------------------------------------

 SCF Done:  E(RCAM-B3LYP) =  -4069.81118622     A.U. after   19 cycles

 Excitation energies and oscillator strengths:

 Excited State   1:      Singlet-A      1.6566 eV  748.44 nm  f=0.0163  <S**2>=0.000
     309 -> 315       -0.11434
     310 -> 316        0.12450
     311 -> 313       -0.46310
     312 -> 314        0.50766
 This state for optimization and/or second-order correction.
 Total Energy, E(TD-HF/TD-DFT) =  -4069.75030847
 Copying the excited state density for this state as the 1-particle RhoCI density.

 Excited State   2:      Singlet-A      1.6977 eV  730.31 nm  f=0.7053  <S**2>=0.000
     309 -> 315        0.13308
     310 -> 316        0.12055
     311 -> 313        0.50572
     312 -> 314        0.46143

 Excited State   3:      Singlet-A      2.1830 eV  567.96 nm  f=0.0182  <S**2>=0.000
     309 -> 313        0.29345
     310 -> 314        0.57311
     311 -> 315       -0.12268
     312 -> 316       -0.24115

 Excited State   4:      Singlet-A      2.1948 eV  564.90 nm  f=0.1623  <S**2>=0.000
     309 -> 313        0.56949
     310 -> 314       -0.29021
     311 -> 315       -0.25008
     312 -> 316        0.12829

 Excited State   5:      Singlet-A      2.4887 eV  498.18 nm  f=0.0000  <S**2>=0.000
     312 -> 313        0.70708

 The electronic state is 1-A.
 Alpha  occ. eigenvalues --  -46.87831 -46.87469 -19.26246 -19.26121 -19.18977
 Alpha  occ. eigenvalues --  -19.18934 -19.18848 -19.18555 -19.18150 -19.17769
 Alpha  occ. eigenvalues --  -14.42488 -14.42311 -14.41484 -14.41169 -14.39437
 Alpha  occ. eigenvalues --  -14.39162 -14.38613 -14.38394 -10.39043 -10.38857
 Alpha  occ. eigenvalues --  -10.35483 -10.35236 -10.34371 -10.33944 -10.31631
 Alpha  occ. eigenvalues --  -10.31564 -10.31437 -10.31107 -10.30950 -10.30841
 Alpha  occ. eigenvalues --  -10.30596 -10.30533 -10.30250 -10.30194 -10.30151
 Alpha  occ. eigenvalues --  -10.29977 -10.29948 -10.29694 -10.29657 -10.29290
 Alpha  occ. eigenvalues --  -10.29258 -10.29200 -10.28805 -10.28642 -10.28543
 Alpha  occ. eigenvalues --  -10.28539 -10.28392 -10.28199 -10.28168 -10.27973
 Alpha  occ. eigenvalues --  -10.27813 -10.27790 -10.27766 -10.27615 -10.27548
 Alpha  occ. eigenvalues --  -10.27544 -10.27490 -10.27489 -10.27431 -10.27368
 Alpha  occ. eigenvalues --  -10.27340 -10.27281 -10.27274 -10.27212 -10.27151
 Alpha  occ. eigenvalues --  -10.26793 -10.26763 -10.26546 -10.26458 -10.26297
 Alpha  occ. eigenvalues --  -10.26277 -10.26250 -10.26055 -10.26010 -10.25857
 Alpha  occ. eigenvalues --  -10.25834 -10.25751 -10.25588 -10.25468 -10.25234
 Alpha  occ. eigenvalues --  -10.24848 -10.24818 -10.24776 -10.24650 -10.24605
 Alpha  occ. eigenvalues --  -10.24496  -3.16574  -3.16219  -1.91455  -1.91101
 Alpha  occ. eigenvalues --   -1.91042  -1.90884  -1.90690  -1.90526  -1.16594
 Alpha  occ. eigenvalues --   -1.16415  -1.08602  -1.08367  -1.07249  -1.06810
 Alpha  occ. eigenvalues --   -1.06716  -1.06601  -1.04617  -1.04304  -1.03795
 Alpha  occ. eigenvalues --   -1.03472  -1.03264  -1.02845  -1.02442  -1.01914
 Alpha  occ. eigenvalues --   -0.91990  -0.91765  -0.89560  -0.89316  -0.89241
 Alpha  occ. eigenvalues --   -0.88981  -0.88328  -0.88051  -0.87884  -0.87715
 Alpha  occ. eigenvalues --   -0.87569  -0.87501  -0.87313  -0.86955  -0.85032
 Alpha  occ. eigenvalues --   -0.84829  -0.83977  -0.83707  -0.83011  -0.82781
 Alpha  occ. eigenvalues --   -0.82688  -0.82481  -0.81589  -0.81390  -0.80618
 Alpha  occ. eigenvalues --   -0.80249  -0.78831  -0.78451  -0.77261  -0.76971
 Alpha  occ. eigenvalues --   -0.76970  -0.76720  -0.75947  -0.75647  -0.74930
 Alpha  occ. eigenvalues --   -0.74625  -0.72803  -0.72501  -0.71703  -0.71392
 Alpha  occ. eigenvalues --   -0.69960  -0.69604  -0.68917  -0.68654  -0.67668
 Alpha  occ. eigenvalues --   -0.67408  -0.67279  -0.67041  -0.65329  -0.65088
 Alpha  occ. eigenvalues --   -0.64877  -0.64650  -0.64581  -0.64466  -0.64308
 Alpha  occ. eigenvalues --   -0.64029  -0.62292  -0.62071  -0.60480  -0.60167
 Alpha  occ. eigenvalues --   -0.59847  -0.59613  -0.59015  -0.58798  -0.58527
 Alpha  occ. eigenvalues --   -0.58225  -0.57580  -0.57332  -0.57308  -0.57044
 Alpha  occ. eigenvalues --   -0.56335  -0.56010  -0.55977  -0.55689  -0.55550
 Alpha  occ. eigenvalues --   -0.55361  -0.55270  -0.55059  -0.54534  -0.54299
 Alpha  occ. eigenvalues --   -0.53946  -0.53743  -0.53330  -0.53259  -0.53046
 Alpha  occ. eigenvalues --   -0.52960  -0.52930  -0.52802  -0.52716  -0.52518
 Alpha  occ. eigenvalues --   -0.52489  -0.52248  -0.51917  -0.51662  -0.51639
 Alpha  occ. eigenvalues --   -0.51491  -0.51216  -0.50994  -0.50624  -0.50334
 Alpha  occ. eigenvalues --   -0.50081  -0.49960  -0.49816  -0.49702  -0.49553
 Alpha  occ. eigenvalues --   -0.49318  -0.49233  -0.49131  -0.49007  -0.48903
 Alpha  occ. eigenvalues --   -0.48606  -0.48495  -0.48459  -0.48359  -0.48198
 Alpha  occ. eigenvalues --   -0.48152  -0.47731  -0.47421  -0.47327  -0.46948
 Alpha  occ. eigenvalues --   -0.46835  -0.46604  -0.46531  -0.46389  -0.46388
 Alpha  occ. eigenvalues --   -0.46179  -0.46088  -0.45883  -0.45825  -0.45605
 Alpha  occ. eigenvalues --   -0.45238  -0.45031  -0.44586  -0.44556  -0.44329
 Alpha  occ. eigenvalues --   -0.44288  -0.44184  -0.44134  -0.44033  -0.43942
 Alpha  occ. eigenvalues --   -0.43906  -0.43744  -0.43498  -0.43428  -0.43358
 Alpha  occ. eigenvalues --   -0.43198  -0.43052  -0.42730  -0.42728  -0.42682
 Alpha  occ. eigenvalues --   -0.42649  -0.42389  -0.42052  -0.41796  -0.41724
 Alpha  occ. eigenvalues --   -0.41586  -0.41447  -0.41292  -0.41174  -0.40922
 Alpha  occ. eigenvalues --   -0.40870  -0.40804  -0.40613  -0.40568  -0.40540
 Alpha  occ. eigenvalues --   -0.40322  -0.40308  -0.40077  -0.39502  -0.39277
 Alpha  occ. eigenvalues --   -0.38516  -0.38187  -0.37812  -0.37497  -0.37362
 Alpha  occ. eigenvalues --   -0.37309  -0.37092  -0.37019  -0.36704  -0.36562
 Alpha  occ. eigenvalues --   -0.36205  -0.36032  -0.34316  -0.34057  -0.33741
 Alpha  occ. eigenvalues --   -0.33640  -0.33211  -0.32981  -0.31378  -0.31113
 Alpha  occ. eigenvalues --   -0.31065  -0.30778  -0.30009  -0.29671  -0.29478
 Alpha  occ. eigenvalues --   -0.29338  -0.29138  -0.28984  -0.24112  -0.23837
 Alpha  occ. eigenvalues --   -0.21160  -0.20925
 Alpha virt. eigenvalues --   -0.08803  -0.08592  -0.01785  -0.01498  -0.00089
 Alpha virt. eigenvalues --    0.00155   0.02193   0.02446   0.03069   0.03407
 Alpha virt. eigenvalues --    0.04669   0.04906   0.05128   0.05399   0.06109

 Mulliken charges:
               1
     1  Mg   0.838534
     2  C   -0.002926
     3  C   -0.094626
     4  C   -0.045814
     5  C   -0.064063
     6  N   -0.256670
     7  C   -0.052677
     8  C   -0.013831
     9  C   -0.086896
    10  C    0.046035
    11  C    0.104814
    12  C    0.053672
    13  C   -0.071415
    14  H    0.035313
    15  N   -0.433102
    16  C    0.168165
    17  C   -0.177538
    18  C   -0.004085
    19  C    0.148615
    20  C    0.110284
    21  C    0.012308
    22  O   -0.249478
    23  C    0.062571
    24  N   -0.341102
    25  C    0.041112
    26  C   -0.028206
    27  C   -0.023953
    28  C    0.074842
    29  C    0.076132
    30  C    0.035146
    31  C   -0.004426
    32  N   -0.310616
    33  C    0.080558
    34  C   -0.169383
    35  C    0.008888
    36  C    0.083140
    37  C    0.127100
    38  C    0.046877
    39  O   -0.187013
    40  C   -0.005645
    41  C    0.213268
    42  O   -0.256430
    43  O   -0.305074
    44  C    0.157135
    45  H   -0.017815
    46  H   -0.016825
    47  H   -0.041400
    48  H    0.001261
    49  H   -0.004578
    50  H    0.025679
    51  H    0.016556
    52  H    0.016534
    53  H    0.010171
    54  H    0.044131
    55  H    0.018424
    56  H    0.017261
    57  H    0.005544
    58  H    0.026888
    59  H    0.038684
    60  H    0.037259
    61  H    0.035858
    62  H    0.030927
    63  H    0.016443
    64  H    0.009651
    65  H    0.023248
    66  H    0.012637
    67  H    0.004815
    68  H    0.006343
    69  H    0.004800
    70  H    0.008734
    71  H    0.016914
    72  H    0.029429
    73  H    0.048648
    74  H    0.008909
    75  H    0.046149
    76  H    0.035157
    77  H    0.043484
    78  H    0.045421
    79  H    0.055120
    80  Mg   0.837674
    81  C   -0.016221
    82  C   -0.088087
    83  C   -0.045629
    84  C   -0.065024
    85  N   -0.254425
    86  C   -0.049278
    87  C   -0.015107
    88  C   -0.090671
    89  C    0.045710
    90  C    0.114027
    91  C    0.062647
    92  C   -0.077417
    93  H    0.034407
    94  N   -0.423354
    95  C    0.162601
    96  C   -0.175324
    97  C   -0.008180
    98  C    0.151816
    99  C    0.099696
   100  C    0.015216
   101  O   -0.253559
   102  C    0.061375
   103  N   -0.349998
   104  C    0.037323
   105  C   -0.019710
   106  C   -0.034739
   107  C    0.089251
   108  C    0.073753
   109  C    0.034793
   110  C   -0.007570
   111  N   -0.324479
   112  C    0.078965
   113  C   -0.162553
   114  C    0.003788
   115  C    0.095896
   116  C    0.131047
   117  C    0.044608
   118  O   -0.185783
   119  C   -0.000055
   120  C    0.210953
   121  O   -0.251755
   122  O   -0.304942
   123  C    0.152272
   124  H   -0.020886
   125  H   -0.015953
   126  H   -0.040695
   127  H    0.000217
   128  H   -0.005285
   129  H    0.025324
   130  H    0.013887
   131  H    0.014169
   132  H    0.013592
   133  H    0.037785
   134  H    0.020480
   135  H    0.018942
   136  H    0.007993
   137  H    0.025149
   138  H    0.039210
   139  H    0.037770
   140  H    0.035929
   141  H    0.033642
   142  H    0.014000
   143  H    0.012039
   144  H    0.024743
   145  H    0.012233
   146  H    0.005297
   147  H    0.005825
   148  H    0.003404
   149  H    0.010781
   150  H    0.017626
   151  H    0.030346
   152  H    0.045997
   153  H    0.007407
   154  H    0.049908
   155  H    0.039404
   156  H    0.043911
   157  H    0.048645
   158  H    0.053206
 Sum of Mulliken charges =  -0.00000

 Dipole moment (field-independent basis, Debye):
    X=             -2.9049    Y=             -2.2779    Z=             -7.7864  Tot=              8.6172
 Quadrupole moment (field-independent basis, Debye-Ang):
   XX=           -508.6366   YY=           -548.8270   ZZ=           -450.9116
   XY=              5.2633   XZ=             -2.3608   YZ=            -50.4310

 Normal termination of Gaussian 16 at Fri Sep 10 22:30:18 2021.
