 Gaussian 16, Revision A.03,
 Gaussian 16:  ES64L-G16RevA.03 25-Dec-2016

 -----------------------------------
 #p cam-b3lyp/Def2SVP td=(nstates=5)
 -----------------------------------

 --------------------------------
 TDDFT excited states in gaussian
 --------------------------------
 Symbolic Z-matrix:
 Charge =  0 Multiplicity = 1

                         Standard orientation:
 ---------------------------------------------------------------------
 Center     Atomic      Atomic             Coordinates (Angstroms)
 Number     Number       Type             X           Y           Z
 ---------------------------------------------------------------------
      1         12           0       -6.594650   -0.585175    0.075278
      2          6           0       -6.691057    2.987886    0.265417
      3          6           0       -7.456406   -0.284905   -3.212621
      4          6           0       -6.959836   -3.734292   -0.004224
      5          6           0       -6.862434   -0.629992    3.549749
      6          7           0       -6.993494    1.181481   -1.197709
      7          6           0       -6.938214    2.497573   -1.018776
      8          6           0       -7.092890    3.307810   -2.340503
      9          6           0       -7.877091    2.225046   -3.209208
     10          6           0       -7.387021    0.962056   -2.523197
     11          6           0       -9.392993    2.307496   -3.061741
     12          6           0       -5.710851    3.666200   -2.983355
     13          6           0       -5.759246    4.725436   -4.088357
     14          1           0       -4.654921    5.665634   -4.206011
     15          7           0       -6.649350   -1.830307   -1.457531
     16          6           0       -7.008119   -1.533381   -2.729697
     17          6           0       -6.884869   -2.794048   -3.492724
     18          6           0       -6.608348   -3.888647   -2.521393
     19          6           0       -6.756010   -3.190163   -1.270116
     20          6           0       -6.979280   -2.864619   -4.985994
     21          6           0       -6.275748   -5.337071   -2.693376
     22          8           0       -6.302358   -6.161675   -1.716701
     23          6           0       -6.000472   -5.789016   -4.069243
     24          7           0       -7.092185   -1.994274    1.532856
     25          6           0       -7.125287   -3.300492    1.247051
     26          6           0       -7.223420   -4.129747    2.493103
     27          6           0       -7.005075   -3.122520    3.712763
     28          6           0       -6.894535   -1.801971    2.911389
     29          6           0       -8.542399   -4.889985    2.688919
     30          6           0       -5.880083   -3.470703    4.719531
     31          6           0       -4.532109   -3.350866    4.044472
     32          7           0       -6.572930    0.890014    1.667255
     33          6           0       -6.722789    0.650402    3.040864
     34          6           0       -6.748845    1.964877    3.708355
     35          6           0       -6.628199    2.884354    2.668234
     36          6           0       -6.559221    2.189189    1.427154
     37          6           0       -6.929648    2.188491    5.101819
     38          6           0       -6.566293    4.293213    2.314483
     39          8           0       -6.486519    5.344550    2.951523
     40          6           0       -6.727116    4.420858    0.735347
     41          6           0       -5.651208    5.349760    0.242527
     42          8           0       -4.448006    5.024070    0.302513
     43          8           0       -6.214089    6.363140   -0.433319
     44          6           0       -5.199352    7.306159   -0.974779
     45          1           0       -7.951091   -0.323541   -4.185110
     46          1           0       -6.980320   -4.825706    0.024656
     47          1           0       -6.858476   -0.568082    4.639521
     48          1           0       -7.689702    4.215575   -2.249932
     49          1           0       -7.563104    2.235660   -4.252770
     50          1           0       -9.679670    3.014080   -2.282975
     51          1           0       -9.715082    1.299733   -2.798750
     52          1           0       -9.863666    2.532200   -4.019212
     53          1           0       -5.350415    2.813776   -3.559133
     54          1           0       -4.998107    3.975752   -2.218176
     55          1           0       -6.712947    5.253970   -4.092337
     56          1           0       -5.727881    4.215929   -5.051487
     57          1           0       -7.351851   -1.932180   -5.408242
     58          1           0       -7.750933   -3.597129   -5.221979
     59          1           0       -6.036042   -3.164050   -5.443133
     60          1           0       -6.870358   -5.587997   -4.694894
     61          1           0       -5.694641   -6.831458   -3.987808
     62          1           0       -5.183776   -5.194328   -4.479489
     63          1           0       -6.446895   -4.893204    2.516918
     64          1           0       -7.897452   -3.030982    4.332407
     65          1           0       -8.414321   -5.966559    2.804205
     66          1           0       -9.191611   -4.661644    1.844126
     67          1           0       -9.148143   -4.546069    3.526900
     68          1           0       -5.979178   -4.501781    5.057175
     69          1           0       -5.879493   -2.831238    5.602331
     70          1           0       -4.423161   -4.313317    3.545823
     71          1           0       -3.746658   -3.204577    4.786682
     72          1           0       -4.541036   -2.582424    3.271229
     73          1           0       -6.208422    2.955502    5.383768
     74          1           0       -6.777669    1.272800    5.672797
     75          1           0       -7.966309    2.524458    5.119580
     76          1           0       -7.725430    4.817378    0.552966
     77          1           0       -5.450656    8.298270   -0.599553
     78          1           0       -5.187599    7.161854   -2.055262
     79          1           0       -4.184002    7.192934   -0.593223
     80         12           0        6.636994   -0.977390    0.088369
     81          6           0        6.864668    2.599293    0.274371
     82          6           0        6.081480   -0.618705   -3.257871
     83          6           0        5.985121   -4.080168   -0.035158
     84          6           0        6.071774   -0.981413    3.527298
     85          7           0        6.512856    0.810705   -1.207603
     86          6           0        6.676986    2.113841   -1.036568
     87          6           0        6.717949    2.935220   -2.353077
     88          6           0        5.901851    1.921802   -3.294274
     89          6           0        6.208059    0.613510   -2.568128
     90          6           0        4.399298    2.146578   -3.260290
     91          6           0        8.181060    3.153174   -2.876340
     92          6           0        8.319146    4.202567   -3.981535
     93          1           0        9.520369    5.032562   -4.007103
     94          7           0        6.595895   -2.220481   -1.458110
     95          6           0        6.379772   -1.902952   -2.751846
     96          6           0        6.428794   -3.173594   -3.491579
     97          6           0        6.527492   -4.285703   -2.507612
     98          6           0        6.348459   -3.557268   -1.267679
     99          6           0        6.461793   -3.241593   -4.990808
    100          6           0        6.734340   -5.762402   -2.658459
    101          8           0        6.549373   -6.571475   -1.681720
    102          6           0        7.068999   -6.243138   -4.006933
    103          7           0        5.896646   -2.319604    1.492889
    104          6           0        5.757423   -3.623720    1.196563
    105          6           0        5.473196   -4.437524    2.436450
    106          6           0        5.690989   -3.437966    3.665689
    107          6           0        5.989649   -2.138851    2.885631
    108          6           0        4.076709   -5.052988    2.522578
    109          6           0        6.690398   -3.884820    4.767597
    110          6           0        8.095507   -3.910099    4.210449
    111          7           0        6.671561    0.491942    1.672015
    112          6           0        6.378732    0.281561    3.037325
    113          6           0        6.423785    1.600838    3.700573
    114          6           0        6.719389    2.497301    2.662569
    115          6           0        6.829453    1.789431    1.435253
    116          6           0        6.160213    1.849322    5.077125
    117          6           0        6.952851    3.882833    2.324195
    118          8           0        7.072171    4.925628    2.966136
    119          6           0        6.932423    4.026847    0.741402
    120          6           0        8.129421    4.841359    0.333617
    121          8           0        9.280487    4.403252    0.505955
    122          8           0        7.717068    5.900653   -0.386283
    123          6           0        8.869455    6.733127   -0.823097
    124          1           0        5.675309   -0.607556   -4.269696
    125          1           0        5.857328   -5.164631   -0.002201
    126          1           0        6.003359   -0.910793    4.614957
    127          1           0        6.210341    3.891294   -2.307980
    128          1           0        6.309507    1.903212   -4.301668
    129          1           0        4.117824    2.876231   -2.515632
    130          1           0        3.962911    1.183430   -3.030171
    131          1           0        4.035219    2.412026   -4.256949
    132          1           0        8.501911    2.258625   -3.425489
    133          1           0        8.843599    3.391370   -2.067062
    134          1           0        7.420377    4.824325   -4.074197
    135          1           0        8.388813    3.687271   -4.942594
    136          1           0        6.209933   -2.274376   -5.442986
    137          1           0        5.647015   -3.905791   -5.298784
    138          1           0        7.404651   -3.637787   -5.373842
    139          1           0        6.279062   -5.958844   -4.698059
    140          1           0        7.266198   -7.311155   -3.895861
    141          1           0        7.979585   -5.735047   -4.343527
    142          1           0        6.169981   -5.261869    2.526124
    143          1           0        4.756933   -3.264062    4.219885
    144          1           0        4.091090   -6.152401    2.645678
    145          1           0        3.526651   -4.777151    1.632692
    146          1           0        3.445607   -4.656879    3.316317
    147          1           0        6.466428   -4.904281    5.091155
    148          1           0        6.669816   -3.254847    5.650600
    149          1           0        8.147566   -4.884918    3.716361
    150          1           0        8.827017   -3.834541    5.012455
    151          1           0        8.226970   -3.142229    3.439257
    152          1           0        6.917720    2.541966    5.419084
    153          1           0        6.171614    0.928548    5.656636
    154          1           0        5.157273    2.279168    5.009180
    155          1           0        5.994650    4.512439    0.468708
    156          1           0        8.680736    7.751159   -0.468587
    157          1           0        8.946125    6.586752   -1.916920
    158          1           0        9.834357    6.528338   -0.374239
 ---------------------------------------------------------------------

 SCF Done:  E(RCAM-B3LYP) =  -4069.81160108     A.U. after   19 cycles

 Excitation energies and oscillator strengths:

 Excited State   1:      Singlet-A      1.6655 eV  744.45 nm  f=0.0068  <S**2>=0.000
     309 -> 315       -0.10995
     310 -> 316        0.13145
     311 -> 313       -0.43897
     312 -> 314        0.52797
 This state for optimization and/or second-order correction.
 Total Energy, E(TD-HF/TD-DFT) =  -4069.75039668
 Copying the excited state density for this state as the 1-particle RhoCI density.

 Excited State   2:      Singlet-A      1.6893 eV  733.94 nm  f=0.7370  <S**2>=0.000
     309 -> 315        0.13692
     310 -> 316        0.11316
     311 -> 313        0.52677
     312 -> 314        0.43806

 Excited State   3:      Singlet-A      2.1846 eV  567.54 nm  f=0.0407  <S**2>=0.000
     309 -> 313       -0.20035
     310 -> 314        0.61111
     312 -> 316       -0.25851

 Excited State   4:      Singlet-A      2.1934 eV  565.26 nm  f=0.1482  <S**2>=0.000
     309 -> 313        0.60866
     310 -> 314        0.19856
     311 -> 315       -0.26527

 Excited State   5:      Singlet-A      2.6535 eV  467.25 nm  f=0.0000  <S**2>=0.000
     312 -> 313        0.70710

 The electronic state is 1-A.
 Alpha  occ. eigenvalues --  -46.87841 -46.87551 -19.26316 -19.26241 -19.19053
 Alpha  occ. eigenvalues --  -19.19052 -19.18854 -19.18628 -19.18198 -19.17925
 Alpha  occ. eigenvalues --  -14.42496 -14.42389 -14.41493 -14.41250 -14.39447
 Alpha  occ. eigenvalues --  -14.39245 -14.38628 -14.38486 -10.39112 -10.38980
 Alpha  occ. eigenvalues --  -10.35489 -10.35307 -10.34419 -10.34101 -10.31709
 Alpha  occ. eigenvalues --  -10.31660 -10.31450 -10.31196 -10.30958 -10.30920
 Alpha  occ. eigenvalues --  -10.30612 -10.30547 -10.30286 -10.30251 -10.30248
 Alpha  occ. eigenvalues --  -10.30040 -10.29959 -10.29780 -10.29672 -10.29333
 Alpha  occ. eigenvalues --  -10.29298 -10.29293 -10.28807 -10.28622 -10.28617
 Alpha  occ. eigenvalues --  -10.28584 -10.28408 -10.28295 -10.28171 -10.28035
 Alpha  occ. eigenvalues --  -10.27889 -10.27832 -10.27774 -10.27627 -10.27565
 Alpha  occ. eigenvalues --  -10.27542 -10.27540 -10.27487 -10.27447 -10.27419
 Alpha  occ. eigenvalues --  -10.27400 -10.27373 -10.27363 -10.27273 -10.27193
 Alpha  occ. eigenvalues --  -10.26923 -10.26779 -10.26608 -10.26456 -10.26354
 Alpha  occ. eigenvalues --  -10.26282 -10.26229 -10.26062 -10.26051 -10.25901
 Alpha  occ. eigenvalues --  -10.25868 -10.25826 -10.25711 -10.25467 -10.25289
 Alpha  occ. eigenvalues --  -10.24871 -10.24829 -10.24757 -10.24740 -10.24650
 Alpha  occ. eigenvalues --  -10.24581  -3.16584  -3.16301  -1.91466  -1.91183
 Alpha  occ. eigenvalues --   -1.91052  -1.90894  -1.90771  -1.90608  -1.16664
 Alpha  occ. eigenvalues --   -1.16535  -1.08655  -1.08529  -1.07255  -1.06881
 Alpha  occ. eigenvalues --   -1.06837  -1.06674  -1.04627  -1.04386  -1.03804
 Alpha  occ. eigenvalues --   -1.03555  -1.03276  -1.02929  -1.02454  -1.02001
 Alpha  occ. eigenvalues --   -0.92012  -0.91872  -0.89562  -0.89391  -0.89243
 Alpha  occ. eigenvalues --   -0.89048  -0.88328  -0.88118  -0.87906  -0.87721
 Alpha  occ. eigenvalues --   -0.87673  -0.87579  -0.87320  -0.87031  -0.85035
 Alpha  occ. eigenvalues --   -0.84899  -0.83977  -0.83775  -0.83012  -0.82848
 Alpha  occ. eigenvalues --   -0.82697  -0.82555  -0.81624  -0.81489  -0.80638
 Alpha  occ. eigenvalues --   -0.80338  -0.78841  -0.78536  -0.77265  -0.77044
 Alpha  occ. eigenvalues --   -0.76982  -0.76796  -0.75967  -0.75732  -0.74938
 Alpha  occ. eigenvalues --   -0.74698  -0.72816  -0.72589  -0.71714  -0.71472
 Alpha  occ. eigenvalues --   -0.69951  -0.69662  -0.68923  -0.68727  -0.67683
 Alpha  occ. eigenvalues --   -0.67497  -0.67277  -0.67111  -0.65337  -0.65168
 Alpha  occ. eigenvalues --   -0.64895  -0.64665  -0.64664  -0.64550  -0.64312
 Alpha  occ. eigenvalues --   -0.64101  -0.62334  -0.62172  -0.60486  -0.60244
 Alpha  occ. eigenvalues --   -0.59854  -0.59690  -0.59029  -0.58885  -0.58545
 Alpha  occ. eigenvalues --   -0.58318  -0.57620  -0.57436  -0.57349  -0.57132
 Alpha  occ. eigenvalues --   -0.56351  -0.56099  -0.56018  -0.55784  -0.55563
 Alpha  occ. eigenvalues --   -0.55377  -0.55354  -0.55142  -0.54561  -0.54385
 Alpha  occ. eigenvalues --   -0.53950  -0.53811  -0.53341  -0.53270  -0.53126
 Alpha  occ. eigenvalues --   -0.53042  -0.52956  -0.52806  -0.52801  -0.52584
 Alpha  occ. eigenvalues --   -0.52482  -0.52309  -0.51946  -0.51755  -0.51669
 Alpha  occ. eigenvalues --   -0.51564  -0.51236  -0.51092  -0.50623  -0.50397
 Alpha  occ. eigenvalues --   -0.50076  -0.49965  -0.49882  -0.49769  -0.49562
 Alpha  occ. eigenvalues --   -0.49392  -0.49255  -0.49143  -0.49097  -0.48993
 Alpha  occ. eigenvalues --   -0.48632  -0.48501  -0.48483  -0.48450  -0.48271
 Alpha  occ. eigenvalues --   -0.48245  -0.47741  -0.47497  -0.47340  -0.47022
 Alpha  occ. eigenvalues --   -0.46842  -0.46609  -0.46606  -0.46456  -0.46401
 Alpha  occ. eigenvalues --   -0.46200  -0.46168  -0.45974  -0.45858  -0.45707
 Alpha  occ. eigenvalues --   -0.45242  -0.45104  -0.44615  -0.44556  -0.44407
 Alpha  occ. eigenvalues --   -0.44375  -0.44188  -0.44138  -0.44059  -0.44021
 Alpha  occ. eigenvalues --   -0.43981  -0.43841  -0.43532  -0.43448  -0.43434
 Alpha  occ. eigenvalues --   -0.43280  -0.43068  -0.42825  -0.42789  -0.42736
 Alpha  occ. eigenvalues --   -0.42694  -0.42456  -0.42055  -0.41866  -0.41744
 Alpha  occ. eigenvalues --   -0.41588  -0.41556  -0.41361  -0.41185  -0.40921
 Alpha  occ. eigenvalues --   -0.40881  -0.40870  -0.40635  -0.40614  -0.40604
 Alpha  occ. eigenvalues --   -0.40391  -0.40300  -0.40140  -0.39487  -0.39332
 Alpha  occ. eigenvalues --   -0.38514  -0.38249  -0.37809  -0.37562  -0.37364
 Alpha  occ. eigenvalues --   -0.37316  -0.37163  -0.37097  -0.36749  -0.36665
 Alpha  occ. eigenvalues --   -0.36233  -0.36113  -0.34329  -0.34144  -0.33804
 Alpha  occ. eigenvalues --   -0.33754  -0.33228  -0.33067  -0.31384  -0.31186
 Alpha  occ. eigenvalues --   -0.31078  -0.30865  -0.30058  -0.29828  -0.29491
 Alpha  occ. eigenvalues --   -0.29360  -0.29224  -0.29094  -0.24124  -0.23925
 Alpha  occ. eigenvalues --   -0.21171  -0.21009
 Alpha virt. eigenvalues --   -0.08816  -0.08683  -0.01793  -0.01577  -0.00101
 Alpha virt. eigenvalues --    0.00070   0.02165   0.02326   0.03069   0.03324
 Alpha virt. eigenvalues --    0.04666   0.04835   0.05065   0.05276   0.06113

 Mulliken charges:
               1
     1  Mg   0.838615
     2  C   -0.003028
     3  C   -0.094396
     4  C   -0.045785
     5  C   -0.063935
     6  N   -0.256745
     7  C   -0.052536
     8  C   -0.013973
     9  C   -0.086955
    10  C    0.046224
    11  C    0.104810
    12  C    0.053588
    13  C   -0.071594
    14  H    0.035658
    15  N   -0.433141
    16  C    0.168328
    17  C   -0.177337
    18  C   -0.003998
    19  C    0.148669
    20  C    0.110228
    21  C    0.012329
    22  O   -0.249408
    23  C    0.062511
    24  N   -0.341131
    25  C    0.041185
    26  C   -0.028193
    27  C   -0.024017
    28  C    0.074857
    29  C    0.076123
    30  C    0.035123
    31  C   -0.004492
    32  N   -0.310521
    33  C    0.080441
    34  C   -0.169568
    35  C    0.008511
    36  C    0.083001
    37  C    0.127263
    38  C    0.046287
    39  O   -0.187976
    40  C   -0.005383
    41  C    0.212966
    42  O   -0.257103
    43  O   -0.304801
    44  C    0.157581
    45  H   -0.017695
    46  H   -0.016726
    47  H   -0.041378
    48  H    0.001079
    49  H   -0.004313
    50  H    0.025590
    51  H    0.016535
    52  H    0.016618
    53  H    0.010752
    54  H    0.044098
    55  H    0.018153
    56  H    0.017613
    57  H    0.005699
    58  H    0.026909
    59  H    0.039082
    60  H    0.037298
    61  H    0.035870
    62  H    0.031147
    63  H    0.016609
    64  H    0.009584
    65  H    0.023318
    66  H    0.012577
    67  H    0.004824
    68  H    0.006439
    69  H    0.004781
    70  H    0.008880
    71  H    0.017749
    72  H    0.029009
    73  H    0.047902
    74  H    0.009118
    75  H    0.046133
    76  H    0.035228
    77  H    0.043274
    78  H    0.046068
    79  H    0.053894
    80  Mg   0.838056
    81  C   -0.016684
    82  C   -0.087900
    83  C   -0.045518
    84  C   -0.064603
    85  N   -0.254541
    86  C   -0.049443
    87  C   -0.015130
    88  C   -0.090635
    89  C    0.045901
    90  C    0.114387
    91  C    0.062605
    92  C   -0.077692
    93  H    0.034593
    94  N   -0.423431
    95  C    0.162879
    96  C   -0.174959
    97  C   -0.007976
    98  C    0.152021
    99  C    0.099556
   100  C    0.015407
   101  O   -0.253294
   102  C    0.061279
   103  N   -0.349983
   104  C    0.037528
   105  C   -0.019826
   106  C   -0.034830
   107  C    0.089079
   108  C    0.073659
   109  C    0.034731
   110  C   -0.007619
   111  N   -0.324236
   112  C    0.078699
   113  C   -0.162714
   114  C    0.002680
   115  C    0.096222
   116  C    0.131318
   117  C    0.042891
   118  O   -0.187422
   119  C    0.000719
   120  C    0.211147
   121  O   -0.251272
   122  O   -0.305412
   123  C    0.152123
   124  H   -0.020231
   125  H   -0.015707
   126  H   -0.040386
   127  H   -0.000345
   128  H   -0.004882
   129  H    0.023701
   130  H    0.014601
   131  H    0.015461
   132  H    0.013722
   133  H    0.037654
   134  H    0.020792
   135  H    0.019249
   136  H    0.008371
   137  H    0.025547
   138  H    0.039444
   139  H    0.037925
   140  H    0.036158
   141  H    0.033744
   142  H    0.014156
   143  H    0.012578
   144  H    0.024925
   145  H    0.012010
   146  H    0.005669
   147  H    0.006053
   148  H    0.003627
   149  H    0.010817
   150  H    0.017747
   151  H    0.030164
   152  H    0.045875
   153  H    0.008241
   154  H    0.048288
   155  H    0.036087
   156  H    0.043963
   157  H    0.049222
   158  H    0.053397
 Sum of Mulliken charges =  -0.00000

 Dipole moment (field-independent basis, Debye):
    X=             -3.8969    Y=             -2.0838    Z=             -7.7250  Tot=              8.8997
 Quadrupole moment (field-independent basis, Debye-Ang):
   XX=           -515.0281   YY=           -551.7279   ZZ=           -447.2865
   XY=             -3.9430   XZ=             -7.1459   YZ=            -47.5679

 Normal termination of Gaussian 16 at Sat Sep 11 17:30:09 2021.
