 Gaussian 16, Revision A.03,
 Gaussian 16:  ES64L-G16RevA.03 25-Dec-2016

 -----------------------------------
 #p cam-b3lyp/Def2SVP td=(nstates=5)
 -----------------------------------

 --------------------------------
 TDDFT excited states in gaussian
 --------------------------------
 Symbolic Z-matrix:
 Charge =  0 Multiplicity = 1

                         Standard orientation:
 ---------------------------------------------------------------------
 Center     Atomic      Atomic             Coordinates (Angstroms)
 Number     Number       Type             X           Y           Z
 ---------------------------------------------------------------------
      1         12           0        6.529648   -0.698137    0.261530
      2          6           0        6.808007    2.489374   -1.342997
      3          6           0        7.251458    0.883351    3.197676
      4          6           0        6.737542   -3.554602    1.623150
      5          6           0        6.955881   -2.150463   -2.877695
      6          7           0        6.954231    1.421458    0.738704
      7          6           0        6.971229    2.553847    0.042589
      8          6           0        7.103531    3.824957    0.933739
      9          6           0        7.793122    3.166022    2.211341
     10          6           0        7.274718    1.746541    2.062161
     11          6           0        9.316447    3.142902    2.137520
     12          6           0        5.712167    4.447950    1.291115
     13          6           0        5.760566    5.861839    1.877569
     14          1           0        4.698886    6.797354    1.538456
     15          7           0        6.452689   -1.218357    2.165814
     16          6           0        6.766022   -0.441838    3.230769
     17          6           0        6.546482   -1.282864    4.427079
     18          6           0        6.262554   -2.669199    3.962799
     19          6           0        6.501833   -2.540166    2.548065
     20          6           0        6.567963   -0.746187    5.825387
     21          6           0        5.852453   -3.915436    4.681717
     22          8           0        5.884319   -5.064852    4.122789
     23          6           0        5.492028   -3.765421    6.103206
     24          7           0        7.025335   -2.588433   -0.472437
     25          6           0        6.981729   -3.668024    0.315957
     26          6           0        7.097231   -4.932418   -0.482734
     27          6           0        6.984840   -4.498931   -2.015447
     28          6           0        6.901429   -2.964781   -1.821292
     29          6           0        8.385438   -5.740498   -0.274070
     30          6           0        5.892211   -5.195374   -2.864888
     31          6           0        4.521768   -4.778343   -2.380049
     32          7           0        6.653419    0.007662   -1.787268
     33          6           0        6.855055   -0.770512   -2.936382
     34          6           0        6.975798    0.160823   -4.073089
     35          6           0        6.851768    1.425041   -3.500189
     36          6           0        6.691628    1.292902   -2.091222
     37          6           0        7.231703   -0.202644   -5.424695
     38          6           0        6.841936    2.857743   -3.747424
     39          8           0        6.842909    3.563515   -4.757066
     40          6           0        6.935311    3.608654   -2.346267
     41          6           0        5.884028    4.684764   -2.336368
     42          8           0        4.670524    4.393609   -2.334839
     43          8           0        6.463441    5.870049   -2.091582
     44          6           0        5.471618    6.977158   -2.039132
     45          1           0        7.698026    1.228442    4.132251
     46          1           0        6.706370   -4.564679    2.036926
     47          1           0        7.005504   -2.534274   -3.898322
     48          1           0        7.747239    4.603000    0.522993
     49          1           0        7.431933    3.605619    3.140867
     50          1           0        9.672894    3.466776    1.159782
     51          1           0        9.601122    2.106933    2.322513
     52          1           0        9.752530    3.723309    2.950992
     53          1           0        5.284471    3.910574    2.137498
     54          1           0        5.051556    4.439953    0.423444
     55          1           0        6.737572    6.322217    1.727833
     56          1           0        5.659860    5.786127    2.960309
     57          1           0        6.965337    0.267465    5.859259
     58          1           0        7.291388   -1.340326    6.383388
     59          1           0        5.591114   -0.810967    6.304868
     60          1           0        6.340671   -3.351042    6.647857
     61          1           0        5.140091   -4.743595    6.429037
     62          1           0        4.686988   -3.034911    6.188152
     63          1           0        6.286523   -5.620148   -0.245656
     64          1           0        7.908398   -4.688612   -2.562928
     65          1           0        8.210768   -6.768123    0.045591
     66          1           0        9.005062   -5.206894    0.446085
     67          1           0        9.045386   -5.780333   -1.140268
     68          1           0        5.956728   -6.277115   -2.752549
     69          1           0        5.963611   -4.967550   -3.928490
     70          1           0        4.343233   -5.453947   -1.544276
     71          1           0        3.779627   -4.924462   -3.165598
     72          1           0        4.532074   -3.763421   -1.982164
     73          1           0        6.562399    0.403166   -6.035429
     74          1           0        7.062137   -1.266765   -5.587478
     75          1           0        8.283149    0.070753   -5.511709
     76          1           0        7.942147    4.019301   -2.277183
     77          1           0        5.787900    7.726119   -2.765258
     78          1           0        5.402753    7.282284   -0.994833
     79          1           0        4.470772    6.745452   -2.405136
     80         12           0       -6.689879   -0.727380   -0.410970
     81          6           0       -6.555516    2.631166    0.846482
     82          6           0       -5.972080   -1.781544    2.752586
     83          6           0       -6.356276   -3.661699   -1.571116
     84          6           0       -6.260805    0.599179   -3.605010
     85          7           0       -6.332745    0.377560    1.471535
     86          6           0       -6.368449    1.648918    1.841289
     87          6           0       -6.274038    1.875887    3.373977
     88          6           0       -5.530883    0.509676    3.774049
     89          6           0       -5.997724   -0.370546    2.616485
     90          6           0       -4.015610    0.609811    3.716997
     91          6           0       -7.685763    1.981310    4.050686
     92          6           0       -7.672570    2.508659    5.487174
     93          1           0       -8.780185    3.351282    5.929480
     94          7           0       -6.717362   -2.484091    0.511946
     95          6           0       -6.420111   -2.728433    1.805483
     96          6           0       -6.571048   -4.180649    1.985594
     97          6           0       -6.821379   -4.795023    0.653448
     98          6           0       -6.616218   -3.648245   -0.208470
     99          6           0       -6.553155   -4.839527    3.334288
    100          6           0       -7.173026   -6.187505    0.225047
    101          8           0       -7.109968   -6.550460   -1.002609
    102          6           0       -7.503215   -7.139190    1.295916
    103          7           0       -6.146077   -1.450043   -2.282974
    104          6           0       -6.130403   -2.770428   -2.536479
    105          6           0       -5.979293   -3.040332   -4.014557
    106          6           0       -6.140286   -1.618878   -4.729505
    107          6           0       -6.273515   -0.720822   -3.480056
    108          6           0       -4.657852   -3.678259   -4.442615
    109          6           0       -7.221990   -1.507449   -5.838626
    110          6           0       -8.599770   -1.642273   -5.231233
    111          7           0       -6.634064    1.250275   -1.279209
    112          6           0       -6.417176    1.580871   -2.634840
    113          6           0       -6.351805    3.054347   -2.718559
    114          6           0       -6.513492    3.481351   -1.391900
    115          6           0       -6.648464    2.352949   -0.538681
    116          6           0       -6.117235    3.810785   -3.901317
    117          6           0       -6.590044    4.629772   -0.517840
    118          8           0       -6.626097    5.848108   -0.685417
    119          6           0       -6.494023    4.126864    0.986898
    120          6           0       -7.584331    4.802214    1.772817
    121          8           0       -8.780131    4.561978    1.529994
    122          8           0       -7.037839    5.449149    2.818376
    123          6           0       -8.080835    6.125767    3.634562
    124          1           0       -5.528285   -2.207984    3.652629
    125          1           0       -6.342043   -4.648943   -2.038680
    126          1           0       -6.227393    1.093111   -4.578450
    127          1           0       -5.672918    2.726890    3.670987
    128          1           0       -5.899223    0.122146    4.720369
    129          1           0       -3.689446    1.551599    3.301314
    130          1           0       -3.689754   -0.212196    3.093166
    131          1           0       -3.588088    0.424992    4.706642
    132          1           0       -8.075543    0.970217    4.225306
    133          1           0       -8.350940    2.574723    3.453998
    134          1           0       -6.711733    2.968399    5.748681
    135          1           0       -7.757827    1.659372    6.169409
    136          1           0       -6.185954   -4.156948    4.110589
    137          1           0       -5.799750   -5.633564    3.292276
    138          1           0       -7.516320   -5.279976    3.600720
    139          1           0       -6.662233   -7.218290    1.980718
    140          1           0       -7.813336   -8.054498    0.788060
    141          1           0       -8.343092   -6.737833    1.873952
    142          1           0       -6.760094   -3.702216   -4.368622
    143          1           0       -5.215310   -1.312309   -5.239681
    144          1           0       -4.789952   -4.631883   -4.987791
    145          1           0       -4.048528   -3.825608   -3.560831
    146          1           0       -4.020378   -3.049059   -5.061442
    147          1           0       -7.116669   -2.326750   -6.554042
    148          1           0       -7.170725   -0.580764   -6.400433
    149          1           0       -8.732749   -2.725887   -5.159196
    150          1           0       -9.349950   -1.194827   -5.880129
    151          1           0       -8.621802   -1.238995   -4.212149
    152          1           0       -6.812086    4.639859   -3.883577
    153          1           0       -6.245563    3.202538   -4.794252
    154          1           0       -5.073548    4.096915   -3.746048
    155          1           0       -5.501497    4.387191    1.356612
    156          1           0       -7.802209    7.182243    3.696970
    157          1           0       -8.130006    5.560838    4.584401
    158          1           0       -9.078243    6.194436    3.216319
 ---------------------------------------------------------------------

 SCF Done:  E(RCAM-B3LYP) =  -4069.81172361     A.U. after   19 cycles

 Excitation energies and oscillator strengths:

 Excited State   1:      Singlet-A      1.6687 eV  743.00 nm  f=0.1314  <S**2>=0.000
     309 -> 315       -0.10674
     310 -> 316        0.13506
     311 -> 313       -0.42430
     312 -> 314        0.53949
 This state for optimization and/or second-order correction.
 Total Energy, E(TD-HF/TD-DFT) =  -4069.75039986
 Copying the excited state density for this state as the 1-particle RhoCI density.

 Excited State   2:      Singlet-A      1.6854 eV  735.65 nm  f=0.6041  <S**2>=0.000
     309 -> 315        0.13892
     310 -> 316        0.10905
     311 -> 313        0.53865
     312 -> 314        0.42376

 Excited State   3:      Singlet-A      2.1855 eV  567.31 nm  f=0.0709  <S**2>=0.000
     309 -> 313       -0.14886
     310 -> 314        0.62521
     312 -> 316       -0.26552

 Excited State   4:      Singlet-A      2.1921 eV  565.59 nm  f=0.1240  <S**2>=0.000
     309 -> 313        0.62342
     310 -> 314        0.14776
     311 -> 315       -0.27042

 Excited State   5:      Singlet-A      2.6502 eV  467.83 nm  f=0.0000  <S**2>=0.000
     312 -> 313        0.70710

 The electronic state is 1-A.
 Alpha  occ. eigenvalues --  -46.87850 -46.87556 -19.26297 -19.26280 -19.19098
 Alpha  occ. eigenvalues --  -19.19025 -19.18897 -19.18621 -19.18208 -19.17951
 Alpha  occ. eigenvalues --  -14.42501 -14.42399 -14.41501 -14.41252 -14.39460
 Alpha  occ. eigenvalues --  -14.39249 -14.38639 -14.38492 -10.39087 -10.39025
 Alpha  occ. eigenvalues --  -10.35533 -10.35300 -10.34426 -10.34129 -10.31722
 Alpha  occ. eigenvalues --  -10.31652 -10.31450 -10.31211 -10.30960 -10.30935
 Alpha  occ. eigenvalues --  -10.30620 -10.30562 -10.30289 -10.30265 -10.30254
 Alpha  occ. eigenvalues --  -10.30033 -10.29969 -10.29781 -10.29688 -10.29331
 Alpha  occ. eigenvalues --  -10.29314 -10.29295 -10.28783 -10.28655 -10.28629
 Alpha  occ. eigenvalues --  -10.28547 -10.28418 -10.28305 -10.28155 -10.28073
 Alpha  occ. eigenvalues --  -10.27894 -10.27848 -10.27779 -10.27646 -10.27572
 Alpha  occ. eigenvalues --  -10.27563 -10.27549 -10.27498 -10.27451 -10.27397
 Alpha  occ. eigenvalues --  -10.27385 -10.27381 -10.27363 -10.27261 -10.27188
 Alpha  occ. eigenvalues --  -10.26961 -10.26731 -10.26644 -10.26523 -10.26335
 Alpha  occ. eigenvalues --  -10.26269 -10.26228 -10.26072 -10.26026 -10.25963
 Alpha  occ. eigenvalues --  -10.25889 -10.25821 -10.25700 -10.25481 -10.25275
 Alpha  occ. eigenvalues --  -10.24885 -10.24841 -10.24764 -10.24732 -10.24631
 Alpha  occ. eigenvalues --  -10.24585  -3.16593  -3.16306  -1.91475  -1.91188
 Alpha  occ. eigenvalues --   -1.91061  -1.90904  -1.90777  -1.90613  -1.16631
 Alpha  occ. eigenvalues --   -1.16588  -1.08663  -1.08561  -1.07300  -1.06882
 Alpha  occ. eigenvalues --   -1.06874  -1.06647  -1.04631  -1.04398  -1.03813
 Alpha  occ. eigenvalues --   -1.03560  -1.03288  -1.02931  -1.02464  -1.02005
 Alpha  occ. eigenvalues --   -0.92017  -0.91888  -0.89569  -0.89387  -0.89225
 Alpha  occ. eigenvalues --   -0.89080  -0.88335  -0.88111  -0.87921  -0.87721
 Alpha  occ. eigenvalues --   -0.87675  -0.87587  -0.87346  -0.87024  -0.85023
 Alpha  occ. eigenvalues --   -0.84922  -0.83981  -0.83770  -0.83046  -0.82838
 Alpha  occ. eigenvalues --   -0.82692  -0.82573  -0.81611  -0.81515  -0.80639
 Alpha  occ. eigenvalues --   -0.80355  -0.78860  -0.78533  -0.77265  -0.77056
 Alpha  occ. eigenvalues --   -0.76965  -0.76816  -0.75957  -0.75758  -0.74942
 Alpha  occ. eigenvalues --   -0.74699  -0.72825  -0.72592  -0.71717  -0.71485
 Alpha  occ. eigenvalues --   -0.69954  -0.69650  -0.68918  -0.68747  -0.67693
 Alpha  occ. eigenvalues --   -0.67505  -0.67265  -0.67128  -0.65324  -0.65194
 Alpha  occ. eigenvalues --   -0.64895  -0.64674  -0.64659  -0.64569  -0.64317
 Alpha  occ. eigenvalues --   -0.64099  -0.62317  -0.62199  -0.60507  -0.60239
 Alpha  occ. eigenvalues --   -0.59847  -0.59714  -0.59034  -0.58893  -0.58550
 Alpha  occ. eigenvalues --   -0.58328  -0.57616  -0.57465  -0.57356  -0.57135
 Alpha  occ. eigenvalues --   -0.56362  -0.56105  -0.55994  -0.55816  -0.55578
 Alpha  occ. eigenvalues --   -0.55376  -0.55366  -0.55149  -0.54552  -0.54398
 Alpha  occ. eigenvalues --   -0.53932  -0.53842  -0.53357  -0.53271  -0.53129
 Alpha  occ. eigenvalues --   -0.53058  -0.52952  -0.52821  -0.52819  -0.52586
 Alpha  occ. eigenvalues --   -0.52484  -0.52296  -0.51961  -0.51753  -0.51662
 Alpha  occ. eigenvalues --   -0.51584  -0.51236  -0.51106  -0.50657  -0.50387
 Alpha  occ. eigenvalues --   -0.50083  -0.49983  -0.49895  -0.49762  -0.49566
 Alpha  occ. eigenvalues --   -0.49403  -0.49263  -0.49134  -0.49115  -0.49018
 Alpha  occ. eigenvalues --   -0.48628  -0.48525  -0.48491  -0.48473  -0.48270
 Alpha  occ. eigenvalues --   -0.48249  -0.47744  -0.47508  -0.47349  -0.47023
 Alpha  occ. eigenvalues --   -0.46843  -0.46613  -0.46594  -0.46479  -0.46408
 Alpha  occ. eigenvalues --   -0.46203  -0.46169  -0.45980  -0.45852  -0.45727
 Alpha  occ. eigenvalues --   -0.45249  -0.45103  -0.44618  -0.44564  -0.44430
 Alpha  occ. eigenvalues --   -0.44388  -0.44196  -0.44130  -0.44066  -0.44041
 Alpha  occ. eigenvalues --   -0.43982  -0.43852  -0.43523  -0.43474  -0.43430
 Alpha  occ. eigenvalues --   -0.43297  -0.43071  -0.42856  -0.42805  -0.42733
 Alpha  occ. eigenvalues --   -0.42675  -0.42450  -0.42051  -0.41873  -0.41749
 Alpha  occ. eigenvalues --   -0.41574  -0.41572  -0.41379  -0.41186  -0.40917
 Alpha  occ. eigenvalues --   -0.40898  -0.40889  -0.40642  -0.40618  -0.40616
 Alpha  occ. eigenvalues --   -0.40391  -0.40268  -0.40167  -0.39487  -0.39318
 Alpha  occ. eigenvalues --   -0.38514  -0.38249  -0.37781  -0.37589  -0.37369
 Alpha  occ. eigenvalues --   -0.37304  -0.37164  -0.37113  -0.36731  -0.36701
 Alpha  occ. eigenvalues --   -0.36223  -0.36123  -0.34336  -0.34151  -0.33791
 Alpha  occ. eigenvalues --   -0.33785  -0.33235  -0.33072  -0.31425  -0.31180
 Alpha  occ. eigenvalues --   -0.31086  -0.30873  -0.30066  -0.29857  -0.29511
 Alpha  occ. eigenvalues --   -0.29374  -0.29224  -0.29101  -0.24131  -0.23931
 Alpha  occ. eigenvalues --   -0.21181  -0.21013
 Alpha virt. eigenvalues --   -0.08830  -0.08687  -0.01805  -0.01580  -0.00122
 Alpha virt. eigenvalues --    0.00066   0.02153   0.02314   0.03060   0.03319
 Alpha virt. eigenvalues --    0.04677   0.04819   0.05086   0.05234   0.06157

 Mulliken charges:
               1
     1  Mg   0.838606
     2  C   -0.002893
     3  C   -0.094259
     4  C   -0.045972
     5  C   -0.063982
     6  N   -0.256792
     7  C   -0.052368
     8  C   -0.013970
     9  C   -0.086971
    10  C    0.046283
    11  C    0.104806
    12  C    0.053512
    13  C   -0.072103
    14  H    0.037031
    15  N   -0.433104
    16  C    0.168243
    17  C   -0.177385
    18  C   -0.004268
    19  C    0.148627
    20  C    0.110215
    21  C    0.011949
    22  O   -0.249685
    23  C    0.062684
    24  N   -0.341173
    25  C    0.041262
    26  C   -0.028177
    27  C   -0.024020
    28  C    0.074935
    29  C    0.076145
    30  C    0.035098
    31  C   -0.004476
    32  N   -0.310533
    33  C    0.080550
    34  C   -0.169696
    35  C    0.008480
    36  C    0.083034
    37  C    0.127301
    38  C    0.046205
    39  O   -0.188051
    40  C   -0.005317
    41  C    0.212914
    42  O   -0.256978
    43  O   -0.304877
    44  C    0.157469
    45  H   -0.017623
    46  H   -0.016923
    47  H   -0.041390
    48  H    0.001159
    49  H   -0.004089
    50  H    0.025580
    51  H    0.016382
    52  H    0.016725
    53  H    0.010802
    54  H    0.044341
    55  H    0.017963
    56  H    0.017709
    57  H    0.005956
    58  H    0.026835
    59  H    0.038773
    60  H    0.037552
    61  H    0.035258
    62  H    0.030695
    63  H    0.016491
    64  H    0.009576
    65  H    0.023217
    66  H    0.012542
    67  H    0.004858
    68  H    0.006533
    69  H    0.004779
    70  H    0.008788
    71  H    0.018272
    72  H    0.028807
    73  H    0.047643
    74  H    0.009124
    75  H    0.046187
    76  H    0.035280
    77  H    0.043198
    78  H    0.046505
    79  H    0.054199
    80  Mg   0.838140
    81  C   -0.016861
    82  C   -0.087910
    83  C   -0.045422
    84  C   -0.064092
    85  N   -0.254528
    86  C   -0.049709
    87  C   -0.015080
    88  C   -0.090569
    89  C    0.045789
    90  C    0.114446
    91  C    0.062610
    92  C   -0.077636
    93  H    0.034590
    94  N   -0.423482
    95  C    0.162855
    96  C   -0.174696
    97  C   -0.007875
    98  C    0.152079
    99  C    0.099403
   100  C    0.015508
   101  O   -0.253336
   102  C    0.061232
   103  N   -0.349933
   104  C    0.037629
   105  C   -0.019931
   106  C   -0.034975
   107  C    0.088939
   108  C    0.073553
   109  C    0.034698
   110  C   -0.007629
   111  N   -0.324224
   112  C    0.078522
   113  C   -0.162510
   114  C    0.002400
   115  C    0.096327
   116  C    0.131358
   117  C    0.042714
   118  O   -0.187950
   119  C    0.000782
   120  C    0.211148
   121  O   -0.251097
   122  O   -0.305680
   123  C    0.152114
   124  H   -0.020066
   125  H   -0.015675
   126  H   -0.039944
   127  H   -0.000967
   128  H   -0.004793
   129  H    0.022722
   130  H    0.014961
   131  H    0.015189
   132  H    0.013917
   133  H    0.037694
   134  H    0.020386
   135  H    0.019366
   136  H    0.008415
   137  H    0.026193
   138  H    0.039471
   139  H    0.038300
   140  H    0.036184
   141  H    0.033703
   142  H    0.014147
   143  H    0.013280
   144  H    0.024697
   145  H    0.011837
   146  H    0.006272
   147  H    0.006174
   148  H    0.003905
   149  H    0.010753
   150  H    0.017781
   151  H    0.030010
   152  H    0.045667
   153  H    0.008620
   154  H    0.048502
   155  H    0.035179
   156  H    0.043638
   157  H    0.049227
   158  H    0.053548
 Sum of Mulliken charges =  -0.00000

 Dipole moment (field-independent basis, Debye):
    X=              3.6922    Y=             -2.0928    Z=              7.1338  Tot=              8.3008
 Quadrupole moment (field-independent basis, Debye-Ang):
   XX=           -518.3620   YY=           -534.8657   ZZ=           -464.1905
   XY=             23.6646   XZ=              4.1201   YZ=             32.8736

 Normal termination of Gaussian 16 at Sat Sep  4 10:14:24 2021.
