 Gaussian 16, Revision A.03,
 Gaussian 16:  ES64L-G16RevA.03 25-Dec-2016

 -----------------------------------
 #p cam-b3lyp/Def2SVP td=(nstates=5)
 -----------------------------------

 --------------------------------
 TDDFT excited states in gaussian
 --------------------------------
 Symbolic Z-matrix:
 Charge =  0 Multiplicity = 1

                         Standard orientation:
 ---------------------------------------------------------------------
 Center     Atomic      Atomic             Coordinates (Angstroms)
 Number     Number       Type             X           Y           Z
 ---------------------------------------------------------------------
      1         12           0        5.187694   -0.824750    0.488542
      2          6           0        5.812696    1.684021   -1.986868
      3          6           0        6.406727    1.366524    2.802703
      4          6           0        5.070692   -3.174239    2.615237
      5          6           0        5.099938   -3.151618   -2.104457
      6          7           0        5.977376    1.235468    0.308123
      7          6           0        6.107541    2.105604   -0.688416
      8          6           0        6.515029    3.532415   -0.213508
      9          6           0        7.205676    3.149072    1.171431
     10          6           0        6.461840    1.858084    1.464658
     11          6           0        8.694092    2.840558    1.045185
     12          6           0        5.275029    4.463657    0.003099
     13          6           0        5.594824    5.954265    0.148605
     14          1           0        4.665239    6.927222   -0.405087
     15          7           0        5.201961   -0.767306    2.463218
     16          6           0        5.726316    0.209969    3.241210
     17          6           0        5.487000   -0.209328    4.638922
     18          6           0        4.950731   -1.598490    4.611768
     19          6           0        5.079299   -1.915920    3.212452
     20          6           0        5.716882    0.686204    5.817450
     21          6           0        4.418199   -2.501029    5.679459
     22          8           0        4.220910   -3.748331    5.479732
     23          6           0        4.214392   -1.897209    7.008709
     24          7           0        5.315944   -2.901383    0.318894
     25          6           0        5.176077   -3.691125    1.389281
     26          6           0        5.021711   -5.128888    0.990599
     27          6           0        4.841015   -5.130744   -0.595937
     28          6           0        5.014634   -3.613834   -0.854999
     29          6           0        6.182243   -6.057779    1.373141
     30          6           0        3.581761   -5.835850   -1.159430
     31          6           0        2.341784   -5.066825   -0.761742
     32          7           0        5.235342   -0.755829   -1.680334
     33          6           0        5.209802   -1.848216   -2.559375
     34          6           0        5.371293   -1.309702   -3.922456
     35          6           0        5.496994    0.065956   -3.739123
     36          6           0        5.445282    0.365018   -2.347656
     37          6           0        5.445390   -2.077081   -5.118312
     38          6           0        5.687661    1.350286   -4.393339
     39          8           0        5.707687    1.732539   -5.564226
     40          6           0        6.021798    2.436242   -3.277598
     41          6           0        5.155576    3.638111   -3.539281
     42          8           0        3.916664    3.575638   -3.403041
     43          8           0        5.931632    4.724291   -3.675265
     44          6           0        5.132536    5.956986   -3.907780
     45          1           0        6.983462    1.876765    3.576636
     46          1           0        4.920258   -4.005787    3.306855
     47          1           0        4.997619   -3.809203   -2.969654
     48          1           0        7.232303    4.038897   -0.859587
     49          1           0        7.001974    3.888109    1.946061
     50          1           0        9.007378    2.809307    0.001731
     51          1           0        8.829846    1.865163    1.512803
     52          1           0        9.286198    3.540682    1.635112
     53          1           0        4.846709    4.268961    0.986307
     54          1           0        4.546074    4.327702   -0.796568
     55          1           0        6.614062    6.176092   -0.168972
     56          1           0        5.581090    6.204558    1.209437
     57          1           0        6.268280    1.582943    5.537515
     58          1           0        6.386343    0.155954    6.494477
     59          1           0        4.788808    0.930313    6.334579
     60          1           0        5.162476   -1.501315    7.373338
     61          1           0        3.745463   -2.667353    7.620128
     62          1           0        3.543476   -1.043399    6.909562
     63          1           0        4.138597   -5.569770    1.451207
     64          1           0        5.671043   -5.624790   -1.101550
     65          1           0        5.879473   -6.907272    1.985838
     66          1           0        6.939277   -5.460082    1.880044
     67          1           0        6.747625   -6.453923    0.530034
     68          1           0        3.487303   -6.836414   -0.738841
     69          1           0        3.592004   -5.932100   -2.245194
     70          1           0        2.136167   -5.438450    0.241478
     71          1           0        1.518535   -5.295824   -1.439260
     72          1           0        2.545231   -3.999051   -0.678350
     73          1           0        4.826255   -1.560080   -5.851354
     74          1           0        5.098708   -3.097435   -4.956159
     75          1           0        6.514446   -2.027087   -5.324406
     76          1           0        7.082283    2.667400   -3.372786
     77          1           0        5.494892    6.404592   -4.833297
     78          1           0        5.205827    6.550324   -2.996197
     79          1           0        4.079108    5.810242   -4.148808
     80         12           0       -5.256057    0.838648    0.412604
     81          6           0       -5.604507   -1.709914   -2.089885
     82          6           0       -6.299370   -1.470438    2.696072
     83          6           0       -5.392796    3.170319    2.560175
     84          6           0       -5.354773    3.185398   -2.162029
     85          7           0       -5.845734   -1.283266    0.207677
     86          6           0       -5.879765   -2.162234   -0.782577
     87          6           0       -6.149878   -3.624136   -0.335977
     88          6           0       -6.902633   -3.317289    1.048971
     89          6           0       -6.289961   -1.954031    1.363354
     90          6           0       -8.403882   -3.141481    0.891880
     91          6           0       -4.825317   -4.432385   -0.103018
     92          6           0       -5.010656   -5.945280    0.033269
     93          1           0       -3.978353   -6.824576   -0.508623
     94          7           0       -5.292961    0.758032    2.395207
     95          6           0       -5.727424   -0.265467    3.160039
     96          6           0       -5.565409    0.176739    4.553730
     97          6           0       -5.154220    1.606987    4.547257
     98          6           0       -5.287131    1.913095    3.137034
     99          6           0       -5.719325   -0.750002    5.724576
    100          6           0       -4.726122    2.547544    5.632740
    101          8           0       -4.643530    3.811213    5.434899
    102          6           0       -4.496680    1.956753    6.959320
    103          7           0       -5.571085    2.887332    0.251388
    104          6           0       -5.529059    3.680721    1.336146
    105          6           0       -5.508024    5.139080    0.944828
    106          6           0       -5.299687    5.155500   -0.640705
    107          6           0       -5.326859    3.635872   -0.915260
    108          6           0       -6.758874    5.941755    1.301842
    109          6           0       -4.103533    5.983650   -1.184811
    110          6           0       -2.799620    5.344006   -0.765233
    111          7           0       -5.258308    0.778909   -1.747135
    112          6           0       -5.329596    1.878093   -2.630765
    113          6           0       -5.417847    1.330847   -4.000136
    114          6           0       -5.414943   -0.059933   -3.815170
    115          6           0       -5.351190   -0.358333   -2.427226
    116          6           0       -5.535466    2.094898   -5.195346
    117          6           0       -5.462031   -1.343411   -4.477861
    118          8           0       -5.434472   -1.717599   -5.649591
    119          6           0       -5.714437   -2.468205   -3.383536
    120          6           0       -4.734033   -3.582456   -3.628028
    121          8           0       -3.513564   -3.394012   -3.481245
    122          8           0       -5.408159   -4.736726   -3.781591
    123          6           0       -4.478160   -5.873455   -4.015625
    124          1           0       -6.831414   -2.046851    3.453410
    125          1           0       -5.332805    4.013286    3.252465
    126          1           0       -5.290127    3.851558   -3.025009
    127          1           0       -6.799144   -4.187863   -0.995103
    128          1           0       -6.633859   -4.041576    1.813521
    129          1           0       -8.702332   -3.134842   -0.145912
    130          1           0       -8.639679   -2.194469    1.359435
    131          1           0       -8.935125   -3.903341    1.469541
    132          1           0       -4.435184   -4.200121    0.896276
    133          1           0       -4.110941   -4.223993   -0.875584
    134          1           0       -6.004643   -6.270229   -0.297374
    135          1           0       -4.983372   -6.204014    1.094554
    136          1           0       -6.186013   -1.697702    5.428833
    137          1           0       -6.445519   -0.289801    6.403332
    138          1           0       -4.782447   -0.907303    6.263253
    139          1           0       -5.406959    1.468955    7.299748
    140          1           0       -4.111535    2.769299    7.578441
    141          1           0       -3.735763    1.173778    6.866745
    142          1           0       -4.678063    5.653346    1.413669
    143          1           0       -6.168407    5.584492   -1.161384
    144          1           0       -6.545578    6.823839    1.934694
    145          1           0       -7.459525    5.280764    1.794517
    146          1           0       -7.336988    6.298643    0.451176
    147          1           0       -4.110061    6.987324   -0.752666
    148          1           0       -4.112215    6.097490   -2.263679
    149          1           0       -2.651542    5.727671    0.248649
    150          1           0       -1.991722    5.652232   -1.425791
    151          1           0       -2.900566    4.254787   -0.694029
    152          1           0       -4.865499    1.647968   -5.917771
    153          1           0       -5.294714    3.141882   -5.023235
    154          1           0       -6.596058    1.948609   -5.416750
    155          1           0       -6.747594   -2.801540   -3.488642
    156          1           0       -4.785362   -6.350086   -4.951641
    157          1           0       -4.522940   -6.489844   -3.098116
    158          1           0       -3.442028   -5.637676   -4.228467
 ---------------------------------------------------------------------

 SCF Done:  E(RCAM-B3LYP) =  -4069.81158135     A.U. after   19 cycles

 Excitation energies and oscillator strengths:

 Excited State   1:      Singlet-A      1.6566 eV  748.42 nm  f=0.0049  <S**2>=0.000
     309 -> 316        0.12486
     310 -> 315       -0.11363
     311 -> 313        0.50941
     312 -> 314       -0.46115
 This state for optimization and/or second-order correction.
 Total Energy, E(TD-HF/TD-DFT) =  -4069.75070183
 Copying the excited state density for this state as the 1-particle RhoCI density.

 Excited State   2:      Singlet-A      1.6956 eV  731.23 nm  f=0.7190  <S**2>=0.000
     309 -> 316        0.11960
     310 -> 315        0.13282
     311 -> 313        0.45960
     312 -> 314        0.50754

 Excited State   3:      Singlet-A      2.1829 eV  567.97 nm  f=0.0227  <S**2>=0.000
     309 -> 313        0.57809
     310 -> 314        0.28263
     311 -> 316       -0.24328
     312 -> 315       -0.11828

 Excited State   4:      Singlet-A      2.1930 eV  565.37 nm  f=0.1608  <S**2>=0.000
     309 -> 313       -0.28011
     310 -> 314        0.57491
     311 -> 316        0.12283
     312 -> 315       -0.25121

 Excited State   5:      Singlet-A      2.5735 eV  481.77 nm  f=0.0000  <S**2>=0.000
     312 -> 313        0.70710

 The electronic state is 1-A.
 Alpha  occ. eigenvalues --  -46.87606 -46.87517 -19.26258 -19.26130 -19.19049
 Alpha  occ. eigenvalues --  -19.18847 -19.18696 -19.18632 -19.17978 -19.17910
 Alpha  occ. eigenvalues --  -14.42362 -14.42266 -14.41262 -14.41217 -14.39221
 Alpha  occ. eigenvalues --  -14.39216 -14.38449 -14.38388 -10.38978 -10.38907
 Alpha  occ. eigenvalues --  -10.35334 -10.35313 -10.34199 -10.34088 -10.31698
 Alpha  occ. eigenvalues --  -10.31551 -10.31212 -10.31166 -10.30904 -10.30743
 Alpha  occ. eigenvalues --  -10.30371 -10.30317 -10.30255 -10.30210 -10.30029
 Alpha  occ. eigenvalues --  -10.30007 -10.29748 -10.29727 -10.29444 -10.29303
 Alpha  occ. eigenvalues --  -10.29262 -10.29075 -10.28609 -10.28589 -10.28575
 Alpha  occ. eigenvalues --  -10.28402 -10.28271 -10.28184 -10.28024 -10.27953
 Alpha  occ. eigenvalues --  -10.27860 -10.27605 -10.27544 -10.27533 -10.27409
 Alpha  occ. eigenvalues --  -10.27369 -10.27360 -10.27351 -10.27336 -10.27335
 Alpha  occ. eigenvalues --  -10.27310 -10.27279 -10.27245 -10.27222 -10.26981
 Alpha  occ. eigenvalues --  -10.26926 -10.26588 -10.26548 -10.26378 -10.26341
 Alpha  occ. eigenvalues --  -10.26084 -10.25951 -10.25950 -10.25921 -10.25820
 Alpha  occ. eigenvalues --  -10.25782 -10.25656 -10.25596 -10.25297 -10.25296
 Alpha  occ. eigenvalues --  -10.24728 -10.24640 -10.24610 -10.24556 -10.24483
 Alpha  occ. eigenvalues --  -10.24380  -3.16348  -3.16266  -1.91230  -1.91148
 Alpha  occ. eigenvalues --   -1.90817  -1.90737  -1.90659  -1.90574  -1.16548
 Alpha  occ. eigenvalues --   -1.16475  -1.08517  -1.08435  -1.07102  -1.06888
 Alpha  occ. eigenvalues --   -1.06835  -1.06471  -1.04399  -1.04361  -1.03576
 Alpha  occ. eigenvalues --   -1.03526  -1.03045  -1.02896  -1.02223  -1.01969
 Alpha  occ. eigenvalues --   -0.91852  -0.91788  -0.89344  -0.89320  -0.89034
 Alpha  occ. eigenvalues --   -0.89021  -0.88098  -0.88075  -0.87662  -0.87636
 Alpha  occ. eigenvalues --   -0.87549  -0.87493  -0.87120  -0.87010  -0.84883
 Alpha  occ. eigenvalues --   -0.84817  -0.83738  -0.83724  -0.82834  -0.82831
 Alpha  occ. eigenvalues --   -0.82541  -0.82487  -0.81479  -0.81415  -0.80426
 Alpha  occ. eigenvalues --   -0.80323  -0.78624  -0.78506  -0.77034  -0.77014
 Alpha  occ. eigenvalues --   -0.76775  -0.76763  -0.75753  -0.75720  -0.74721
 Alpha  occ. eigenvalues --   -0.74672  -0.72582  -0.72554  -0.71499  -0.71455
 Alpha  occ. eigenvalues --   -0.69691  -0.69589  -0.68709  -0.68707  -0.67476
 Alpha  occ. eigenvalues --   -0.67469  -0.67096  -0.67066  -0.65151  -0.65114
 Alpha  occ. eigenvalues --   -0.64672  -0.64635  -0.64531  -0.64444  -0.64076
 Alpha  occ. eigenvalues --   -0.64057  -0.62163  -0.62127  -0.60279  -0.60220
 Alpha  occ. eigenvalues --   -0.59672  -0.59631  -0.58858  -0.58805  -0.58323
 Alpha  occ. eigenvalues --   -0.58293  -0.57427  -0.57403  -0.57133  -0.57106
 Alpha  occ. eigenvalues --   -0.56131  -0.56071  -0.55820  -0.55781  -0.55362
 Alpha  occ. eigenvalues --   -0.55346  -0.55152  -0.55111  -0.54354  -0.54340
 Alpha  occ. eigenvalues --   -0.53798  -0.53730  -0.53135  -0.53104  -0.53058
 Alpha  occ. eigenvalues --   -0.53025  -0.52782  -0.52742  -0.52614  -0.52577
 Alpha  occ. eigenvalues --   -0.52221  -0.52213  -0.51713  -0.51694  -0.51551
 Alpha  occ. eigenvalues --   -0.51458  -0.51062  -0.51006  -0.50441  -0.50379
 Alpha  occ. eigenvalues --   -0.49865  -0.49843  -0.49768  -0.49727  -0.49384
 Alpha  occ. eigenvalues --   -0.49360  -0.49084  -0.49042  -0.48980  -0.48928
 Alpha  occ. eigenvalues --   -0.48437  -0.48418  -0.48314  -0.48276  -0.48247
 Alpha  occ. eigenvalues --   -0.48238  -0.47529  -0.47476  -0.47133  -0.47001
 Alpha  occ. eigenvalues --   -0.46607  -0.46570  -0.46440  -0.46394  -0.46173
 Alpha  occ. eigenvalues --   -0.46133  -0.45975  -0.45949  -0.45687  -0.45632
 Alpha  occ. eigenvalues --   -0.45074  -0.45022  -0.44404  -0.44398  -0.44343
 Alpha  occ. eigenvalues --   -0.44338  -0.44011  -0.43963  -0.43932  -0.43922
 Alpha  occ. eigenvalues --   -0.43849  -0.43833  -0.43433  -0.43317  -0.43264
 Alpha  occ. eigenvalues --   -0.43212  -0.42847  -0.42819  -0.42769  -0.42532
 Alpha  occ. eigenvalues --   -0.42452  -0.42405  -0.41810  -0.41805  -0.41535
 Alpha  occ. eigenvalues --   -0.41524  -0.41366  -0.41333  -0.40971  -0.40864
 Alpha  occ. eigenvalues --   -0.40714  -0.40675  -0.40632  -0.40576  -0.40381
 Alpha  occ. eigenvalues --   -0.40347  -0.40128  -0.40082  -0.39250  -0.39216
 Alpha  occ. eigenvalues --   -0.38285  -0.38214  -0.37586  -0.37545  -0.37133
 Alpha  occ. eigenvalues --   -0.37126  -0.37091  -0.37074  -0.36659  -0.36540
 Alpha  occ. eigenvalues --   -0.36085  -0.36013  -0.34113  -0.34097  -0.33745
 Alpha  occ. eigenvalues --   -0.33594  -0.33036  -0.32999  -0.31225  -0.31190
 Alpha  occ. eigenvalues --   -0.30856  -0.30841  -0.29836  -0.29813  -0.29275
 Alpha  occ. eigenvalues --   -0.29199  -0.29124  -0.29062  -0.23896  -0.23893
 Alpha  occ. eigenvalues --   -0.20977  -0.20940
 Alpha virt. eigenvalues --   -0.08656  -0.08592  -0.01570  -0.01550   0.00083
 Alpha virt. eigenvalues --    0.00098   0.02350   0.02391   0.03296   0.03480
 Alpha virt. eigenvalues --    0.04852   0.04891   0.05271   0.05279   0.06272

 Mulliken charges:
               1
     1  Mg   0.839627
     2  C   -0.002968
     3  C   -0.094160
     4  C   -0.046058
     5  C   -0.063034
     6  N   -0.256734
     7  C   -0.052337
     8  C   -0.014079
     9  C   -0.086970
    10  C    0.046184
    11  C    0.104914
    12  C    0.053448
    13  C   -0.071474
    14  H    0.035407
    15  N   -0.432938
    16  C    0.168218
    17  C   -0.177483
    18  C   -0.004522
    19  C    0.148587
    20  C    0.110278
    21  C    0.011698
    22  O   -0.250561
    23  C    0.062707
    24  N   -0.341258
    25  C    0.041284
    26  C   -0.027855
    27  C   -0.024087
    28  C    0.075261
    29  C    0.076413
    30  C    0.034990
    31  C   -0.004545
    32  N   -0.310835
    33  C    0.081399
    34  C   -0.167993
    35  C    0.008486
    36  C    0.083855
    37  C    0.127037
    38  C    0.046793
    39  O   -0.188135
    40  C   -0.005648
    41  C    0.212856
    42  O   -0.256539
    43  O   -0.304896
    44  C    0.157912
    45  H   -0.018071
    46  H   -0.017591
    47  H   -0.040852
    48  H    0.000697
    49  H   -0.004197
    50  H    0.025292
    51  H    0.016334
    52  H    0.016279
    53  H    0.011579
    54  H    0.044226
    55  H    0.017652
    56  H    0.018023
    57  H    0.005831
    58  H    0.026191
    59  H    0.039119
    60  H    0.037439
    61  H    0.034343
    62  H    0.031095
    63  H    0.015972
    64  H    0.009047
    65  H    0.022386
    66  H    0.012297
    67  H    0.004499
    68  H    0.004874
    69  H    0.005366
    70  H    0.006602
    71  H    0.021650
    72  H    0.030338
    73  H    0.049115
    74  H    0.009922
    75  H    0.045347
    76  H    0.034808
    77  H    0.042702
    78  H    0.046104
    79  H    0.053333
    80  Mg   0.838740
    81  C   -0.016887
    82  C   -0.087751
    83  C   -0.045685
    84  C   -0.064227
    85  N   -0.254540
    86  C   -0.049721
    87  C   -0.015190
    88  C   -0.090522
    89  C    0.045674
    90  C    0.114463
    91  C    0.062471
    92  C   -0.077415
    93  H    0.033715
    94  N   -0.423328
    95  C    0.162755
    96  C   -0.174873
    97  C   -0.008279
    98  C    0.152024
    99  C    0.099463
   100  C    0.015035
   101  O   -0.253928
   102  C    0.061420
   103  N   -0.350208
   104  C    0.037570
   105  C   -0.019593
   106  C   -0.034921
   107  C    0.089291
   108  C    0.073862
   109  C    0.034625
   110  C   -0.007672
   111  N   -0.324429
   112  C    0.079361
   113  C   -0.161612
   114  C    0.002355
   115  C    0.097038
   116  C    0.131256
   117  C    0.043077
   118  O   -0.187595
   119  C    0.000589
   120  C    0.211246
   121  O   -0.250548
   122  O   -0.305652
   123  C    0.152335
   124  H   -0.020046
   125  H   -0.016176
   126  H   -0.039829
   127  H   -0.000894
   128  H   -0.004411
   129  H    0.022281
   130  H    0.014347
   131  H    0.015960
   132  H    0.014476
   133  H    0.037642
   134  H    0.020613
   135  H    0.019840
   136  H    0.008774
   137  H    0.025573
   138  H    0.039494
   139  H    0.038338
   140  H    0.035257
   141  H    0.033476
   142  H    0.014011
   143  H    0.012083
   144  H    0.024481
   145  H    0.011381
   146  H    0.005469
   147  H    0.005194
   148  H    0.004244
   149  H    0.009281
   150  H    0.020629
   151  H    0.031197
   152  H    0.047442
   153  H    0.009230
   154  H    0.046348
   155  H    0.034715
   156  H    0.043747
   157  H    0.049152
   158  H    0.052891
 Sum of Mulliken charges =  -0.00000

 Dipole moment (field-independent basis, Debye):
    X=              0.1166    Y=             -0.2508    Z=              6.9347  Tot=              6.9403
 Quadrupole moment (field-independent basis, Debye-Ang):
   XX=           -471.4572   YY=           -463.3414   ZZ=           -540.2919
   XY=             24.4761   XZ=              4.0949   YZ=              0.0951

 Normal termination of Gaussian 16 at Fri Sep 10 13:38:23 2021.
