 Gaussian 16, Revision A.03,
 Gaussian 16:  ES64L-G16RevA.03 25-Dec-2016

 -----------------------------------
 #p cam-b3lyp/Def2SVP td=(nstates=5)
 -----------------------------------

 --------------------------------
 TDDFT excited states in gaussian
 --------------------------------
 Symbolic Z-matrix:
 Charge =  0 Multiplicity = 1

                         Standard orientation:
 ---------------------------------------------------------------------
 Center     Atomic      Atomic             Coordinates (Angstroms)
 Number     Number       Type             X           Y           Z
 ---------------------------------------------------------------------
      1         12           0        3.456307   -1.824813    0.086398
      2          6           0        4.868950    0.864313   -1.807078
      3          6           0        5.262333   -0.698330    2.753301
      4          6           0        2.581195   -4.443358    1.646534
      5          6           0        2.687086   -3.360289   -2.946138
      6          7           0        4.851128   -0.121660    0.319620
      7          6           0        5.260874    0.868904   -0.466549
      8          6           0        6.085376    1.955045    0.287022
      9          6           0        6.601299    1.074583    1.512014
     10          6           0        5.487975    0.042814    1.555460
     11          6           0        7.921261    0.361592    1.236610
     12          6           0        5.194074    3.146971    0.773465
     13          6           0        5.960090    4.393734    1.225297
     14          1           0        5.388314    5.703840    0.953191
     15          7           0        3.458029   -2.224240    2.021160
     16          6           0        4.248963   -1.658257    2.964226
     17          6           0        3.869919   -2.289655    4.246546
     18          6           0        2.928047   -3.403117    3.944599
     19          6           0        2.972382   -3.418393    2.504745
     20          6           0        4.349573   -1.799825    5.578368
     21          6           0        2.124840   -4.316385    4.815766
     22          8           0        1.551831   -5.363510    4.357764
     23          6           0        2.099293   -3.997405    6.254738
     24          7           0        2.933788   -3.745202   -0.543455
     25          6           0        2.538757   -4.675237    0.332884
     26          6           0        1.950192   -5.866428   -0.363243
     27          6           0        1.801817   -5.452666   -1.898346
     28          6           0        2.443233   -4.044946   -1.826384
     29          6           0        2.757700   -7.167785   -0.261211
     30          6           0        0.394201   -5.590370   -2.530860
     31          6           0       -0.550339   -4.589495   -1.903810
     32          7           0        3.555702   -1.283495   -2.013159
     33          6           0        3.204363   -2.085925   -3.108303
     34          6           0        3.546082   -1.328320   -4.326223
     35          6           0        4.091306   -0.136872   -3.851851
     36          6           0        4.114391   -0.160364   -2.428051
     37          6           0        3.395427   -1.788981   -5.663955
     38          6           0        4.682415    1.140313   -4.216880
     39          8           0        4.838152    1.753241   -5.274026
     40          6           0        5.321392    1.788440   -2.910179
     41          6           0        4.876732    3.224440   -2.851110
     42          8           0        3.678106    3.515719   -2.661850
     43          8           0        5.954498    4.021325   -2.788372
     44          6           0        5.582781    5.458613   -2.697922
     45          1           0        5.957601   -0.579198    3.586579
     46          1           0        2.168804   -5.322836    2.145423
     47          1           0        2.398042   -3.740401   -3.927678
     48          1           0        6.934380    2.349873   -0.271304
     49          1           0        6.626325    1.644389    2.440678
     50          1           0        8.224894    0.473437    0.195832
     51          1           0        7.739341   -0.687784    1.469438
     52          1           0        8.693057    0.693291    1.931653
     53          1           0        4.711665    2.875220    1.712344
     54          1           0        4.471167    3.426336    0.006206
     55          1           0        7.002374    4.358279    0.907024
     56          1           0        6.009043    4.388553    2.314231
     57          1           0        5.157039   -1.076484    5.471962
     58          1           0        4.810260   -2.648926    6.082851
     59          1           0        3.536054   -1.406922    6.188407
     60          1           0        3.117927   -4.004964    6.643168
     61          1           0        1.404630   -4.704247    6.707140
     62          1           0        1.729321   -2.979921    6.384334
     63          1           0        0.966848   -6.107666    0.038336
     64          1           0        2.444145   -6.049147   -2.546650
     65          1           0        2.196169   -7.999222    0.165523
     66          1           0        3.655539   -6.962504    0.321058
     67          1           0        3.184164   -7.516014   -1.201574
     68          1           0       -0.013580   -6.581736   -2.336300
     69          1           0        0.390296   -5.436069   -3.609946
     70          1           0       -0.876574   -5.097632   -0.997058
     71          1           0       -1.393662   -4.394939   -2.567260
     72          1           0       -0.025656   -3.683805   -1.598985
     73          1           0        2.979272   -0.954848   -6.228761
     74          1           0        2.745730   -2.662637   -5.711094
     75          1           0        4.429834   -2.023852   -5.914342
     76          1           0        6.402422    1.698489   -3.012180
     77          1           0        6.080437    5.971281   -3.521174
     78          1           0        5.823532    5.777713   -1.683713
     79          1           0        4.539814    5.700732   -2.905135
     80         12           0       -3.605548    1.755854    0.742447
     81          6           0       -4.938696   -0.979939   -1.159443
     82          6           0       -2.289905    2.945074   -2.171216
     83          6           0       -2.044221    3.927349    2.449578
     84          6           0       -4.029021   -0.201917    3.594374
     85          7           0       -3.674482    0.992589   -1.332390
     86          6           0       -4.262644   -0.023579   -1.945416
     87          6           0       -4.186459    0.028761   -3.494936
     88          6           0       -2.878830    0.949517   -3.640442
     89          6           0       -2.964412    1.706546   -2.316715
     90          6           0       -1.582708    0.156266   -3.654077
     91          6           0       -5.445614    0.714409   -4.132471
     92          6           0       -5.584495    0.525028   -5.644618
     93          1           0       -6.924368    0.386699   -6.208606
     94          7           0       -2.771415    3.468963    0.187417
     95          6           0       -2.315235    3.791504   -1.041064
     96          6           0       -1.775969    5.155257   -0.924721
     97          6           0       -1.801418    5.548913    0.510232
     98          6           0       -2.195949    4.295139    1.120566
     99          6           0       -1.375385    5.976237   -2.115919
    100          6           0       -1.505634    6.836769    1.217427
    101          8           0       -1.360935    6.888385    2.489914
    102          6           0       -1.297985    8.018541    0.367833
    103          7           0       -2.910324    1.775922    2.701678
    104          6           0       -2.310334    2.866026    3.211205
    105          6           0       -2.145538    2.748673    4.707693
    106          6           0       -2.981169    1.452681    5.131618
    107          6           0       -3.430744    0.973130    3.734012
    108          6           0       -0.708250    2.613981    5.210131
    109          6           0       -4.061701    1.640717    6.231509
    110          6           0       -5.185521    2.506018    5.708380
    111          7           0       -4.511824   -0.151526    1.199183
    112          6           0       -4.554724   -0.796738    2.454546
    113          6           0       -5.173634   -2.121261    2.242371
    114          6           0       -5.428910   -2.164281    0.863430
    115          6           0       -4.980995   -0.960326    0.255677
    116          6           0       -5.384153   -3.111083    3.243394
    117          6           0       -5.965756   -2.958753   -0.217914
    118          8           0       -6.563650   -4.031347   -0.294050
    119          6           0       -5.557179   -2.279175   -1.595461
    120          6           0       -6.783933   -2.214713   -2.463451
    121          8           0       -7.751278   -1.503783   -2.138762
    122          8           0       -6.528293   -2.827267   -3.633836
    123          6           0       -7.711735   -2.779826   -4.533296
    124          1           0       -1.645215    3.283244   -2.982950
    125          1           0       -1.610754    4.688181    3.102816
    126          1           0       -4.285382   -0.831679    4.448984
    127          1           0       -4.022144   -0.928846   -3.974272
    128          1           0       -2.970039    1.635489   -4.478577
    129          1           0       -1.748452   -0.889980   -3.444220
    130          1           0       -0.957678    0.600868   -2.890733
    131          1           0       -1.057004    0.309358   -4.600933
    132          1           0       -5.319831    1.803976   -4.090346
    133          1           0       -6.344013    0.390891   -3.643749
    134          1           0       -4.924645   -0.264954   -6.023413
    135          1           0       -5.230377    1.431338   -6.141824
    136          1           0       -1.312011    5.363641   -3.023725
    137          1           0       -0.347130    6.311411   -1.942091
    138          1           0       -2.013099    6.851333   -2.258047
    139          1           0       -0.472456    7.831920   -0.314905
    140          1           0       -1.187810    8.858122    1.056915
    141          1           0       -2.190495    8.166114   -0.250438
    142          1           0       -2.559173    3.613763    5.211318
    143          1           0       -2.331587    0.664735    5.540302
    144          1           0       -0.424883    3.397991    5.937540
    145          1           0       -0.044961    2.630520    4.355556
    146          1           0       -0.467798    1.657308    5.670732
    147          1           0       -3.639415    2.166697    7.091259
    148          1           0       -4.473759    0.705851    6.596499
    149          1           0       -4.805095    3.521057    5.856944
    150          1           0       -6.096114    2.338201    6.279959
    151          1           0       -5.325212    2.360773    4.630868
    152          1           0       -6.377920   -3.508164    3.084483
    153          1           0       -5.276628   -2.694891    4.242894
    154          1           0       -4.578254   -3.808740    3.000372
    155          1           0       -4.771523   -2.890014   -2.041770
    156          1           0       -7.942069   -3.812512   -4.812952
    157          1           0       -7.438474   -2.085744   -5.350194
    158          1           0       -8.654724   -2.461495   -4.104486
 ---------------------------------------------------------------------

 SCF Done:  E(RCAM-B3LYP) =  -4069.81293235     A.U. after   19 cycles

 Excitation energies and oscillator strengths:

 Excited State   1:      Singlet-A      1.6551 eV  749.12 nm  f=0.1854  <S**2>=0.000
     309 -> 315        0.11637
     310 -> 316        0.12075
     311 -> 313        0.47209
     312 -> 314        0.49868
 This state for optimization and/or second-order correction.
 Total Energy, E(TD-HF/TD-DFT) =  -4069.75211024
 Copying the excited state density for this state as the 1-particle RhoCI density.

 Excited State   2:      Singlet-A      1.6895 eV  733.84 nm  f=0.4637  <S**2>=0.000
     309 -> 315        0.12899
     310 -> 316       -0.12148
     311 -> 313        0.49707
     312 -> 314       -0.47095

 Excited State   3:      Singlet-A      2.1858 eV  567.23 nm  f=0.0687  <S**2>=0.000
     309 -> 313        0.27959
     310 -> 314        0.57905
     311 -> 315       -0.11670
     312 -> 316       -0.24401

 Excited State   4:      Singlet-A      2.1927 eV  565.43 nm  f=0.1233  <S**2>=0.000
     309 -> 313        0.57704
     310 -> 314       -0.27712
     311 -> 315       -0.25042
     312 -> 316        0.12065

 Excited State   5:      Singlet-A      2.2175 eV  559.12 nm  f=0.0000  <S**2>=0.000
     312 -> 313        0.70703

 The electronic state is 1-A.
 Alpha  occ. eigenvalues --  -46.87949 -46.87384 -19.26597 -19.26189 -19.19366
 Alpha  occ. eigenvalues --  -19.18977 -19.18962 -19.18485 -19.18417 -19.17803
 Alpha  occ. eigenvalues --  -14.42598 -14.42196 -14.41593 -14.41103 -14.39555
 Alpha  occ. eigenvalues --  -14.39062 -14.38765 -14.38325 -10.39406 -10.38904
 Alpha  occ. eigenvalues --  -10.35594 -10.35163 -10.34637 -10.33986 -10.32004
 Alpha  occ. eigenvalues --  -10.31619 -10.31574 -10.31054 -10.30975 -10.30752
 Alpha  occ. eigenvalues --  -10.30706 -10.30677 -10.30330 -10.30147 -10.30071
 Alpha  occ. eigenvalues --  -10.30050 -10.29881 -10.29813 -10.29687 -10.29411
 Alpha  occ. eigenvalues --  -10.29126 -10.29120 -10.28875 -10.28608 -10.28539
 Alpha  occ. eigenvalues --  -10.28405 -10.28398 -10.28244 -10.28105 -10.27982
 Alpha  occ. eigenvalues --  -10.27878 -10.27758 -10.27735 -10.27695 -10.27632
 Alpha  occ. eigenvalues --  -10.27587 -10.27573 -10.27526 -10.27400 -10.27395
 Alpha  occ. eigenvalues --  -10.27287 -10.27285 -10.27208 -10.27169 -10.26961
 Alpha  occ. eigenvalues --  -10.26833 -10.26800 -10.26565 -10.26413 -10.26356
 Alpha  occ. eigenvalues --  -10.26240 -10.26192 -10.26174 -10.26102 -10.26047
 Alpha  occ. eigenvalues --  -10.25669 -10.25565 -10.25492 -10.25485 -10.25430
 Alpha  occ. eigenvalues --  -10.25034 -10.24932 -10.24755 -10.24628 -10.24579
 Alpha  occ. eigenvalues --  -10.24445  -3.16691  -3.16135  -1.91572  -1.91159
 Alpha  occ. eigenvalues --   -1.91017  -1.91002  -1.90605  -1.90442  -1.16949
 Alpha  occ. eigenvalues --   -1.16476  -1.08888  -1.08422  -1.07359  -1.06979
 Alpha  occ. eigenvalues --   -1.06762  -1.06743  -1.04735  -1.04191  -1.03906
 Alpha  occ. eigenvalues --   -1.03398  -1.03386  -1.02775  -1.02571  -1.01837
 Alpha  occ. eigenvalues --   -0.92162  -0.91716  -0.89647  -0.89316  -0.89291
 Alpha  occ. eigenvalues --   -0.88798  -0.88398  -0.88077  -0.88056  -0.87817
 Alpha  occ. eigenvalues --   -0.87505  -0.87436  -0.87375  -0.86794  -0.85118
 Alpha  occ. eigenvalues --   -0.84691  -0.84056  -0.83738  -0.83110  -0.82803
 Alpha  occ. eigenvalues --   -0.82682  -0.82361  -0.81807  -0.81367  -0.80780
 Alpha  occ. eigenvalues --   -0.80187  -0.78968  -0.78313  -0.77362  -0.77091
 Alpha  occ. eigenvalues --   -0.76870  -0.76645  -0.76099  -0.75527  -0.75023
 Alpha  occ. eigenvalues --   -0.74634  -0.72941  -0.72412  -0.71822  -0.71318
 Alpha  occ. eigenvalues --   -0.70000  -0.69611  -0.69020  -0.68526  -0.67811
 Alpha  occ. eigenvalues --   -0.67348  -0.67343  -0.66921  -0.65437  -0.65038
 Alpha  occ. eigenvalues --   -0.64981  -0.64777  -0.64512  -0.64402  -0.64394
 Alpha  occ. eigenvalues --   -0.64003  -0.62532  -0.62069  -0.60591  -0.60071
 Alpha  occ. eigenvalues --   -0.59951  -0.59469  -0.59150  -0.58734  -0.58678
 Alpha  occ. eigenvalues --   -0.58173  -0.57829  -0.57468  -0.57324  -0.57014
 Alpha  occ. eigenvalues --   -0.56500  -0.56212  -0.55911  -0.55693  -0.55654
 Alpha  occ. eigenvalues --   -0.55506  -0.55188  -0.55078  -0.54713  -0.54325
 Alpha  occ. eigenvalues --   -0.54029  -0.53582  -0.53465  -0.53391  -0.53117
 Alpha  occ. eigenvalues --   -0.52979  -0.52906  -0.52874  -0.52630  -0.52537
 Alpha  occ. eigenvalues --   -0.52352  -0.52252  -0.52149  -0.51772  -0.51604
 Alpha  occ. eigenvalues --   -0.51373  -0.51354  -0.50953  -0.50722  -0.50174
 Alpha  occ. eigenvalues --   -0.50141  -0.50063  -0.49729  -0.49677  -0.49605
 Alpha  occ. eigenvalues --   -0.49409  -0.49255  -0.49197  -0.48901  -0.48795
 Alpha  occ. eigenvalues --   -0.48789  -0.48628  -0.48588  -0.48292  -0.48198
 Alpha  occ. eigenvalues --   -0.48069  -0.47846  -0.47455  -0.47311  -0.46946
 Alpha  occ. eigenvalues --   -0.46836  -0.46698  -0.46533  -0.46446  -0.46338
 Alpha  occ. eigenvalues --   -0.46249  -0.46041  -0.45993  -0.45877  -0.45582
 Alpha  occ. eigenvalues --   -0.45319  -0.45052  -0.44790  -0.44642  -0.44313
 Alpha  occ. eigenvalues --   -0.44275  -0.44228  -0.44190  -0.44172  -0.43863
 Alpha  occ. eigenvalues --   -0.43825  -0.43724  -0.43658  -0.43514  -0.43339
 Alpha  occ. eigenvalues --   -0.43195  -0.43119  -0.42972  -0.42772  -0.42731
 Alpha  occ. eigenvalues --   -0.42663  -0.42343  -0.42146  -0.41874  -0.41755
 Alpha  occ. eigenvalues --   -0.41662  -0.41420  -0.41284  -0.41186  -0.40992
 Alpha  occ. eigenvalues --   -0.40955  -0.40713  -0.40684  -0.40472  -0.40441
 Alpha  occ. eigenvalues --   -0.40336  -0.40268  -0.39953  -0.39520  -0.39286
 Alpha  occ. eigenvalues --   -0.38570  -0.38179  -0.37873  -0.37443  -0.37414
 Alpha  occ. eigenvalues --   -0.37375  -0.37044  -0.36975  -0.36895  -0.36596
 Alpha  occ. eigenvalues --   -0.36368  -0.36009  -0.34452  -0.34089  -0.33983
 Alpha  occ. eigenvalues --   -0.33659  -0.33360  -0.32892  -0.31489  -0.31196
 Alpha  occ. eigenvalues --   -0.31048  -0.30700  -0.30279  -0.29716  -0.29626
 Alpha  occ. eigenvalues --   -0.29514  -0.29028  -0.28922  -0.24241  -0.23753
 Alpha  occ. eigenvalues --   -0.21289  -0.20826
 Alpha virt. eigenvalues --   -0.08944  -0.08496  -0.01897  -0.01420  -0.00223
 Alpha virt. eigenvalues --    0.00269   0.01992   0.02359   0.02570   0.03606
 Alpha virt. eigenvalues --    0.04583   0.04794   0.05052   0.05364   0.06041

 Mulliken charges:
               1
     1  Mg   0.839177
     2  C   -0.003253
     3  C   -0.093809
     4  C   -0.045226
     5  C   -0.064522
     6  N   -0.257030
     7  C   -0.052031
     8  C   -0.014295
     9  C   -0.087207
    10  C    0.047003
    11  C    0.104710
    12  C    0.053389
    13  C   -0.072097
    14  H    0.036586
    15  N   -0.433364
    16  C    0.169098
    17  C   -0.177126
    18  C   -0.003644
    19  C    0.149542
    20  C    0.110149
    21  C    0.012443
    22  O   -0.248491
    23  C    0.062586
    24  N   -0.341300
    25  C    0.041726
    26  C   -0.028680
    27  C   -0.024036
    28  C    0.075043
    29  C    0.075941
    30  C    0.034794
    31  C   -0.007946
    32  N   -0.310056
    33  C    0.079807
    34  C   -0.171925
    35  C    0.007232
    36  C    0.081998
    37  C    0.127789
    38  C    0.044075
    39  O   -0.190058
    40  C   -0.004860
    41  C    0.213161
    42  O   -0.260311
    43  O   -0.303841
    44  C    0.158597
    45  H   -0.017130
    46  H   -0.015953
    47  H   -0.041892
    48  H    0.000666
    49  H   -0.003325
    50  H    0.025426
    51  H    0.016529
    52  H    0.017141
    53  H    0.012757
    54  H    0.043188
    55  H    0.017458
    56  H    0.019188
    57  H    0.006507
    58  H    0.027407
    59  H    0.039240
    60  H    0.037818
    61  H    0.036079
    62  H    0.030253
    63  H    0.018059
    64  H    0.009657
    65  H    0.024337
    66  H    0.012333
    67  H    0.004993
    68  H    0.008708
    69  H    0.003603
    70  H    0.012598
    71  H    0.018832
    72  H    0.028784
    73  H    0.044799
    74  H    0.009033
    75  H    0.046717
    76  H    0.035732
    77  H    0.043180
    78  H    0.047832
    79  H    0.050310
    80  Mg   0.836628
    81  C   -0.016090
    82  C   -0.085139
    83  C   -0.046062
    84  C   -0.064974
    85  N   -0.254662
    86  C   -0.050264
    87  C   -0.014749
    88  C   -0.090470
    89  C    0.043549
    90  C    0.112091
    91  C    0.062599
    92  C   -0.077442
    93  H    0.033541
    94  N   -0.424155
    95  C    0.161447
    96  C   -0.168737
    97  C   -0.008922
    98  C    0.153541
    99  C    0.098544
   100  C    0.015459
   101  O   -0.255098
   102  C    0.061232
   103  N   -0.350228
   104  C    0.037489
   105  C   -0.019481
   106  C   -0.034355
   107  C    0.088441
   108  C    0.074875
   109  C    0.035056
   110  C   -0.007496
   111  N   -0.324000
   112  C    0.077550
   113  C   -0.163218
   114  C    0.001905
   115  C    0.095507
   116  C    0.131502
   117  C    0.042011
   118  O   -0.189439
   119  C    0.000049
   120  C    0.211206
   121  O   -0.250989
   122  O   -0.306045
   123  C    0.152135
   124  H   -0.010587
   125  H   -0.017225
   126  H   -0.041419
   127  H   -0.002630
   128  H   -0.003506
   129  H    0.019308
   130  H    0.021558
   131  H    0.019451
   132  H    0.014077
   133  H    0.036892
   134  H    0.020191
   135  H    0.020361
   136  H    0.012761
   137  H    0.030939
   138  H    0.037582
   139  H    0.038902
   140  H    0.034697
   141  H    0.033942
   142  H    0.013884
   143  H    0.010367
   144  H    0.023476
   145  H    0.011736
   146  H    0.001978
   147  H    0.004617
   148  H    0.003437
   149  H    0.010430
   150  H    0.017513
   151  H    0.031086
   152  H    0.044934
   153  H    0.007592
   154  H    0.048436
   155  H    0.034097
   156  H    0.043004
   157  H    0.049707
   158  H    0.053463
 Sum of Mulliken charges =  -0.00000

 Dipole moment (field-independent basis, Debye):
    X=              5.7668    Y=              1.6442    Z=              1.1883  Tot=              6.1132
 Quadrupole moment (field-independent basis, Debye-Ang):
   XX=           -524.1550   YY=           -517.7662   ZZ=           -478.4086
   XY=            -11.4140   XZ=             35.7151   YZ=              7.0008

 Normal termination of Gaussian 16 at Wed Sep  8 14:49:41 2021.
