 Gaussian 16, Revision A.03,
 Gaussian 16:  ES64L-G16RevA.03 25-Dec-2016

 -----------------------------------
 #p cam-b3lyp/Def2SVP td=(nstates=5)
 -----------------------------------

 --------------------------------
 TDDFT excited states in gaussian
 --------------------------------
 Symbolic Z-matrix:
 Charge =  0 Multiplicity = 1

                         Standard orientation:
 ---------------------------------------------------------------------
 Center     Atomic      Atomic             Coordinates (Angstroms)
 Number     Number       Type             X           Y           Z
 ---------------------------------------------------------------------
      1         12           0        8.087797   -0.587023    0.610874
      2          6           0        8.404514    2.375064   -1.373551
      3          6           0        8.753703    1.349499    3.340253
      4          6           0        8.262752   -3.250755    2.322758
      5          6           0        8.574025   -2.420140   -2.312981
      6          7           0        8.506884    1.575832    0.827825
      7          6           0        8.540053    2.612329   -0.003887
      8          6           0        8.656957    3.984942    0.723878
      9          6           0        9.319506    3.491270    2.087445
     10          6           0        8.801413    2.063985    2.106452
     11          6           0       10.843956    3.459957    2.047779
     12          6           0        7.259934    4.646942    0.972496
     13          6           0        7.299339    6.123078    1.378481
     14          1           0        6.246507    7.008268    0.903789
     15          7           0        7.971660   -0.865159    2.563309
     16          6           0        8.265103    0.038570    3.528944
     17          6           0        8.019978   -0.646436    4.816329
     18          6           0        7.742696   -2.080093    4.523349
     19          6           0        8.010539   -2.128788    3.108688
     20          6           0        8.014476    0.060840    6.136738
     21          6           0        7.315823   -3.226916    5.383995
     22          8           0        7.356632   -4.437167    4.973873
     23          6           0        6.927269   -2.900585    6.768038
     24          7           0        8.594389   -2.553965    0.129064
     25          6           0        8.532871   -3.526558    1.045176
     26          6           0        8.661881   -4.880809    0.413277
     27          6           0        8.581087   -4.642385   -1.163549
     28          6           0        8.496810   -3.096045   -1.164391
     29          6           0        9.944059   -5.655745    0.747201
     30          6           0        7.504342   -5.440161   -1.941104
     31          6           0        6.125276   -4.966563   -1.539884
     32          7           0        8.253997   -0.142804   -1.507166
     33          6           0        8.477101   -1.058407   -2.545708
     34          6           0        8.622432   -0.276405   -3.787248
     35          6           0        8.489422    1.049443   -3.379471
     36          6           0        8.300812    1.094380   -1.968550
     37          6           0        8.904667   -0.805836   -5.077395
     38          6           0        8.487358    2.439995   -3.803990
     39          8           0        8.509954    3.014020   -4.893705
     40          6           0        8.554099    3.360221   -2.506086
     41          6           0        7.504940    4.428538   -2.651938
     42          8           0        6.291081    4.139178   -2.638462
     43          8           0        8.081654    5.635451   -2.545607
     44          6           0        7.091151    6.739876   -2.651928
     45          1           0        9.182122    1.808960    4.233166
     46          1           0        8.221311   -4.201202    2.858828
     47          1           0        8.643344   -2.928497   -3.276424
     48          1           0        9.310295    4.705897    0.232149
     49          1           0        8.940619    4.043413    2.947274
     50          1           0       11.220566    3.659267    1.044603
     51          1           0       11.122833    2.455399    2.366502
     52          1           0       11.264782    4.137745    2.790939
     53          1           0        6.814304    4.219345    1.870625
     54          1           0        6.616834    4.530174    0.099505
     55          1           0        8.280051    6.561674    1.192077
     56          1           0        7.176800    6.183253    2.459944
     57          1           0        8.413079    1.070998    6.051639
     58          1           0        8.725403   -0.458480    6.779077
     59          1           0        7.028087    0.055959    6.600790
     60          1           0        7.765635   -2.420896    7.273599
     61          1           0        6.566955   -3.830553    7.206425
     62          1           0        6.122123   -2.165638    6.744784
     63          1           0        7.845236   -5.533963    0.718084
     64          1           0        9.515061   -4.898498   -1.664321
     65          1           0        9.761002   -6.635447    1.189218
     66          1           0       10.550167   -5.035956    1.407341
     67          1           0       10.621158   -5.803178   -0.093760
     68          1           0        7.564473   -6.499338   -1.693161
     69          1           0        7.597496   -5.347041   -3.023186
     70          1           0        5.928698   -5.532491   -0.629986
     71          1           0        5.398746   -5.210149   -2.315791
     72          1           0        6.129594   -3.909858   -1.271850
     73          1           0        8.248929   -0.281499   -5.772411
     74          1           0        8.736312   -1.882053   -5.109276
     75          1           0        9.958180   -0.544872   -5.176712
     76          1           0        9.560151    3.776847   -2.468614
     77          1           0        7.423394    7.392369   -3.459457
     78          1           0        7.001965    7.173113   -1.655556
     79          1           0        6.097391    6.463674   -3.006176
     80         12           0       -7.740666   -0.726301   -0.507250
     81          6           0      -10.108310    1.628507    0.807359
     82          6           0       -6.097705    1.924089   -1.889544
     83          6           0       -5.899463   -2.799472   -2.049777
     84          6           0      -10.140534   -3.204530   -0.012579
     85          7           0       -8.147811    1.447501   -0.474333
     86          6           0       -9.041786    2.231804    0.108784
     87          6           0       -8.733516    3.749346    0.001224
     88          6           0       -7.815141    3.715418   -1.315708
     89          6           0       -7.287711    2.286029   -1.209129
     90          6           0       -8.608619    3.836770   -2.606054
     91          6           0       -7.938322    4.287191    1.242346
     92          6           0       -7.872363    5.812085    1.352295
     93          1           0       -7.901018    6.415967    2.681572
     94          7           0       -5.967982   -0.479496   -1.364719
     95          6           0       -5.450602    0.669552   -1.847720
     96          6           0       -4.130865    0.318033   -2.394421
     97          6           0       -3.980851   -1.161687   -2.343094
     98          6           0       -5.314406   -1.547564   -1.927357
     99          6           0       -3.127617    1.348463   -2.824708
    100          6           0       -2.831570   -2.078590   -2.633991
    101          8           0       -2.993620   -3.344394   -2.753553
    102          6           0       -1.527304   -1.441381   -2.867168
    103          7           0       -8.053685   -2.674128   -1.163231
    104          6           0       -7.069740   -3.368909   -1.760776
    105          6           0       -7.435823   -4.827819   -1.894727
    106          6           0       -8.775413   -5.014722   -1.041411
    107          6           0       -9.011359   -3.548727   -0.616434
    108          6           0       -7.667176   -5.327421   -3.320653
    109          6           0       -8.761437   -6.110345    0.059536
    110          6           0       -7.809516   -5.717683    1.166364
    111          7           0       -9.687818   -0.842554    0.421796
    112          6           0      -10.532160   -1.972097    0.494493
    113          6           0      -11.796468   -1.531142    1.118620
    114          6           0      -11.607095   -0.159768    1.346532
    115          6           0      -10.323653    0.230868    0.877834
    116          6           0      -12.936585   -2.349518    1.356306
    117          6           0      -12.205186    1.048425    1.867363
    118          8           0      -13.243902    1.312963    2.471376
    119          6           0      -11.310489    2.285935    1.426376
    120          6           0      -11.089855    3.153709    2.635007
    121          8           0      -10.432669    2.733282    3.603485
    122          8           0      -11.502084    4.404728    2.360425
    123          6           0      -11.293466    5.305554    3.525250
    124          1           0       -5.636138    2.656171   -2.552790
    125          1           0       -5.262328   -3.578073   -2.475575
    126          1           0      -10.900823   -3.937588    0.265396
    127          1           0       -9.599847    4.378147   -0.165723
    128          1           0       -6.998513    4.429330   -1.246273
    129          1           0       -9.673401    3.806963   -2.428562
    130          1           0       -8.303601    2.998654   -3.218891
    131          1           0       -8.305855    4.735066   -3.151705
    132          1           0       -6.872279    4.062108    1.109540
    133          1           0       -8.329121    3.875827    2.152674
    134          1           0       -8.595292    6.304701    0.690738
    135          1           0       -6.899802    6.144980    0.981735
    136          1           0       -3.581488    2.344174   -2.901805
    137          1           0       -2.836767    1.102269   -3.851675
    138          1           0       -2.234438    1.354851   -2.196330
    139          1           0       -1.606530   -0.752534   -3.704829
    140          1           0       -0.815082   -2.262426   -2.969597
    141          1           0       -1.269719   -0.839831   -1.988302
    142          1           0       -6.662156   -5.460561   -1.477375
    143          1           0       -9.627074   -5.298626   -1.676953
    144          1           0       -7.017939   -6.180215   -3.595068
    145          1           0       -7.515824   -4.499937   -4.001025
    146          1           0       -8.689547   -5.626865   -3.544898
    147          1           0       -8.390072   -7.053286   -0.349242
    148          1           0       -9.739590   -6.307060    0.485583
    149          1           0       -6.837318   -6.040023    0.781637
    150          1           0       -8.060426   -6.236412    2.089406
    151          1           0       -7.772251   -4.628613    1.285493
    152          1           0      -13.291322   -2.108380    2.349540
    153          1           0      -12.693397   -3.406132    1.265795
    154          1           0      -13.592567   -2.008820    0.550766
    155          1           0      -11.846882    2.812986    0.636390
    156          1           0      -12.262855    5.757295    3.757418
    157          1           0      -10.476193    5.990416    3.230666
    158          1           0      -11.040943    4.847328    4.474311
 ---------------------------------------------------------------------

 SCF Done:  E(RCAM-B3LYP) =  -4069.81204043     A.U. after   19 cycles

 Excitation energies and oscillator strengths:

 Excited State   1:      Singlet-A      1.6717 eV  741.67 nm  f=0.2171  <S**2>=0.000
     309 -> 315        0.10177
     310 -> 316        0.14023
     311 -> 313        0.40163
     312 -> 314        0.55643
 This state for optimization and/or second-order correction.
 Total Energy, E(TD-HF/TD-DFT) =  -4069.75060677
 Copying the excited state density for this state as the 1-particle RhoCI density.

 Excited State   2:      Singlet-A      1.6838 eV  736.34 nm  f=0.5597  <S**2>=0.000
     309 -> 315        0.14329
     310 -> 316       -0.10287
     311 -> 313        0.55579
     312 -> 314       -0.40131

 Excited State   3:      Singlet-A      2.1871 eV  566.89 nm  f=0.0531  <S**2>=0.000
     309 -> 313       -0.15683
     310 -> 314        0.62316
     312 -> 316       -0.26529

 Excited State   4:      Singlet-A      2.1936 eV  565.21 nm  f=0.1396  <S**2>=0.000
     309 -> 313        0.62130
     310 -> 314        0.15584
     311 -> 315       -0.27047

 Excited State   5:      Singlet-A      2.7555 eV  449.94 nm  f=0.0000  <S**2>=0.000
     312 -> 313        0.70703

 The electronic state is 1-A.
 Alpha  occ. eigenvalues --  -46.87860 -46.87570 -19.26419 -19.26301 -19.19159
 Alpha  occ. eigenvalues --  -19.19107 -19.18849 -19.18577 -19.18254 -19.17972
 Alpha  occ. eigenvalues --  -14.42516 -14.42408 -14.41506 -14.41271 -14.39463
 Alpha  occ. eigenvalues --  -14.39256 -14.38654 -14.38511 -10.39212 -10.39035
 Alpha  occ. eigenvalues --  -10.35481 -10.35247 -10.34476 -10.34151 -10.31828
 Alpha  occ. eigenvalues --  -10.31720 -10.31477 -10.31225 -10.30977 -10.30927
 Alpha  occ. eigenvalues --  -10.30637 -10.30567 -10.30308 -10.30271 -10.30251
 Alpha  occ. eigenvalues --  -10.30044 -10.29975 -10.29814 -10.29690 -10.29334
 Alpha  occ. eigenvalues --  -10.29309 -10.29297 -10.28835 -10.28655 -10.28642
 Alpha  occ. eigenvalues --  -10.28601 -10.28432 -10.28309 -10.28193 -10.28058
 Alpha  occ. eigenvalues --  -10.27904 -10.27856 -10.27789 -10.27641 -10.27574
 Alpha  occ. eigenvalues --  -10.27525 -10.27524 -10.27475 -10.27473 -10.27441
 Alpha  occ. eigenvalues --  -10.27395 -10.27356 -10.27300 -10.27279 -10.27252
 Alpha  occ. eigenvalues --  -10.26978 -10.26815 -10.26627 -10.26427 -10.26301
 Alpha  occ. eigenvalues --  -10.26207 -10.26186 -10.26072 -10.26070 -10.25942
 Alpha  occ. eigenvalues --  -10.25907 -10.25845 -10.25779 -10.25456 -10.25325
 Alpha  occ. eigenvalues --  -10.24900 -10.24842 -10.24780 -10.24677 -10.24665
 Alpha  occ. eigenvalues --  -10.24600  -3.16603  -3.16320  -1.91485  -1.91203
 Alpha  occ. eigenvalues --   -1.91071  -1.90914  -1.90791  -1.90628  -1.16768
 Alpha  occ. eigenvalues --   -1.16593  -1.08716  -1.08583  -1.07248  -1.06891
 Alpha  occ. eigenvalues --   -1.06829  -1.06779  -1.04648  -1.04405  -1.03818
 Alpha  occ. eigenvalues --   -1.03572  -1.03295  -1.02948  -1.02472  -1.02020
 Alpha  occ. eigenvalues --   -0.92046  -0.91902  -0.89561  -0.89411  -0.89267
 Alpha  occ. eigenvalues --   -0.89071  -0.88325  -0.88140  -0.87935  -0.87738
 Alpha  occ. eigenvalues --   -0.87709  -0.87595  -0.87322  -0.86982  -0.85058
 Alpha  occ. eigenvalues --   -0.84916  -0.83973  -0.83799  -0.83001  -0.82796
 Alpha  occ. eigenvalues --   -0.82718  -0.82548  -0.81678  -0.81525  -0.80669
 Alpha  occ. eigenvalues --   -0.80355  -0.78852  -0.78518  -0.77277  -0.77053
 Alpha  occ. eigenvalues --   -0.77011  -0.76825  -0.76002  -0.75754  -0.74944
 Alpha  occ. eigenvalues --   -0.74722  -0.72834  -0.72609  -0.71734  -0.71496
 Alpha  occ. eigenvalues --   -0.69931  -0.69681  -0.68944  -0.68738  -0.67705
 Alpha  occ. eigenvalues --   -0.67509  -0.67296  -0.67102  -0.65366  -0.65192
 Alpha  occ. eigenvalues --   -0.64926  -0.64689  -0.64686  -0.64574  -0.64314
 Alpha  occ. eigenvalues --   -0.64123  -0.62394  -0.62210  -0.60489  -0.60220
 Alpha  occ. eigenvalues --   -0.59878  -0.59711  -0.59050  -0.58907  -0.58569
 Alpha  occ. eigenvalues --   -0.58339  -0.57678  -0.57482  -0.57365  -0.57141
 Alpha  occ. eigenvalues --   -0.56375  -0.56107  -0.56083  -0.55814  -0.55578
 Alpha  occ. eigenvalues --   -0.55399  -0.55343  -0.55173  -0.54596  -0.54418
 Alpha  occ. eigenvalues --   -0.53976  -0.53831  -0.53354  -0.53291  -0.53132
 Alpha  occ. eigenvalues --   -0.53042  -0.52996  -0.52820  -0.52809  -0.52526
 Alpha  occ. eigenvalues --   -0.52460  -0.52326  -0.51982  -0.51807  -0.51692
 Alpha  occ. eigenvalues --   -0.51559  -0.51264  -0.51120  -0.50608  -0.50320
 Alpha  occ. eigenvalues --   -0.50066  -0.49968  -0.49872  -0.49772  -0.49580
 Alpha  occ. eigenvalues --   -0.49375  -0.49284  -0.49171  -0.49102  -0.49023
 Alpha  occ. eigenvalues --   -0.48674  -0.48513  -0.48496  -0.48477  -0.48298
 Alpha  occ. eigenvalues --   -0.48212  -0.47755  -0.47495  -0.47354  -0.47009
 Alpha  occ. eigenvalues --   -0.46855  -0.46635  -0.46625  -0.46466  -0.46420
 Alpha  occ. eigenvalues --   -0.46227  -0.46175  -0.46006  -0.45906  -0.45751
 Alpha  occ. eigenvalues --   -0.45242  -0.45126  -0.44655  -0.44559  -0.44433
 Alpha  occ. eigenvalues --   -0.44386  -0.44199  -0.44154  -0.44086  -0.44040
 Alpha  occ. eigenvalues --   -0.43986  -0.43818  -0.43582  -0.43486  -0.43448
 Alpha  occ. eigenvalues --   -0.43302  -0.43091  -0.42862  -0.42821  -0.42807
 Alpha  occ. eigenvalues --   -0.42695  -0.42464  -0.42062  -0.41888  -0.41771
 Alpha  occ. eigenvalues --   -0.41607  -0.41586  -0.41378  -0.41204  -0.40934
 Alpha  occ. eigenvalues --   -0.40904  -0.40868  -0.40632  -0.40613  -0.40585
 Alpha  occ. eigenvalues --   -0.40416  -0.40323  -0.40139  -0.39460  -0.39350
 Alpha  occ. eigenvalues --   -0.38512  -0.38273  -0.37837  -0.37580  -0.37367
 Alpha  occ. eigenvalues --   -0.37343  -0.37184  -0.37113  -0.36819  -0.36712
 Alpha  occ. eigenvalues --   -0.36268  -0.36142  -0.34350  -0.34166  -0.33897
 Alpha  occ. eigenvalues --   -0.33801  -0.33253  -0.33086  -0.31380  -0.31140
 Alpha  occ. eigenvalues --   -0.31098  -0.30881  -0.30115  -0.29879  -0.29507
 Alpha  occ. eigenvalues --   -0.29388  -0.29221  -0.29118  -0.24144  -0.23948
 Alpha  occ. eigenvalues --   -0.21188  -0.21024
 Alpha virt. eigenvalues --   -0.08834  -0.08694  -0.01806  -0.01591  -0.00113
 Alpha virt. eigenvalues --    0.00086   0.02131   0.02294   0.03035   0.03308
 Alpha virt. eigenvalues --    0.04645   0.04811   0.04974   0.05224   0.06079

 Mulliken charges:
               1
     1  Mg   0.838196
     2  C   -0.003395
     3  C   -0.094219
     4  C   -0.045624
     5  C   -0.063769
     6  N   -0.256813
     7  C   -0.052646
     8  C   -0.013979
     9  C   -0.086994
    10  C    0.046249
    11  C    0.104767
    12  C    0.053504
    13  C   -0.071636
    14  H    0.035302
    15  N   -0.433212
    16  C    0.168458
    17  C   -0.177074
    18  C   -0.003791
    19  C    0.148722
    20  C    0.110136
    21  C    0.012486
    22  O   -0.249188
    23  C    0.062395
    24  N   -0.341131
    25  C    0.041309
    26  C   -0.028270
    27  C   -0.024013
    28  C    0.074817
    29  C    0.076107
    30  C    0.035044
    31  C   -0.004610
    32  N   -0.310343
    33  C    0.080108
    34  C   -0.169893
    35  C    0.008169
    36  C    0.082631
    37  C    0.127388
    38  C    0.045724
    39  O   -0.188866
    40  C   -0.005177
    41  C    0.212962
    42  O   -0.258120
    43  O   -0.304495
    44  C    0.157924
    45  H   -0.017459
    46  H   -0.016446
    47  H   -0.041292
    48  H    0.000915
    49  H   -0.004028
    50  H    0.025495
    51  H    0.016637
    52  H    0.016791
    53  H    0.011152
    54  H    0.043405
    55  H    0.018140
    56  H    0.018186
    57  H    0.005861
    58  H    0.027086
    59  H    0.039789
    60  H    0.037368
    61  H    0.036103
    62  H    0.031606
    63  H    0.016982
    64  H    0.009521
    65  H    0.023523
    66  H    0.012476
    67  H    0.004853
    68  H    0.006773
    69  H    0.004747
    70  H    0.009277
    71  H    0.018939
    72  H    0.028220
    73  H    0.047158
    74  H    0.009355
    75  H    0.046100
    76  H    0.035289
    77  H    0.043031
    78  H    0.046503
    79  H    0.052803
    80  Mg   0.837620
    81  C   -0.016863
    82  C   -0.087655
    83  C   -0.045473
    84  C   -0.064935
    85  N   -0.254551
    86  C   -0.050098
    87  C   -0.015091
    88  C   -0.090476
    89  C    0.045688
    90  C    0.114343
    91  C    0.062518
    92  C   -0.077735
    93  H    0.034318
    94  N   -0.423601
    95  C    0.162883
    96  C   -0.174325
    97  C   -0.007562
    98  C    0.152107
    99  C    0.099192
   100  C    0.015508
   101  O   -0.253521
   102  C    0.061400
   103  N   -0.350034
   104  C    0.037580
   105  C   -0.019855
   106  C   -0.034709
   107  C    0.088724
   108  C    0.073704
   109  C    0.034795
   110  C   -0.007650
   111  N   -0.324009
   112  C    0.078157
   113  C   -0.163400
   114  C    0.002096
   115  C    0.095999
   116  C    0.131544
   117  C    0.042164
   118  O   -0.188375
   119  C    0.000957
   120  C    0.211213
   121  O   -0.251184
   122  O   -0.305602
   123  C    0.152134
   124  H   -0.019188
   125  H   -0.015548
   126  H   -0.040737
   127  H   -0.000831
   128  H   -0.004177
   129  H    0.022306
   130  H    0.014573
   131  H    0.016382
   132  H    0.014003
   133  H    0.037487
   134  H    0.020760
   135  H    0.019693
   136  H    0.008903
   137  H    0.027134
   138  H    0.041344
   139  H    0.039361
   140  H    0.036532
   141  H    0.034519
   142  H    0.014372
   143  H    0.012234
   144  H    0.025052
   145  H    0.011760
   146  H    0.005527
   147  H    0.006100
   148  H    0.003472
   149  H    0.010967
   150  H    0.017709
   151  H    0.030170
   152  H    0.045707
   153  H    0.008323
   154  H    0.046722
   155  H    0.034882
   156  H    0.043727
   157  H    0.049443
   158  H    0.053376
 Sum of Mulliken charges =  -0.00000

 Dipole moment (field-independent basis, Debye):
    X=              4.3551    Y=              2.9869    Z=              1.1231  Tot=              5.3991
 Quadrupole moment (field-independent basis, Debye-Ang):
   XX=           -539.0050   YY=           -466.3647   ZZ=           -520.9203
   XY=             12.1766   XZ=             68.2007   YZ=             26.4701

 Normal termination of Gaussian 16 at Sat Sep 11 19:33:04 2021.
