 Gaussian 16, Revision A.03,
 Gaussian 16:  ES64L-G16RevA.03 25-Dec-2016

 -----------------------------------
 #p cam-b3lyp/Def2SVP td=(nstates=5)
 -----------------------------------

 --------------------------------
 TDDFT excited states in gaussian
 --------------------------------
 Symbolic Z-matrix:
 Charge =  0 Multiplicity = 1

                         Standard orientation:
 ---------------------------------------------------------------------
 Center     Atomic      Atomic             Coordinates (Angstroms)
 Number     Number       Type             X           Y           Z
 ---------------------------------------------------------------------
      1         12           0       -4.527163   -0.118781    0.338583
      2          6           0       -4.177342    3.420392    0.743666
      3          6           0       -5.540754    0.497572   -2.860762
      4          6           0       -5.276234   -3.190973    0.099530
      5          6           0       -4.590558   -0.361657    3.814594
      6          7           0       -4.783733    1.762841   -0.799098
      7          6           0       -4.558426    3.048578   -0.547525
      8          6           0       -4.692151    3.957055   -1.806159
      9          6           0       -5.652501    3.033799   -2.682130
     10          6           0       -5.279401    1.679370   -2.105725
     11          6           0       -7.135640    3.283832   -2.428588
     12          6           0       -3.317664    4.192345   -2.518308
     13          6           0       -3.302907    5.320719   -3.553639
     14          1           0       -2.101565    6.130375   -3.689955
     15          7           0       -4.824081   -1.244679   -1.257363
     16          6           0       -5.219411   -0.824127   -2.482979
     17          6           0       -5.295960   -2.037266   -3.325069
     18          6           0       -5.096963   -3.218635   -2.440274
     19          6           0       -5.083746   -2.591987   -1.143156
     20          6           0       -5.487198   -1.997281   -4.810189
     21          6           0       -4.953617   -4.681525   -2.718730
     22          8           0       -5.021849   -5.560105   -1.792438
     23          6           0       -4.817885   -5.070633   -4.134079
     24          7           0       -5.104280   -1.553016    1.741274
     25          6           0       -5.312792   -2.824502    1.382343
     26          6           0       -5.436377   -3.717114    2.581471
     27          6           0       -5.024905   -2.825451    3.840591
     28          6           0       -4.802814   -1.476917    3.112304
     29          6           0       -6.823874   -4.328409    2.820596
     30          6           0       -3.892467   -3.369248    4.747391
     31          6           0       -2.582629   -3.364198    3.991482
     32          7           0       -4.231448    1.235033    2.009148
     33          6           0       -4.327050    0.924314    3.373328
     34          6           0       -4.153368    2.185673    4.116884
     35          6           0       -3.984229    3.151410    3.126637
     36          6           0       -4.074393    2.536621    1.845155
     37          6           0       -4.222179    2.336271    5.530043
     38          6           0       -3.772881    4.563540    2.852632
     39          8           0       -3.528123    5.553746    3.543341
     40          6           0       -4.010969    4.813416    1.298057
     41          6           0       -2.861546    5.640045    0.789315
     42          8           0       -1.705393    5.172002    0.749164
     43          8           0       -3.336498    6.755025    0.213310
     44          6           0       -2.248872    7.606047   -0.338944
     45          1           0       -6.093623    0.581763   -3.798412
     46          1           0       -5.427372   -4.271924    0.065762
     47          1           0       -4.514074   -0.372895    4.903391
     48          1           0       -5.167807    4.920652   -1.622701
     49          1           0       -5.402396    3.076486   -3.742011
     50          1           0       -7.287376    3.966107   -1.592288
     51          1           0       -7.561475    2.305709   -2.204017
     52          1           0       -7.631835    3.625143   -3.337474
     53          1           0       -3.098446    3.343464   -3.165923
     54          1           0       -2.528209    4.364697   -1.785928
     55          1           0       -4.183874    5.956735   -3.462587
     56          1           0       -3.391199    4.875917   -4.544878
     57          1           0       -5.768287   -1.001644   -5.151129
     58          1           0       -6.354809   -2.616827   -5.036290
     59          1           0       -4.616292   -2.374541   -5.346406
     60          1           0       -5.692693   -4.727848   -4.687034
     61          1           0       -4.636625   -6.144874   -4.134554
     62          1           0       -3.960955   -4.550176   -4.562733
     63          1           0       -4.758305   -4.566404    2.508322
     64          1           0       -5.860971   -2.670915    4.523076
     65          1           0       -6.820857   -5.417826    2.863780
     66          1           0       -7.489799   -3.969974    2.036148
     67          1           0       -7.332259   -3.971922    3.716074
     68          1           0       -4.095736   -4.401611    5.029973
     69          1           0       -3.761523   -2.794113    5.664083
     70          1           0       -2.621346   -4.297660    3.431141
     71          1           0       -1.742337   -3.360641    4.686542
     72          1           0       -2.544287   -2.550554    3.266913
     73          1           0       -3.397598    2.992886    5.807335
     74          1           0       -4.148742    1.373303    6.034921
     75          1           0       -5.207436    2.789787    5.637047
     76          1           0       -4.962822    5.335670    1.206684
     77          1           0       -2.354965    8.593791    0.109766
     78          1           0       -2.319242    7.533182   -1.424367
     79          1           0       -1.233843    7.349319   -0.033744
     80         12           0        4.356141   -1.440252   -0.276627
     81          6           0        5.319830    1.999865    0.063943
     82          6           0        2.836755   -0.569599   -3.203755
     83          6           0        3.111048   -4.356749   -0.382542
     84          6           0        4.934968   -1.796446    3.141521
     85          7           0        4.171572    0.496436   -1.328988
     86          6           0        4.631084    1.723526   -1.135517
     87          6           0        4.405687    2.690324   -2.328858
     88          6           0        3.150726    1.950195   -3.004248
     89          6           0        3.414173    0.527320   -2.515678
     90          6           0        1.812191    2.406154   -2.447689
     91          6           0        5.636414    2.736954   -3.301046
     92          6           0        5.613053    3.884164   -4.313523
     93          1           0        6.879275    4.507616   -4.688309
     94          7           0        3.580916   -2.451205   -1.798332
     95          6           0        3.026892   -1.939340   -2.917403
     96          6           0        2.588784   -3.095537   -3.714532
     97          6           0        2.780601   -4.326395   -2.900349
     98          6           0        3.153657   -3.744454   -1.626665
     99          6           0        2.125061   -2.974375   -5.137112
    100          6           0        2.637865   -5.785309   -3.212443
    101          8           0        2.623091   -6.673291   -2.288265
    102          6           0        2.422237   -6.135750   -4.623885
    103          7           0        3.860472   -2.816239    1.200970
    104          6           0        3.383652   -4.032164    0.881430
    105          6           0        3.360398   -4.942759    2.085861
    106          6           0        4.150444   -4.157573    3.233419
    107          6           0        4.428670   -2.833500    2.488562
    108          6           0        1.974144   -5.332817    2.598260
    109          6           0        5.344028   -4.896611    3.898143
    110          6           0        6.462982   -5.074405    2.897290
    111          7           0        5.181061   -0.211607    1.297532
    112          6           0        5.306974   -0.546413    2.663591
    113          6           0        5.817186    0.652176    3.360377
    114          6           0        5.931788    1.615868    2.347145
    115          6           0        5.502831    1.063462    1.110076
    116          6           0        6.062727    0.760328    4.758280
    117          6           0        6.308065    2.978097    2.044715
    118          8           0        6.826717    3.896945    2.677522
    119          6           0        5.809084    3.326049    0.576270
    120          6           0        6.945729    3.984233   -0.156771
    121          8           0        7.983294    3.349145   -0.415092
    122          8           0        6.537636    5.179576   -0.620433
    123          6           0        7.627085    5.866209   -1.364378
    124          1           0        2.137649   -0.363470   -4.014710
    125          1           0        2.793052   -5.401908   -0.382057
    126          1           0        5.234264   -1.856393    4.190092
    127          1           0        4.134794    3.701422   -2.049435
    128          1           0        3.201763    1.996469   -4.088967
    129          1           0        1.931566    3.069421   -1.603912
    130          1           0        1.294875    1.503709   -2.149308
    131          1           0        1.206236    2.852480   -3.241378
    132          1           0        5.584340    1.880818   -3.985936
    133          1           0        6.556499    2.759910   -2.750099
    134          1           0        4.870542    4.648368   -4.053483
    135          1           0        5.269399    3.492414   -5.273965
    136          1           0        1.933847   -1.929263   -5.410228
    137          1           0        1.142189   -3.454444   -5.195022
    138          1           0        2.799501   -3.463641   -5.843101
    139          1           0        1.523196   -5.642182   -4.985249
    140          1           0        2.433798   -7.226854   -4.659149
    141          1           0        3.256836   -5.740807   -5.213866
    142          1           0        3.875446   -5.872548    1.877713
    143          1           0        3.496037   -3.909300    4.081917
    144          1           0        1.813991   -6.426957    2.634114
    145          1           0        1.232056   -4.860327    1.968494
    146          1           0        1.720530   -4.946378    3.583923
    147          1           0        5.042720   -5.900181    4.208355
    148          1           0        5.730357   -4.390435    4.776506
    149          1           0        6.163826   -5.973170    2.349741
    150          1           0        7.413165   -5.220692    3.406976
    151          1           0        6.486129   -4.244648    2.181316
    152          1           0        7.008922    1.273018    4.869444
    153          1           0        6.080887   -0.217245    5.235556
    154          1           0        5.194388    1.350192    5.063758
    155          1           0        4.946248    3.986403    0.671341
    156          1           0        7.763124    6.847114   -0.898525
    157          1           0        7.318779    5.851493   -2.426677
    158          1           0        8.625997    5.453657   -1.284256
 ---------------------------------------------------------------------

 SCF Done:  E(RCAM-B3LYP) =  -4069.81133894     A.U. after   19 cycles

 Excitation energies and oscillator strengths:

 Excited State   1:      Singlet-A      1.6466 eV  752.96 nm  f=0.0157  <S**2>=0.000
     309 -> 315       -0.11352
     310 -> 316        0.12183
     311 -> 313       -0.46645
     312 -> 314        0.50542
 This state for optimization and/or second-order correction.
 Total Energy, E(TD-HF/TD-DFT) =  -4069.75082673
 Copying the excited state density for this state as the 1-particle RhoCI density.

 Excited State   2:      Singlet-A      1.7039 eV  727.65 nm  f=0.6875  <S**2>=0.000
     309 -> 315        0.13405
     310 -> 316        0.12235
     311 -> 313        0.50270
     312 -> 314        0.46399

 Excited State   3:      Singlet-A      2.1798 eV  568.79 nm  f=0.0146  <S**2>=0.000
     309 -> 313       -0.31168
     310 -> 314        0.56518
     311 -> 315        0.12846
     312 -> 316       -0.23430

 Excited State   4:      Singlet-A      2.1961 eV  564.57 nm  f=0.1594  <S**2>=0.000
     309 -> 313        0.56005
     310 -> 314        0.30698
     311 -> 315       -0.24705
     312 -> 316       -0.13653

 Excited State   5:      Singlet-A      2.3373 eV  530.47 nm  f=0.0000  <S**2>=0.000
     312 -> 313        0.70703

 The electronic state is 1-A.
 Alpha  occ. eigenvalues --  -46.87940 -46.87448 -19.26458 -19.26137 -19.19202
 Alpha  occ. eigenvalues --  -19.18949 -19.18920 -19.18548 -19.18292 -19.17810
 Alpha  occ. eigenvalues --  -14.42606 -14.42275 -14.41587 -14.41153 -14.39544
 Alpha  occ. eigenvalues --  -14.39148 -14.38726 -14.38381 -10.39257 -10.38871
 Alpha  occ. eigenvalues --  -10.35556 -10.35231 -10.34516 -10.33982 -10.31855
 Alpha  occ. eigenvalues --  -10.31580 -10.31566 -10.31078 -10.31076 -10.30809
 Alpha  occ. eigenvalues --  -10.30718 -10.30635 -10.30342 -10.30184 -10.30147
 Alpha  occ. eigenvalues --  -10.30041 -10.29960 -10.29767 -10.29681 -10.29394
 Alpha  occ. eigenvalues --  -10.29245 -10.29202 -10.28969 -10.28863 -10.28521
 Alpha  occ. eigenvalues --  -10.28511 -10.28472 -10.28315 -10.28189 -10.27928
 Alpha  occ. eigenvalues --  -10.27884 -10.27868 -10.27793 -10.27725 -10.27680
 Alpha  occ. eigenvalues --  -10.27614 -10.27553 -10.27546 -10.27465 -10.27403
 Alpha  occ. eigenvalues --  -10.27362 -10.27306 -10.27277 -10.27260 -10.27206
 Alpha  occ. eigenvalues --  -10.27010 -10.26778 -10.26551 -10.26513 -10.26404
 Alpha  occ. eigenvalues --  -10.26320 -10.26300 -10.26156 -10.26007 -10.25943
 Alpha  occ. eigenvalues --  -10.25739 -10.25626 -10.25605 -10.25518 -10.25232
 Alpha  occ. eigenvalues --  -10.24966 -10.24915 -10.24814 -10.24654 -10.24602
 Alpha  occ. eigenvalues --  -10.24479  -3.16682  -3.16198  -1.91564  -1.91151
 Alpha  occ. eigenvalues --   -1.91080  -1.90993  -1.90669  -1.90506  -1.16808
 Alpha  occ. eigenvalues --   -1.16431  -1.08751  -1.08413  -1.07316  -1.06820
 Alpha  occ. eigenvalues --   -1.06800  -1.06733  -1.04739  -1.04272  -1.03900
 Alpha  occ. eigenvalues --   -1.03452  -1.03372  -1.02833  -1.02550  -1.01900
 Alpha  occ. eigenvalues --   -0.92119  -0.91756  -0.89648  -0.89394  -0.89309
 Alpha  occ. eigenvalues --   -0.88901  -0.88410  -0.88042  -0.88000  -0.87838
 Alpha  occ. eigenvalues --   -0.87577  -0.87481  -0.87424  -0.86969  -0.85177
 Alpha  occ. eigenvalues --   -0.84780  -0.84057  -0.83703  -0.83105  -0.82823
 Alpha  occ. eigenvalues --   -0.82794  -0.82446  -0.81744  -0.81389  -0.80750
 Alpha  occ. eigenvalues --   -0.80242  -0.78945  -0.78460  -0.77381  -0.77108
 Alpha  occ. eigenvalues --   -0.76948  -0.76690  -0.76090  -0.75603  -0.75023
 Alpha  occ. eigenvalues --   -0.74615  -0.72914  -0.72492  -0.71817  -0.71356
 Alpha  occ. eigenvalues --   -0.70029  -0.69595  -0.69055  -0.68615  -0.67787
 Alpha  occ. eigenvalues --   -0.67428  -0.67405  -0.67024  -0.65476  -0.65049
 Alpha  occ. eigenvalues --   -0.65002  -0.64779  -0.64564  -0.64446  -0.64399
 Alpha  occ. eigenvalues --   -0.64019  -0.62452  -0.62075  -0.60581  -0.60171
 Alpha  occ. eigenvalues --   -0.59986  -0.59562  -0.59130  -0.58786  -0.58647
 Alpha  occ. eigenvalues --   -0.58220  -0.57734  -0.57443  -0.57319  -0.57046
 Alpha  occ. eigenvalues --   -0.56455  -0.56153  -0.56010  -0.55689  -0.55665
 Alpha  occ. eigenvalues --   -0.55470  -0.55266  -0.55058  -0.54666  -0.54300
 Alpha  occ. eigenvalues --   -0.54100  -0.53678  -0.53441  -0.53397  -0.53076
 Alpha  occ. eigenvalues --   -0.53043  -0.52944  -0.52926  -0.52706  -0.52562
 Alpha  occ. eigenvalues --   -0.52503  -0.52246  -0.52034  -0.51811  -0.51662
 Alpha  occ. eigenvalues --   -0.51460  -0.51341  -0.50994  -0.50735  -0.50353
 Alpha  occ. eigenvalues --   -0.50171  -0.50069  -0.49784  -0.49690  -0.49681
 Alpha  occ. eigenvalues --   -0.49368  -0.49289  -0.49268  -0.48989  -0.48846
 Alpha  occ. eigenvalues --   -0.48747  -0.48581  -0.48577  -0.48338  -0.48198
 Alpha  occ. eigenvalues --   -0.48159  -0.47854  -0.47442  -0.47405  -0.46952
 Alpha  occ. eigenvalues --   -0.46948  -0.46752  -0.46513  -0.46500  -0.46341
 Alpha  occ. eigenvalues --   -0.46296  -0.46089  -0.45967  -0.45885  -0.45603
 Alpha  occ. eigenvalues --   -0.45324  -0.45019  -0.44724  -0.44672  -0.44305
 Alpha  occ. eigenvalues --   -0.44285  -0.44271  -0.44266  -0.44165  -0.43908
 Alpha  occ. eigenvalues --   -0.43891  -0.43750  -0.43645  -0.43550  -0.43350
 Alpha  occ. eigenvalues --   -0.43175  -0.43167  -0.42854  -0.42788  -0.42727
 Alpha  occ. eigenvalues --   -0.42687  -0.42382  -0.42162  -0.41851  -0.41780
 Alpha  occ. eigenvalues --   -0.41724  -0.41444  -0.41291  -0.41257  -0.41052
 Alpha  occ. eigenvalues --   -0.40972  -0.40761  -0.40702  -0.40552  -0.40501
 Alpha  occ. eigenvalues --   -0.40478  -0.40299  -0.40040  -0.39565  -0.39269
 Alpha  occ. eigenvalues --   -0.38609  -0.38167  -0.37981  -0.37467  -0.37456
 Alpha  occ. eigenvalues --   -0.37450  -0.37076  -0.36987  -0.36873  -0.36570
 Alpha  occ. eigenvalues --   -0.36346  -0.36020  -0.34430  -0.34040  -0.33945
 Alpha  occ. eigenvalues --   -0.33649  -0.33330  -0.32967  -0.31450  -0.31178
 Alpha  occ. eigenvalues --   -0.31104  -0.30757  -0.30153  -0.29711  -0.29586
 Alpha  occ. eigenvalues --   -0.29454  -0.29137  -0.28990  -0.24224  -0.23818
 Alpha  occ. eigenvalues --   -0.21271  -0.20908
 Alpha virt. eigenvalues --   -0.08914  -0.08585  -0.01887  -0.01479  -0.00197
 Alpha virt. eigenvalues --    0.00165   0.02072   0.02424   0.02790   0.03478
 Alpha virt. eigenvalues --    0.04529   0.04897   0.04965   0.05386   0.05889

 Mulliken charges:
               1
     1  Mg   0.838616
     2  C   -0.003449
     3  C   -0.095550
     4  C   -0.044930
     5  C   -0.063630
     6  N   -0.256701
     7  C   -0.052915
     8  C   -0.013837
     9  C   -0.086786
    10  C    0.045878
    11  C    0.104768
    12  C    0.053565
    13  C   -0.071432
    14  H    0.034334
    15  N   -0.433178
    16  C    0.168204
    17  C   -0.178186
    18  C   -0.003793
    19  C    0.149077
    20  C    0.110422
    21  C    0.013200
    22  O   -0.247985
    23  C    0.062746
    24  N   -0.341045
    25  C    0.041096
    26  C   -0.028465
    27  C   -0.024031
    28  C    0.074874
    29  C    0.076004
    30  C    0.035038
    31  C   -0.005666
    32  N   -0.310590
    33  C    0.080583
    34  C   -0.169275
    35  C    0.008679
    36  C    0.083137
    37  C    0.127209
    38  C    0.046428
    39  O   -0.187542
    40  C   -0.005551
    41  C    0.213323
    42  O   -0.258053
    43  O   -0.304588
    44  C    0.157461
    45  H   -0.017804
    46  H   -0.016023
    47  H   -0.041152
    48  H    0.001422
    49  H   -0.004931
    50  H    0.025811
    51  H    0.016866
    52  H    0.016706
    53  H    0.009127
    54  H    0.043610
    55  H    0.019229
    56  H    0.017226
    57  H    0.005415
    58  H    0.027407
    59  H    0.037397
    60  H    0.037213
    61  H    0.036965
    62  H    0.029067
    63  H    0.017433
    64  H    0.009750
    65  H    0.023763
    66  H    0.012541
    67  H    0.004875
    68  H    0.006686
    69  H    0.004664
    70  H    0.010329
    71  H    0.017028
    72  H    0.029600
    73  H    0.048230
    74  H    0.009222
    75  H    0.046299
    76  H    0.035422
    77  H    0.044007
    78  H    0.045621
    79  H    0.053618
    80  Mg   0.838220
    81  C   -0.016110
    82  C   -0.088145
    83  C   -0.045332
    84  C   -0.064896
    85  N   -0.254714
    86  C   -0.047891
    87  C   -0.015134
    88  C   -0.091331
    89  C    0.046642
    90  C    0.114006
    91  C    0.062645
    92  C   -0.077197
    93  H    0.033942
    94  N   -0.423416
    95  C    0.162964
    96  C   -0.175540
    97  C   -0.007759
    98  C    0.151701
    99  C    0.100285
   100  C    0.015607
   101  O   -0.252773
   102  C    0.061596
   103  N   -0.349924
   104  C    0.037192
   105  C   -0.019843
   106  C   -0.034775
   107  C    0.089195
   108  C    0.073511
   109  C    0.034848
   110  C   -0.007560
   111  N   -0.324433
   112  C    0.079201
   113  C   -0.162601
   114  C    0.003325
   115  C    0.096388
   116  C    0.131079
   117  C    0.043417
   118  O   -0.187423
   119  C    0.000278
   120  C    0.210834
   121  O   -0.251720
   122  O   -0.304978
   123  C    0.152307
   124  H   -0.021326
   125  H   -0.015472
   126  H   -0.040848
   127  H    0.000639
   128  H   -0.006482
   129  H    0.031095
   130  H    0.014256
   131  H    0.013334
   132  H    0.013265
   133  H    0.037455
   134  H    0.020668
   135  H    0.018606
   136  H    0.007523
   137  H    0.023221
   138  H    0.039085
   139  H    0.036609
   140  H    0.036245
   141  H    0.033425
   142  H    0.014061
   143  H    0.011766
   144  H    0.024753
   145  H    0.013222
   146  H    0.004408
   147  H    0.005713
   148  H    0.003391
   149  H    0.010795
   150  H    0.017552
   151  H    0.030371
   152  H    0.045655
   153  H    0.007762
   154  H    0.048783
   155  H    0.038931
   156  H    0.043741
   157  H    0.048898
   158  H    0.053114
 Sum of Mulliken charges =  -0.00000

 Dipole moment (field-independent basis, Debye):
    X=             -5.6097    Y=             -0.6868    Z=             -6.5661  Tot=              8.6634
 Quadrupole moment (field-independent basis, Debye-Ang):
   XX=           -530.3030   YY=           -539.7867   ZZ=           -455.1265
   XY=            -15.3532   XZ=              2.0093   YZ=            -52.1132

 Normal termination of Gaussian 16 at Thu Sep  9 15:42:21 2021.
