 Gaussian 16, Revision A.03,
 Gaussian 16:  ES64L-G16RevA.03 25-Dec-2016

 -----------------------------------
 #p cam-b3lyp/Def2SVP td=(nstates=5)
 -----------------------------------

 --------------------------------
 TDDFT excited states in gaussian
 --------------------------------
 Symbolic Z-matrix:
 Charge =  0 Multiplicity = 1

                         Standard orientation:
 ---------------------------------------------------------------------
 Center     Atomic      Atomic             Coordinates (Angstroms)
 Number     Number       Type             X           Y           Z
 ---------------------------------------------------------------------
      1         12           0       15.493555    0.719479    0.442315
      2          6           0       15.768974   -2.466320   -1.166115
      3          6           0       16.410129    2.130760   -2.526059
      4          6           0       15.699261    3.500432    1.952482
      5          6           0       15.715640   -0.963265    3.486114
      6          7           0       15.997369   -0.161078   -1.525282
      7          6           0       16.006801   -1.392241   -2.026601
      8          6           0       16.218801   -1.429383   -3.569666
      9          6           0       16.957694   -0.028917   -3.756024
     10          6           0       16.395638    0.704506   -2.550990
     11          6           0       18.473883   -0.116418   -3.614541
     12          6           0       14.864825   -1.471727   -4.354960
     13          6           0       14.980653   -1.836574   -5.837803
     14          1           0       13.927056   -2.634077   -6.447123
     15          7           0       15.503926    2.563942   -0.265286
     16          6           0       15.893052    2.954414   -1.502783
     17          6           0       15.715389    4.421927   -1.541785
     18          6           0       15.371607    4.875386   -0.165455
     19          6           0       15.539042    3.652364    0.577217
     20          6           0       15.824590    5.230882   -2.797737
     21          6           0       14.968018    6.203009    0.393708
     22          8           0       14.940601    6.431437    1.651342
     23          6           0       14.687211    7.269763   -0.584160
     24          7           0       15.900769    1.232296    2.424442
     25          6           0       15.871015    2.507332    2.827409
     26          6           0       15.911450    2.608237    4.323445
     27          6           0       15.729452    1.119706    4.871991
     28          6           0       15.696074    0.371183    3.516680
     29          6           0       17.187580    3.219047    4.918772
     30          6           0       14.575836    0.876887    5.877292
     31          6           0       13.244160    1.058499    5.183928
     32          7           0       15.527071   -1.352481    1.087996
     33          6           0       15.647532   -1.823891    2.403266
     34          6           0       15.732051   -3.294073    2.329192
     35          6           0       15.671167   -3.576611    0.965994
     36          6           0       15.582350   -2.358567    0.233346
     37          6           0       15.906698   -4.175414    3.432447
     38          6           0       15.685294   -4.622878   -0.043453
     39          8           0       15.651140   -5.853984   -0.016891
     40          6           0       15.871950   -3.940290   -1.470008
     41          6           0       14.850806   -4.539948   -2.397901
     42          8           0       13.631963   -4.333327   -2.227326
     43          8           0       15.472769   -5.059488   -3.467379
     44          6           0       14.514032   -5.644812   -4.442250
     45          1           0       16.914226    2.667653   -3.332020
     46          1           0       15.663919    4.432105    2.520967
     47          1           0       15.701327   -1.560187    4.399860
     48          1           0       16.859786   -2.238151   -3.921030
     49          1           0       16.657607    0.470118   -4.677237
     50          1           0       18.786409   -1.105687   -3.280483
     51          1           0       18.741081    0.637543   -2.873838
     52          1           0       18.967192    0.183998   -4.539297
     53          1           0       14.468716   -0.460108   -4.443196
     54          1           0       14.159297   -2.148199   -3.871283
     55          1           0       15.959946   -2.256244   -6.069689
     56          1           0       14.935384   -0.916439   -6.420471
     57          1           0       16.249250    4.647844   -3.613995
     58          1           0       16.560904    6.012161   -2.610238
     59          1           0       14.873098    5.682344   -3.079121
     60          1           0       15.573871    7.440430   -1.195106
     61          1           0       14.327836    8.120468   -0.006232
     62          1           0       13.906924    6.928235   -1.264938
     63          1           0       15.096910    3.228202    4.695728
     64          1           0       16.617580    0.765384    5.395785
     65          1           0       17.003562    4.089174    5.549424
     66          1           0       17.857972    3.466914    4.096320
     67          1           0       17.799581    2.526460    5.496002
     68          1           0       14.618236    1.605388    6.686263
     69          1           0       14.596790   -0.116980    6.324551
     70          1           0       13.092650    2.136497    5.226330
     71          1           0       12.458016    0.532127    5.726258
     72          1           0       13.301691    0.778668    4.131849
     73          1           0       15.221926   -5.007574    3.269454
     74          1           0       15.701337   -3.672655    4.377256
     75          1           0       16.958787   -4.435994    3.318154
     76          1           0       16.891301   -4.155015   -1.789288
     77          1           0       14.810740   -6.681593   -4.601257
     78          1           0       14.508355   -4.981752   -5.307538
     79          1           0       13.489592   -5.775369   -4.091798
     80         12           0      -16.241459    0.314176   -0.198862
     81          6           0      -13.649605   -1.981388    0.745479
     82          6           0      -13.870523    2.766297   -0.179887
     83          6           0      -18.571483    2.432448   -0.587825
     84          6           0      -18.547089   -2.030858    0.954637
     85          7           0      -14.074229    0.273505    0.241264
     86          6           0      -13.186732   -0.666797    0.528555
     87          6           0      -11.710874   -0.186196    0.507710
     88          6           0      -11.963040    1.376544    0.778144
     89          6           0      -13.377575    1.496939    0.214869
     90          6           0      -12.005061    1.732649    2.254876
     91          6           0      -11.024067   -0.425038   -0.882705
     92          6           0       -9.502049   -0.266250   -0.883889
     93          1           0       -8.711811   -1.139464   -1.747306
     94          7           0      -16.175861    2.193517   -0.833169
     95          6           0      -15.125159    3.037976   -0.768441
     96          6           0      -15.592476    4.306791   -1.348006
     97          6           0      -17.053149    4.193341   -1.609271
     98          6           0      -17.333647    2.914801   -0.987371
     99          6           0      -14.666435    5.442421   -1.673928
    100          6           0      -18.037424    5.093301   -2.292996
    101          8           0      -19.301621    4.905562   -2.196173
    102          6           0      -17.481076    6.254898   -3.001979
    103          7           0      -18.253063    0.309848    0.326256
    104          6           0      -19.056867    1.334775   -0.007434
    105          6           0      -20.507852    0.989248    0.228451
    106          6           0      -20.528137   -0.574317    0.563740
    107          6           0      -19.009557   -0.855644    0.550703
    108          6           0      -21.200916    1.759483    1.352190
    109          6           0      -21.453048   -1.468756   -0.306427
    110          6           0      -20.934065   -1.521302   -1.725330
    111          7           0      -16.162203   -1.722000    0.519321
    112          6           0      -17.242844   -2.508248    0.975510
    113          6           0      -16.677598   -3.780906    1.468711
    114          6           0      -15.294167   -3.636455    1.285041
    115          6           0      -15.015088   -2.355692    0.736154
    116          6           0      -17.417530   -4.852355    2.043708
    117          6           0      -14.005561   -4.272062    1.440538
    118          8           0      -13.624642   -5.393459    1.773880
    119          6           0      -12.872921   -3.179839    1.215668
    120          6           0      -11.846788   -3.760316    0.281532
    121          8           0      -12.142877   -4.024954   -0.896988
    122          8           0      -10.636486   -3.704314    0.866688
    123          6           0       -9.583640   -4.258596   -0.025556
    124          1           0      -13.256544    3.645527    0.017250
    125          1           0      -19.422706    3.082504   -0.803075
    126          1           0      -19.208522   -2.851966    1.239211
    127          1           0      -11.086428   -0.602718    1.288965
    128          1           0      -11.272070    1.992502    0.208476
    129          1           0      -11.976105    0.854110    2.882154
    130          1           0      -12.931937    2.271643    2.401243
    131          1           0      -11.204805    2.438400    2.495378
    132          1           0      -11.298695    0.391612   -1.562706
    133          1           0      -11.287316   -1.387059   -1.277455
    134          1           0       -9.088183   -0.253257    0.131744
    135          1           0       -9.256313    0.719604   -1.286062
    136          1           0      -13.678812    5.299560   -1.218308
    137          1           0      -15.067291    6.333874   -1.179468
    138          1           0      -14.596803    5.634532   -2.746730
    139          1           0      -16.918409    6.869113   -2.302985
    140          1           0      -18.329838    6.726935   -3.500628
    141          1           0      -16.767041    5.897667   -3.752429
    142          1           0      -21.097157    1.165144   -0.663109
    143          1           0      -20.874546   -0.766540    1.589841
    144          1           0      -22.104001    2.303203    1.016234
    145          1           0      -20.485506    2.443701    1.788732
    146          1           0      -21.497999    1.157845    2.209496
    147          1           0      -22.456156   -1.038379   -0.358596
    148          1           0      -21.555917   -2.480390    0.071740
    149          1           0      -21.338403   -0.607049   -2.170002
    150          1           0      -21.305970   -2.406860   -2.236703
    151          1           0      -19.840878   -1.443179   -1.747687
    152          1           0      -17.024581   -5.765940    1.617747
    153          1           0      -18.483123   -4.748638    1.849950
    154          1           0      -17.176795   -4.710491    3.100679
    155          1           0      -12.449299   -2.941382    2.192022
    156          1           0       -9.073450   -5.048332    0.534532
    157          1           0       -8.974037   -3.391679   -0.342720
    158          1           0       -9.907465   -4.799754   -0.906889
 ---------------------------------------------------------------------

 SCF Done:  E(RCAM-B3LYP) =  -4069.81177132     A.U. after   19 cycles

 Excitation energies and oscillator strengths:

 Excited State   1:      Singlet-A      1.6753 eV  740.07 nm  f=0.2053  <S**2>=0.000
     310 -> 316        0.16810
     311 -> 314       -0.16984
     312 -> 313        0.66470
     310 <- 316        0.10134
 This state for optimization and/or second-order correction.
 Total Energy, E(TD-HF/TD-DFT) =  -4069.75020526
 Copying the excited state density for this state as the 1-particle RhoCI density.

 Excited State   2:      Singlet-A      1.6801 eV  737.95 nm  f=0.5718  <S**2>=0.000
     309 -> 315        0.17012
     311 -> 314        0.66433
     312 -> 313        0.16978
     309 <- 315        0.10185

 Excited State   3:      Singlet-A      2.1861 eV  567.16 nm  f=0.1032  <S**2>=0.000
     310 -> 313        0.64249
     312 -> 316       -0.27308

 Excited State   4:      Singlet-A      2.1925 eV  565.50 nm  f=0.0984  <S**2>=0.000
     309 -> 314        0.64071
     311 -> 315       -0.27827

 Excited State   5:      Singlet-A      3.0628 eV  404.81 nm  f=0.0000  <S**2>=0.000
     312 -> 314        0.70709

 The electronic state is 1-A.
 Alpha  occ. eigenvalues --  -46.87810 -46.87658 -19.26333 -19.26291 -19.19148
 Alpha  occ. eigenvalues --  -19.19028 -19.18832 -19.18715 -19.18179 -19.18045
 Alpha  occ. eigenvalues --  -14.42494 -14.42462 -14.41463 -14.41358 -14.39416
 Alpha  occ. eigenvalues --  -14.39350 -14.38600 -14.38597 -10.39087 -10.39078
 Alpha  occ. eigenvalues --  -10.35465 -10.35392 -10.34399 -10.34222 -10.31734
 Alpha  occ. eigenvalues --  -10.31683 -10.31417 -10.31305 -10.31019 -10.30921
 Alpha  occ. eigenvalues --  -10.30582 -10.30521 -10.30396 -10.30358 -10.30221
 Alpha  occ. eigenvalues --  -10.30141 -10.29934 -10.29894 -10.29644 -10.29435
 Alpha  occ. eigenvalues --  -10.29399 -10.29268 -10.28759 -10.28711 -10.28638
 Alpha  occ. eigenvalues --  -10.28547 -10.28402 -10.28377 -10.28133 -10.28127
 Alpha  occ. eigenvalues --  -10.27999 -10.27805 -10.27740 -10.27666 -10.27598
 Alpha  occ. eigenvalues --  -10.27519 -10.27516 -10.27496 -10.27480 -10.27466
 Alpha  occ. eigenvalues --  -10.27464 -10.27463 -10.27416 -10.27377 -10.27168
 Alpha  occ. eigenvalues --  -10.27042 -10.26715 -10.26681 -10.26430 -10.26417
 Alpha  occ. eigenvalues --  -10.26243 -10.26200 -10.26140 -10.26032 -10.26018
 Alpha  occ. eigenvalues --  -10.25933 -10.25853 -10.25849 -10.25449 -10.25401
 Alpha  occ. eigenvalues --  -10.24870 -10.24845 -10.24801 -10.24733 -10.24705
 Alpha  occ. eigenvalues --  -10.24688  -3.16553  -3.16408  -1.91434  -1.91291
 Alpha  occ. eigenvalues --   -1.91021  -1.90879  -1.90863  -1.90716  -1.16639
 Alpha  occ. eigenvalues --   -1.16627  -1.08651  -1.08637  -1.07233  -1.06967
 Alpha  occ. eigenvalues --   -1.06932  -1.06650  -1.04593  -1.04492  -1.03774
 Alpha  occ. eigenvalues --   -1.03661  -1.03247  -1.03037  -1.02424  -1.02109
 Alpha  occ. eigenvalues --   -0.91984  -0.91983  -0.89534  -0.89494  -0.89198
 Alpha  occ. eigenvalues --   -0.89144  -0.88301  -0.88220  -0.87882  -0.87791
 Alpha  occ. eigenvalues --   -0.87685  -0.87681  -0.87289  -0.87119  -0.84994
 Alpha  occ. eigenvalues --   -0.84993  -0.83951  -0.83876  -0.82983  -0.82932
 Alpha  occ. eigenvalues --   -0.82661  -0.82647  -0.81595  -0.81587  -0.80608
 Alpha  occ. eigenvalues --   -0.80437  -0.78811  -0.78634  -0.77231  -0.77140
 Alpha  occ. eigenvalues --   -0.76945  -0.76892  -0.75933  -0.75832  -0.74911
 Alpha  occ. eigenvalues --   -0.74801  -0.72787  -0.72697  -0.71684  -0.71578
 Alpha  occ. eigenvalues --   -0.69922  -0.69758  -0.68885  -0.68822  -0.67654
 Alpha  occ. eigenvalues --   -0.67598  -0.67232  -0.67193  -0.65297  -0.65265
 Alpha  occ. eigenvalues --   -0.64865  -0.64766  -0.64648  -0.64632  -0.64283
 Alpha  occ. eigenvalues --   -0.64203  -0.62307  -0.62269  -0.60456  -0.60339
 Alpha  occ. eigenvalues --   -0.59815  -0.59791  -0.59000  -0.58990  -0.58516
 Alpha  occ. eigenvalues --   -0.58422  -0.57594  -0.57547  -0.57322  -0.57234
 Alpha  occ. eigenvalues --   -0.56322  -0.56201  -0.55987  -0.55876  -0.55534
 Alpha  occ. eigenvalues --   -0.55447  -0.55352  -0.55244  -0.54535  -0.54482
 Alpha  occ. eigenvalues --   -0.53906  -0.53905  -0.53312  -0.53234  -0.53225
 Alpha  occ. eigenvalues --   -0.53136  -0.52926  -0.52896  -0.52770  -0.52666
 Alpha  occ. eigenvalues --   -0.52453  -0.52402  -0.51926  -0.51882  -0.51652
 Alpha  occ. eigenvalues --   -0.51628  -0.51207  -0.51196  -0.50589  -0.50475
 Alpha  occ. eigenvalues --   -0.50046  -0.49977  -0.49932  -0.49867  -0.49527
 Alpha  occ. eigenvalues --   -0.49484  -0.49226  -0.49197  -0.49106  -0.49098
 Alpha  occ. eigenvalues --   -0.48603  -0.48552  -0.48475  -0.48458  -0.48375
 Alpha  occ. eigenvalues --   -0.48336  -0.47707  -0.47590  -0.47310  -0.47116
 Alpha  occ. eigenvalues --   -0.46810  -0.46706  -0.46566  -0.46547  -0.46372
 Alpha  occ. eigenvalues --   -0.46268  -0.46174  -0.46082  -0.45832  -0.45815
 Alpha  occ. eigenvalues --   -0.45215  -0.45208  -0.44589  -0.44521  -0.44509
 Alpha  occ. eigenvalues --   -0.44471  -0.44158  -0.44123  -0.44099  -0.44076
 Alpha  occ. eigenvalues --   -0.44031  -0.43935  -0.43544  -0.43505  -0.43398
 Alpha  occ. eigenvalues --   -0.43381  -0.43039  -0.42922  -0.42895  -0.42709
 Alpha  occ. eigenvalues --   -0.42667  -0.42553  -0.42022  -0.41961  -0.41716
 Alpha  occ. eigenvalues --   -0.41665  -0.41545  -0.41453  -0.41153  -0.40986
 Alpha  occ. eigenvalues --   -0.40881  -0.40839  -0.40719  -0.40694  -0.40585
 Alpha  occ. eigenvalues --   -0.40492  -0.40245  -0.40218  -0.39457  -0.39426
 Alpha  occ. eigenvalues --   -0.38482  -0.38349  -0.37759  -0.37645  -0.37334
 Alpha  occ. eigenvalues --   -0.37275  -0.37264  -0.37194  -0.36760  -0.36722
 Alpha  occ. eigenvalues --   -0.36213  -0.36204  -0.34299  -0.34251  -0.33851
 Alpha  occ. eigenvalues --   -0.33779  -0.33199  -0.33173  -0.31361  -0.31273
 Alpha  occ. eigenvalues --   -0.31048  -0.30970  -0.30039  -0.29949  -0.29463
 Alpha  occ. eigenvalues --   -0.29334  -0.29326  -0.29209  -0.24093  -0.24034
 Alpha  occ. eigenvalues --   -0.21140  -0.21115
 Alpha virt. eigenvalues --   -0.08790  -0.08787  -0.01763  -0.01682  -0.00072
 Alpha virt. eigenvalues --   -0.00027   0.02188   0.02210   0.03106   0.03229
 Alpha virt. eigenvalues --    0.04706   0.04735   0.05090   0.05177   0.06167

 Mulliken charges:
               1
     1  Mg   0.838704
     2  C   -0.002964
     3  C   -0.094118
     4  C   -0.045928
     5  C   -0.063963
     6  N   -0.256782
     7  C   -0.052466
     8  C   -0.013991
     9  C   -0.087017
    10  C    0.046325
    11  C    0.104809
    12  C    0.053477
    13  C   -0.071837
    14  H    0.036175
    15  N   -0.433152
    16  C    0.168399
    17  C   -0.177160
    18  C   -0.004032
    19  C    0.148721
    20  C    0.110175
    21  C    0.012240
    22  O   -0.249668
    23  C    0.062496
    24  N   -0.341153
    25  C    0.041270
    26  C   -0.028163
    27  C   -0.023986
    28  C    0.074836
    29  C    0.076171
    30  C    0.035149
    31  C   -0.004503
    32  N   -0.310472
    33  C    0.080410
    34  C   -0.169706
    35  C    0.008382
    36  C    0.082996
    37  C    0.127309
    38  C    0.046142
    39  O   -0.188355
    40  C   -0.005345
    41  C    0.212895
    42  O   -0.257123
    43  O   -0.304785
    44  C    0.157665
    45  H   -0.017589
    46  H   -0.016871
    47  H   -0.041474
    48  H    0.000978
    49  H   -0.004027
    50  H    0.025497
    51  H    0.016442
    52  H    0.016684
    53  H    0.011167
    54  H    0.044116
    55  H    0.017910
    56  H    0.017945
    57  H    0.005897
    58  H    0.026824
    59  H    0.039495
    60  H    0.037375
    61  H    0.035583
    62  H    0.031451
    63  H    0.016500
    64  H    0.009490
    65  H    0.023183
    66  H    0.012564
    67  H    0.004775
    68  H    0.006347
    69  H    0.004761
    70  H    0.008725
    71  H    0.018118
    72  H    0.028983
    73  H    0.047609
    74  H    0.009112
    75  H    0.046048
    76  H    0.035189
    77  H    0.043010
    78  H    0.046408
    79  H    0.053702
    80  Mg   0.837845
    81  C   -0.016815
    82  C   -0.087779
    83  C   -0.045537
    84  C   -0.064916
    85  N   -0.254574
    86  C   -0.049834
    87  C   -0.015086
    88  C   -0.090501
    89  C    0.045768
    90  C    0.114372
    91  C    0.062543
    92  C   -0.077972
    93  H    0.035048
    94  N   -0.423482
    95  C    0.162908
    96  C   -0.174619
    97  C   -0.007825
    98  C    0.152105
    99  C    0.099362
   100  C    0.015556
   101  O   -0.253203
   102  C    0.061200
   103  N   -0.350067
   104  C    0.037507
   105  C   -0.019810
   106  C   -0.034814
   107  C    0.088930
   108  C    0.073659
   109  C    0.034730
   110  C   -0.007670
   111  N   -0.324109
   112  C    0.078451
   113  C   -0.163144
   114  C    0.002271
   115  C    0.096189
   116  C    0.131487
   117  C    0.042397
   118  O   -0.187784
   119  C    0.000925
   120  C    0.211270
   121  O   -0.251027
   122  O   -0.305620
   123  C    0.151985
   124  H   -0.019644
   125  H   -0.015596
   126  H   -0.040465
   127  H   -0.000568
   128  H   -0.004288
   129  H    0.022485
   130  H    0.014376
   131  H    0.016335
   132  H    0.013877
   133  H    0.037681
   134  H    0.020867
   135  H    0.019581
   136  H    0.008787
   137  H    0.026127
   138  H    0.039781
   139  H    0.038247
   140  H    0.036371
   141  H    0.033897
   142  H    0.014386
   143  H    0.012404
   144  H    0.025121
   145  H    0.011636
   146  H    0.005658
   147  H    0.006245
   148  H    0.003653
   149  H    0.010919
   150  H    0.017933
   151  H    0.030121
   152  H    0.046040
   153  H    0.008493
   154  H    0.046948
   155  H    0.035074
   156  H    0.044049
   157  H    0.049551
   158  H    0.053594
 Sum of Mulliken charges =  -0.00000

 Dipole moment (field-independent basis, Debye):
    X=              3.7207    Y=              7.2062    Z=             -2.0846  Tot=              8.3737
 Quadrupole moment (field-independent basis, Debye-Ang):
   XX=           -477.1169   YY=           -554.0096   ZZ=           -474.1534
   XY=             11.3247   XZ=            -62.5634   YZ=            -10.0491

 Normal termination of Gaussian 16 at Sun Sep 12 16:31:47 2021.
