 Gaussian 16, Revision A.03,
 Gaussian 16:  ES64L-G16RevA.03 25-Dec-2016

 -----------------------------------
 #p cam-b3lyp/Def2SVP td=(nstates=5)
 -----------------------------------

 --------------------------------
 TDDFT excited states in gaussian
 --------------------------------
 Symbolic Z-matrix:
 Charge =  0 Multiplicity = 1

                         Standard orientation:
 ---------------------------------------------------------------------
 Center     Atomic      Atomic             Coordinates (Angstroms)
 Number     Number       Type             X           Y           Z
 ---------------------------------------------------------------------
      1         12           0       -5.221927   -0.687814   -0.021536
      2          6           0       -5.384521    2.804395    0.746741
      3          6           0       -6.023032    0.133833   -3.234976
      4          6           0       -5.530378   -3.786364   -0.621928
      5          6           0       -5.558150   -1.303759    3.392146
      6          7           0       -5.626102    1.257428   -0.997918
      7          6           0       -5.597405    2.527206   -0.605476
      8          6           0       -5.739814    3.540372   -1.780460
      9          6           0       -6.487491    2.603332   -2.831618
     10          6           0       -5.989213    1.252161   -2.349973
     11          6           0       -8.007242    2.639367   -2.706876
     12          6           0       -4.351698    4.018314   -2.324921
     13          6           0       -4.396538    5.243161   -3.243123
     14          1           0       -3.306681    6.205288   -3.180899
     15          7           0       -5.224273   -1.666259   -1.737779
     16          6           0       -5.562724   -1.170404   -2.952219
     17          6           0       -5.402269   -2.287528   -3.907714
     18          6           0       -5.126100   -3.522217   -3.121987
     19          6           0       -5.310876   -3.039816   -1.777173
     20          6           0       -5.465623   -2.114348   -5.394235
     21          6           0       -4.764879   -4.918248   -3.520422
     22          8           0       -4.796557   -5.891712   -2.692208
     23          6           0       -4.454355   -5.135299   -4.945029
     24          7           0       -5.723746   -2.323051    1.175047
     25          6           0       -5.728313   -3.565308    0.679303
     26          6           0       -5.836782   -4.588396    1.770844
     27          6           0       -5.660443   -3.791152    3.143090
     28          6           0       -5.557027   -2.355948    2.570583
     29          6           0       -7.145921   -5.388781    1.810237
     30          6           0       -4.549849   -4.283473    4.104661
     31          6           0       -3.190976   -4.036061    3.488748
     32          7           0       -5.257749    0.507438    1.789854
     33          6           0       -5.430772    0.044426    3.102240
     34          6           0       -5.493102    1.231605    3.974472
     35          6           0       -5.367813    2.310342    3.101275
     36          6           0       -5.261953    1.828449    1.765287
     37          6           0       -5.705547    1.221863    5.381315
     38          6           0       -5.323486    3.758804    2.983590
     39          8           0       -5.274818    4.692867    3.785245
     40          6           0       -5.454979    4.140622    1.443216
     41          6           0       -4.385847    5.152540    1.132913
     42          8           0       -3.178575    4.838276    1.166062
     43          8           0       -4.952752    6.254803    0.618932
     44          6           0       -3.944046    7.287742    0.261577
     45          1           0       -6.497467    0.247784   -4.211637
     46          1           0       -5.532362   -4.867994   -0.771958
     47          1           0       -5.577015   -1.420784    4.477228
     48          1           0       -6.354083    4.412686   -1.556483
     49          1           0       -6.152980    2.788788   -3.852123
     50          1           0       -8.321700    3.205059   -1.829932
     51          1           0       -8.316857    1.597766   -2.619140
     52          1           0       -8.462574    3.010970   -3.625222
     53          1           0       -3.965009    3.276607   -3.023779
     54          1           0       -3.659878    4.208547   -1.503628
     55          1           0       -5.359058    5.751852   -3.182316
     56          1           0       -4.337067    4.898446   -4.275515
     57          1           0       -5.845931   -1.130726   -5.666997
     58          1           0       -6.219499   -2.809140   -5.763890
     59          1           0       -4.508366   -2.321805   -5.872725
     60          1           0       -5.314965   -4.846884   -5.548947
     61          1           0       -4.132042   -6.172652   -5.027877
     62          1           0       -3.640151   -4.470188   -5.234251
     63          1           0       -5.047666   -5.334545    1.687284
     64          1           0       -6.566468   -3.814626    3.749096
     65          1           0       -7.001378   -6.467821    1.751204
     66          1           0       -7.782041   -5.034505    0.999601
     67          1           0       -7.774178   -5.194982    2.679232
     68          1           0       -4.637630   -5.357160    4.267253
     69          1           0       -4.578044   -3.796982    5.079742
     70          1           0       -3.055302   -4.902429    2.842349
     71          1           0       -2.423164   -4.002109    4.262390
     72          1           0       -3.197900   -3.151751    2.851226
     73          1           0       -5.003601    1.942470    5.800798
     74          1           0       -5.549014    0.227364    5.798536
     75          1           0       -6.748068    1.535883    5.430281
     76          1           0       -6.456231    4.547629    1.305516
     77          1           0       -4.220082    8.201555    0.787869
     78          1           0       -3.908221    7.322190   -0.827430
     79          1           0       -2.934688    7.127869    0.642333
     80         12           0        5.365782   -0.851910    0.173531
     81          6           0        5.222339    2.715710   -0.187839
     82          6           0        4.548227   -1.069796   -3.130819
     83          6           0        5.042095   -3.984240    0.562289
     84          6           0        5.040076   -0.377645    3.610788
     85          7           0        4.963305    0.694110   -1.356200
     86          6           0        4.998610    2.017647   -1.392862
     87          6           0        4.861731    2.625580   -2.814566
     88          6           0        4.096258    1.405686   -3.525056
     89          6           0        4.589235    0.260678   -2.642679
     90          6           0        2.584126    1.488890   -3.399001
     91          6           0        6.254090    2.898294   -3.484627
     92          6           0        6.203620    3.772383   -4.739681
     93          1           0        7.304780    4.699001   -4.987271
     94          7           0        5.352296   -2.317484   -1.164556
     95          6           0        5.015771   -2.225971   -2.468260
     96          6           0        5.149651   -3.585256   -3.014694
     97          6           0        5.433424   -4.517223   -1.889694
     98          6           0        5.262601   -3.626135   -0.759710
     99          6           0        5.087391   -3.880926   -4.485115
    100          6           0        5.786011   -5.972995   -1.838636
    101          8           0        5.755552   -6.635106   -0.741588
    102          6           0        6.077343   -6.622492   -3.125022
    103          7           0        4.870517   -2.025005    1.816981
    104          6           0        4.851485   -3.366525    1.728222
    105          6           0        4.741018   -4.002021    3.093625
    106          6           0        4.934151   -2.808181    4.140053
    107          6           0        5.038459   -1.622926    3.155323
    108          6           0        3.427387   -4.726910    3.385697
    109          6           0        6.048362   -2.981953    5.208227
    110          6           0        7.406851   -2.959194    4.545370
    111          7           0        5.351152    0.841273    1.515535
    112          6           0        5.176266    0.817727    2.916595
    113          6           0        5.125301    2.221956    3.372639
    114          6           0        5.251998    2.971062    2.193109
    115          6           0        5.353067    2.095579    1.078294
    116          6           0        4.931199    2.654173    4.714886
    117          6           0        5.312540    4.303418    1.636457
    118          8           0        5.363313    5.439533    2.105926
    119          6           0        5.168944    4.198210    0.056994
    120          6           0        6.241500    5.050079   -0.564681
    121          8           0        7.441832    4.755538   -0.426647
    122          8           0        5.670246    5.941093   -1.395429
    123          6           0        6.694649    6.801878   -2.044626
    124          1           0        4.075124   -1.254052   -4.095758
    125          1           0        5.033387   -5.057737    0.764828
    126          1           0        5.038846   -0.146454    4.678126
    127          1           0        4.259191    3.524384   -2.868203
    128          1           0        4.433912    1.270375   -4.549281
    129          1           0        2.277787    2.294804   -2.748771
    130          1           0        2.269802    0.535817   -2.994166
    131          1           0        2.126663    1.561053   -4.389891
    132          1           0        6.630440    1.964223   -3.921217
    133          1           0        6.941043    3.320811   -2.777384
    134          1           0        5.239382    4.283868   -4.847260
    135          1           0        6.262222    3.123613   -5.616995
    136          1           0        4.703438   -3.023747   -5.051877
    137          1           0        4.329112   -4.659312   -4.622930
    138          1           0        6.038837   -4.239996   -4.883209
    139          1           0        5.216288   -6.525064   -3.781944
    140          1           0        6.394594   -7.636759   -2.875059
    141          1           0        6.903377   -6.088205   -3.607542
    142          1           0        5.526340   -4.732428    3.244912
    143          1           0        4.026843   -2.640381    4.738785
    144          1           0        3.567464   -5.787616    3.667389
    145          1           0        2.791625   -4.645726    2.514049
    146          1           0        2.813203   -4.274693    4.162539
    147          1           0        5.957141   -3.955721    5.695679
    148          1           0        6.020895   -2.227803    5.987657
    149          1           0        7.528898   -3.989269    4.197315
    150          1           0        8.179103   -2.691139    5.263580
    151          1           0        7.402653   -2.310888    3.661438
    152          1           0        5.631950    3.460327    4.886804
    153          1           0        5.080358    1.839470    5.420419
    154          1           0        3.885802    2.970840    4.668564
    155          1           0        4.168280    4.544233   -0.204750
    156          1           0        6.422912    7.839853   -1.829070
    157          1           0        6.711739    6.496009   -3.107597
    158          1           0        7.704261    6.761834   -1.652787
 ---------------------------------------------------------------------

 SCF Done:  E(RCAM-B3LYP) =  -4069.81140990     A.U. after   19 cycles

 Excitation energies and oscillator strengths:

 Excited State   1:      Singlet-A      1.6576 eV  747.99 nm  f=0.0220  <S**2>=0.000
     309 -> 315       -0.11425
     310 -> 316        0.12504
     311 -> 313       -0.46182
     312 -> 314        0.50868
 This state for optimization and/or second-order correction.
 Total Energy, E(TD-HF/TD-DFT) =  -4069.75049526
 Copying the excited state density for this state as the 1-particle RhoCI density.

 Excited State   2:      Singlet-A      1.6958 eV  731.10 nm  f=0.6949  <S**2>=0.000
     309 -> 315        0.13306
     310 -> 316        0.12027
     311 -> 313        0.50686
     312 -> 314        0.46028

 Excited State   3:      Singlet-A      2.1834 eV  567.84 nm  f=0.0242  <S**2>=0.000
     309 -> 313       -0.28867
     310 -> 314        0.57537
     311 -> 315        0.12081
     312 -> 316       -0.24250

 Excited State   4:      Singlet-A      2.1938 eV  565.15 nm  f=0.1592  <S**2>=0.000
     309 -> 313        0.57213
     310 -> 314        0.28572
     311 -> 315       -0.25036
     312 -> 316       -0.12600

 Excited State   5:      Singlet-A      2.4851 eV  498.90 nm  f=0.0000  <S**2>=0.000
     312 -> 313        0.70709

 The electronic state is 1-A.
 Alpha  occ. eigenvalues --  -46.87874 -46.87492 -19.26286 -19.26212 -19.19030
 Alpha  occ. eigenvalues --  -19.19014 -19.18904 -19.18566 -19.18215 -19.17847
 Alpha  occ. eigenvalues --  -14.42530 -14.42335 -14.41524 -14.41193 -14.39483
 Alpha  occ. eigenvalues --  -14.39186 -14.38660 -14.38420 -10.39094 -10.38938
 Alpha  occ. eigenvalues --  -10.35540 -10.35247 -10.34434 -10.34024 -10.31654
 Alpha  occ. eigenvalues --  -10.31650 -10.31480 -10.31141 -10.30991 -10.30873
 Alpha  occ. eigenvalues --  -10.30644 -10.30579 -10.30288 -10.30219 -10.30182
 Alpha  occ. eigenvalues --  -10.29989 -10.29986 -10.29718 -10.29708 -10.29337
 Alpha  occ. eigenvalues --  -10.29274 -10.29226 -10.28835 -10.28645 -10.28591
 Alpha  occ. eigenvalues --  -10.28588 -10.28440 -10.28233 -10.28202 -10.28012
 Alpha  occ. eigenvalues --  -10.27867 -10.27821 -10.27809 -10.27667 -10.27604
 Alpha  occ. eigenvalues --  -10.27569 -10.27515 -10.27509 -10.27475 -10.27376
 Alpha  occ. eigenvalues --  -10.27357 -10.27314 -10.27298 -10.27232 -10.27201
 Alpha  occ. eigenvalues --  -10.26851 -10.26812 -10.26592 -10.26536 -10.26308
 Alpha  occ. eigenvalues --  -10.26297 -10.26253 -10.26096 -10.26013 -10.25900
 Alpha  occ. eigenvalues --  -10.25892 -10.25767 -10.25600 -10.25487 -10.25264
 Alpha  occ. eigenvalues --  -10.24902 -10.24859 -10.24762 -10.24684 -10.24612
 Alpha  occ. eigenvalues --  -10.24522  -3.16617  -3.16241  -1.91499  -1.91124
 Alpha  occ. eigenvalues --   -1.91085  -1.90927  -1.90713  -1.90549  -1.16637
 Alpha  occ. eigenvalues --   -1.16504  -1.08667  -1.08452  -1.07305  -1.06820
 Alpha  occ. eigenvalues --   -1.06797  -1.06652  -1.04660  -1.04332  -1.03836
 Alpha  occ. eigenvalues --   -1.03497  -1.03309  -1.02869  -1.02486  -1.01939
 Alpha  occ. eigenvalues --   -0.92037  -0.91809  -0.89590  -0.89338  -0.89273
 Alpha  occ. eigenvalues --   -0.89019  -0.88355  -0.88071  -0.87939  -0.87754
 Alpha  occ. eigenvalues --   -0.87596  -0.87527  -0.87370  -0.86972  -0.85066
 Alpha  occ. eigenvalues --   -0.84864  -0.84000  -0.83730  -0.83064  -0.82795
 Alpha  occ. eigenvalues --   -0.82725  -0.82516  -0.81629  -0.81442  -0.80661
 Alpha  occ. eigenvalues --   -0.80288  -0.78884  -0.78473  -0.77297  -0.76999
 Alpha  occ. eigenvalues --   -0.76999  -0.76760  -0.75985  -0.75691  -0.74959
 Alpha  occ. eigenvalues --   -0.74656  -0.72848  -0.72527  -0.71740  -0.71426
 Alpha  occ. eigenvalues --   -0.69976  -0.69620  -0.68955  -0.68688  -0.67713
 Alpha  occ. eigenvalues --   -0.67442  -0.67314  -0.67074  -0.65364  -0.65129
 Alpha  occ. eigenvalues --   -0.64917  -0.64685  -0.64611  -0.64506  -0.64338
 Alpha  occ. eigenvalues --   -0.64053  -0.62330  -0.62129  -0.60528  -0.60187
 Alpha  occ. eigenvalues --   -0.59886  -0.59649  -0.59056  -0.58830  -0.58570
 Alpha  occ. eigenvalues --   -0.58263  -0.57629  -0.57374  -0.57373  -0.57077
 Alpha  occ. eigenvalues --   -0.56384  -0.56039  -0.56014  -0.55748  -0.55599
 Alpha  occ. eigenvalues --   -0.55392  -0.55302  -0.55096  -0.54567  -0.54344
 Alpha  occ. eigenvalues --   -0.53979  -0.53782  -0.53378  -0.53302  -0.53071
 Alpha  occ. eigenvalues --   -0.52997  -0.52971  -0.52851  -0.52758  -0.52537
 Alpha  occ. eigenvalues --   -0.52506  -0.52265  -0.51976  -0.51702  -0.51662
 Alpha  occ. eigenvalues --   -0.51525  -0.51257  -0.51037  -0.50684  -0.50348
 Alpha  occ. eigenvalues --   -0.50108  -0.50008  -0.49842  -0.49723  -0.49597
 Alpha  occ. eigenvalues --   -0.49345  -0.49284  -0.49169  -0.49047  -0.48945
 Alpha  occ. eigenvalues --   -0.48648  -0.48540  -0.48504  -0.48403  -0.48224
 Alpha  occ. eigenvalues --   -0.48190  -0.47771  -0.47454  -0.47371  -0.46975
 Alpha  occ. eigenvalues --   -0.46870  -0.46638  -0.46559  -0.46429  -0.46424
 Alpha  occ. eigenvalues --   -0.46219  -0.46114  -0.45917  -0.45870  -0.45651
 Alpha  occ. eigenvalues --   -0.45267  -0.45060  -0.44636  -0.44594  -0.44366
 Alpha  occ. eigenvalues --   -0.44324  -0.44219  -0.44170  -0.44083  -0.43976
 Alpha  occ. eigenvalues --   -0.43932  -0.43785  -0.43539  -0.43463  -0.43408
 Alpha  occ. eigenvalues --   -0.43236  -0.43093  -0.42783  -0.42752  -0.42736
 Alpha  occ. eigenvalues --   -0.42685  -0.42408  -0.42079  -0.41825  -0.41769
 Alpha  occ. eigenvalues --   -0.41617  -0.41498  -0.41325  -0.41212  -0.40952
 Alpha  occ. eigenvalues --   -0.40916  -0.40838  -0.40639  -0.40591  -0.40567
 Alpha  occ. eigenvalues --   -0.40348  -0.40334  -0.40114  -0.39512  -0.39289
 Alpha  occ. eigenvalues --   -0.38540  -0.38209  -0.37837  -0.37536  -0.37392
 Alpha  occ. eigenvalues --   -0.37346  -0.37115  -0.37052  -0.36743  -0.36629
 Alpha  occ. eigenvalues --   -0.36242  -0.36069  -0.34359  -0.34086  -0.33793
 Alpha  occ. eigenvalues --   -0.33710  -0.33256  -0.33008  -0.31432  -0.31126
 Alpha  occ. eigenvalues --   -0.31108  -0.30808  -0.30072  -0.29752  -0.29531
 Alpha  occ. eigenvalues --   -0.29392  -0.29160  -0.29018  -0.24155  -0.23865
 Alpha  occ. eigenvalues --   -0.21205  -0.20949
 Alpha virt. eigenvalues --   -0.08852  -0.08619  -0.01827  -0.01520  -0.00142
 Alpha virt. eigenvalues --    0.00130   0.02139   0.02399   0.03022   0.03382
 Alpha virt. eigenvalues --    0.04637   0.04878   0.05078   0.05320   0.06093

 Mulliken charges:
               1
     1  Mg   0.838501
     2  C   -0.002933
     3  C   -0.094736
     4  C   -0.045661
     5  C   -0.063969
     6  N   -0.256720
     7  C   -0.052559
     8  C   -0.013874
     9  C   -0.086879
    10  C    0.046095
    11  C    0.104807
    12  C    0.053702
    13  C   -0.071770
    14  H    0.036180
    15  N   -0.433079
    16  C    0.168137
    17  C   -0.177694
    18  C   -0.004187
    19  C    0.148659
    20  C    0.110294
    21  C    0.012206
    22  O   -0.249159
    23  C    0.062702
    24  N   -0.341110
    25  C    0.041149
    26  C   -0.028255
    27  C   -0.024027
    28  C    0.074950
    29  C    0.076089
    30  C    0.035091
    31  C   -0.004472
    32  N   -0.310557
    33  C    0.080586
    34  C   -0.169604
    35  C    0.008656
    36  C    0.083100
    37  C    0.127255
    38  C    0.046434
    39  O   -0.187530
    40  C   -0.005419
    41  C    0.213057
    42  O   -0.256789
    43  O   -0.304992
    44  C    0.157150
    45  H   -0.017764
    46  H   -0.016634
    47  H   -0.041378
    48  H    0.001314
    49  H   -0.004515
    50  H    0.025701
    51  H    0.016523
    52  H    0.016636
    53  H    0.010031
    54  H    0.044280
    55  H    0.018384
    56  H    0.017225
    57  H    0.005678
    58  H    0.026992
    59  H    0.038180
    60  H    0.037435
    61  H    0.035706
    62  H    0.030197
    63  H    0.016842
    64  H    0.009630
    65  H    0.023444
    66  H    0.012538
    67  H    0.004844
    68  H    0.006650
    69  H    0.004598
    70  H    0.009452
    71  H    0.017232
    72  H    0.029040
    73  H    0.047939
    74  H    0.009019
    75  H    0.046270
    76  H    0.035278
    77  H    0.043556
    78  H    0.045876
    79  H    0.054973
    80  Mg   0.838115
    81  C   -0.016372
    82  C   -0.088030
    83  C   -0.045343
    84  C   -0.064260
    85  N   -0.254472
    86  C   -0.049195
    87  C   -0.015096
    88  C   -0.090705
    89  C    0.045913
    90  C    0.114313
    91  C    0.062649
    92  C   -0.077457
    93  H    0.034434
    94  N   -0.423408
    95  C    0.162783
    96  C   -0.175054
    97  C   -0.007889
    98  C    0.151840
    99  C    0.099590
   100  C    0.015499
   101  O   -0.253407
   102  C    0.061300
   103  N   -0.349874
   104  C    0.037368
   105  C   -0.019759
   106  C   -0.034869
   107  C    0.089037
   108  C    0.073776
   109  C    0.034769
   110  C   -0.007597
   111  N   -0.324461
   112  C    0.078908
   113  C   -0.162004
   114  C    0.003320
   115  C    0.096286
   116  C    0.130955
   117  C    0.043751
   118  O   -0.187213
   119  C    0.000315
   120  C    0.211007
   121  O   -0.251409
   122  O   -0.305432
   123  C    0.152201
   124  H   -0.020938
   125  H   -0.015806
   126  H   -0.040224
   127  H   -0.000502
   128  H   -0.005359
   129  H    0.024757
   130  H    0.014559
   131  H    0.013978
   132  H    0.013725
   133  H    0.037727
   134  H    0.020340
   135  H    0.019029
   136  H    0.007803
   137  H    0.025551
   138  H    0.039239
   139  H    0.038075
   140  H    0.036077
   141  H    0.033520
   142  H    0.014051
   143  H    0.012533
   144  H    0.024571
   145  H    0.012315
   146  H    0.005031
   147  H    0.005807
   148  H    0.003726
   149  H    0.010731
   150  H    0.017691
   151  H    0.030251
   152  H    0.045632
   153  H    0.007937
   154  H    0.050236
   155  H    0.037133
   156  H    0.043651
   157  H    0.048933
   158  H    0.053397
 Sum of Mulliken charges =  -0.00000

 Dipole moment (field-independent basis, Debye):
    X=             -3.9845    Y=             -2.0788    Z=             -7.3892  Tot=              8.6486
 Quadrupole moment (field-independent basis, Debye-Ang):
   XX=           -518.4026   YY=           -548.7591   ZZ=           -450.4940
   XY=            -10.6496   XZ=              0.4678   YZ=            -45.7882

 Normal termination of Gaussian 16 at Fri Sep 10 22:28:26 2021.
