 Gaussian 16, Revision A.03,
 Gaussian 16:  ES64L-G16RevA.03 25-Dec-2016

 -----------------------------------
 #p cam-b3lyp/Def2SVP td=(nstates=5)
 -----------------------------------

 --------------------------------
 TDDFT excited states in gaussian
 --------------------------------
 Symbolic Z-matrix:
 Charge =  0 Multiplicity = 1

                         Standard orientation:
 ---------------------------------------------------------------------
 Center     Atomic      Atomic             Coordinates (Angstroms)
 Number     Number       Type             X           Y           Z
 ---------------------------------------------------------------------
      1         12           0       -3.940790   -0.335164    0.282305
      2          6           0       -3.737225    3.238447    0.291458
      3          6           0       -4.972243   -0.119562   -2.963105
      4          6           0       -4.562758   -3.443015    0.387364
      5          6           0       -4.001296   -0.193357    3.763955
      6          7           0       -4.271971    1.396543   -1.056409
      7          6           0       -4.100094    2.710398   -0.949564
      8          6           0       -4.268380    3.467407   -2.300857
      9          6           0       -5.188265    2.414105   -3.066602
     10          6           0       -4.761121    1.148407   -2.344466
     11          6           0       -6.680926    2.629727   -2.838631
     12          6           0       -2.903242    3.678379   -3.038162
     13          6           0       -2.932646    4.684596   -4.192292
     14          1           0       -1.765239    5.522683   -4.420590
     15          7           0       -4.188016   -1.642360   -1.178163
     16          6           0       -4.597747   -1.376913   -2.441866
     17          6           0       -4.622758   -2.678086   -3.144009
     18          6           0       -4.377298   -3.744864   -2.134144
     19          6           0       -4.392447   -2.978188   -0.914571
     20          6           0       -4.812430   -2.810955   -4.623914
     21          6           0       -4.173513   -5.222503   -2.248983
     22          8           0       -4.207557   -5.994965   -1.230790
     23          6           0       -4.019038   -5.760316   -3.612778
     24          7           0       -4.461481   -1.627393    1.836865
     25          6           0       -4.616941   -2.938317    1.621702
     26          6           0       -4.706277   -3.696717    2.912743
     27          6           0       -4.334297   -2.654780    4.064156
     28          6           0       -4.166200   -1.387391    3.190234
     29          6           0       -6.068027   -4.334059    3.221682
     30          6           0       -3.182373   -3.047765    5.022827
     31          6           0       -1.872297   -3.072921    4.267733
     32          7           0       -3.704264    1.206577    1.791654
     33          6           0       -3.789839    1.045442    3.182117
     34          6           0       -3.669553    2.387548    3.780741
     35          6           0       -3.538129    3.243597    2.689067
     36          6           0       -3.600380    2.487278    1.483913
     37          6           0       -3.747378    2.691024    5.168646
     38          6           0       -3.384305    4.624086    2.259595
     39          8           0       -3.181774    5.693991    2.835596
     40          6           0       -3.629253    4.690010    0.687500
     41          6           0       -2.513654    5.501512    0.087323
     42          8           0       -1.339200    5.079680    0.096428
     43          8           0       -3.032747    6.525311   -0.607601
     44          6           0       -1.979803    7.353675   -1.253570
     45          1           0       -5.526177   -0.162628   -3.902916
     46          1           0       -4.669372   -4.526321    0.474079
     47          1           0       -3.926647   -0.080606    4.847084
     48          1           0       -4.783526    4.425099   -2.224214
     49          1           0       -4.937950    2.349175   -4.125303
     50          1           0       -6.862227    3.393763   -2.082787
     51          1           0       -7.066753    1.665926   -2.505887
     52          1           0       -7.188837    2.847490   -3.778515
     53          1           0       -2.648071    2.772600   -3.588175
     54          1           0       -2.123021    3.963114   -2.331403
     55          1           0       -3.839138    5.290146   -4.170132
     56          1           0       -3.000592    4.129343   -5.127854
     57          1           0       -5.133411   -1.871642   -5.072475
     58          1           0       -5.653441   -3.486790   -4.777722
     59          1           0       -3.925689   -3.209358   -5.117166
     60          1           0       -4.906031   -5.517123   -4.198141
     61          1           0       -3.793878   -6.819644   -3.494556
     62          1           0       -3.183294   -5.255941   -4.098666
     63          1           0       -3.993800   -4.520374    2.932541
     64          1           0       -5.177394   -2.459886    4.727389
     65          1           0       -6.020427   -5.410919    3.385424
     66          1           0       -6.746481   -4.092445    2.403994
     67          1           0       -6.592436   -3.901577    4.073369
     68          1           0       -3.343715   -4.049870    5.418681
     69          1           0       -3.077002   -2.369616    5.869740
     70          1           0       -1.871555   -4.063576    3.814484
     71          1           0       -1.034285   -2.957853    4.955995
     72          1           0       -1.865868   -2.343789    3.457294
     73          1           0       -2.950986    3.407583    5.369324
     74          1           0       -3.635549    1.793826    5.777031
     75          1           0       -4.750620    3.112850    5.227163
     76          1           0       -4.601531    5.159456    0.541158
     77          1           0       -2.127232    8.379914   -0.916920
     78          1           0       -2.044902    7.158037   -2.324034
     79          1           0       -0.955729    7.174199   -0.924330
     80         12           0        3.941871   -1.229969   -0.147067
     81          6           0        4.163516    2.322156    0.313651
     82          6           0        2.957574   -0.602519   -3.352073
     83          6           0        3.303886   -4.323155   -0.451412
     84          6           0        3.823921   -1.532869    3.322813
     85          7           0        3.637972    0.657820   -1.258874
     86          6           0        3.812516    1.944884   -0.999324
     87          6           0        3.677273    2.874361   -2.235180
     88          6           0        2.754836    1.928267   -3.147806
     89          6           0        3.162191    0.569684   -2.581252
     90          6           0        1.267423    2.121175   -2.903359
     91          6           0        5.059142    3.162822   -2.920210
     92          6           0        5.045615    4.303577   -3.940133
     93          1           0        6.227009    5.155180   -4.047616
     94          7           0        3.711862   -2.339597   -1.776300
     95          6           0        3.328572   -1.918841   -2.999962
     96          6           0        3.291975   -3.121869   -3.845861
     97          6           0        3.525187   -4.310496   -2.981288
     98          6           0        3.501492   -3.692052   -1.670922
     99          6           0        3.132303   -3.063312   -5.337342
    100          6           0        3.722485   -5.765212   -3.283062
    101          8           0        3.671102   -6.656650   -2.363527
    102          6           0        3.884601   -6.124851   -4.699353
    103          7           0        3.398963   -2.698861    1.220406
    104          6           0        3.233004   -3.975926    0.833782
    105          6           0        3.117084   -4.895995    2.025599
    106          6           0        3.483400   -3.999095    3.297986
    107          6           0        3.668992   -2.633784    2.600212
    108          6           0        1.748162   -5.542601    2.236172
    109          6           0        4.619763   -4.517909    4.221116
    110          6           0        5.941651   -4.470035    3.489203
    111          7           0        4.168399    0.101824    1.539072
    112          6           0        4.055352   -0.227729    2.907537
    113          6           0        4.175031    1.031916    3.670022
    114          6           0        4.327557    2.017624    2.683314
    115          6           0        4.284328    1.417324    1.395973
    116          6           0        4.088839    1.159132    5.085122
    117          6           0        4.504657    3.430779    2.437706
    118          8           0        4.697405    4.418136    3.146016
    119          6           0        4.279601    3.706560    0.888610
    120          6           0        5.407736    4.574705    0.402669
    121          8           0        6.574818    4.145366    0.388679
    122          8           0        4.897878    5.682693   -0.165471
    123          6           0        5.977911    6.570330   -0.672888
    124          1           0        2.424505   -0.514217   -4.299132
    125          1           0        3.189905   -5.408777   -0.495320
    126          1           0        3.895480   -1.554971    4.412330
    127          1           0        3.172204    3.813593   -2.044082
    128          1           0        3.029604    2.001849   -4.196830
    129          1           0        1.078392    2.780428   -2.069213
    130          1           0        0.871845    1.134114   -2.702696
    131          1           0        0.776056    2.462366   -3.819044
    132          1           0        5.313667    2.323626   -3.580291
    133          1           0        5.818416    3.344720   -2.184651
    134          1           0        4.137545    4.913939   -3.863869
    135          1           0        4.995082    3.872061   -4.942753
    136          1           0        2.816774   -2.066486   -5.669287
    137          1           0        2.289901   -3.714522   -5.594554
    138          1           0        4.021116   -3.408239   -5.869979
    139          1           0        3.010101   -5.798480   -5.257199
    140          1           0        4.102836   -7.194523   -4.706099
    141          1           0        4.740281   -5.573331   -5.104619
    142          1           0        3.826059   -5.711740    1.954818
    143          1           0        2.627082   -3.889810    3.979618
    144          1           0        1.786896   -6.647998    2.261931
    145          1           0        1.086028   -5.203511    1.450601
    146          1           0        1.221358   -5.226338    3.134879
    147          1           0        4.447297   -5.564930    4.482194
    148          1           0        4.708030   -3.964678    5.150159
    149          1           0        5.937347   -5.398848    2.910951
    150          1           0        6.769676   -4.448256    4.194858
    151          1           0        5.966754   -3.637885    2.776077
    152          1           0        4.878585    1.834766    5.385660
    153          1           0        4.181944    0.193408    5.577534
    154          1           0        3.082156    1.574272    5.182674
    155          1           0        3.310753    4.195625    0.780306
    156          1           0        5.828397    7.551341   -0.211422
    157          1           0        5.914326    6.517622   -1.776029
    158          1           0        6.994123    6.346775   -0.369936
 ---------------------------------------------------------------------

 SCF Done:  E(RCAM-B3LYP) =  -4069.81177884     A.U. after   19 cycles

 Excitation energies and oscillator strengths:

 Excited State   1:      Singlet-A      1.6381 eV  756.88 nm  f=0.0023  <S**2>=0.000
     309 -> 315       -0.11321
     310 -> 316        0.11899
     311 -> 313       -0.47140
     312 -> 314        0.50151
 This state for optimization and/or second-order correction.
 Total Energy, E(TD-HF/TD-DFT) =  -4069.75157983
 Copying the excited state density for this state as the 1-particle RhoCI density.

 Excited State   2:      Singlet-A      1.7111 eV  724.58 nm  f=0.6775  <S**2>=0.000
     309 -> 315        0.13425
     310 -> 316        0.12449
     311 -> 313        0.49812
     312 -> 314        0.46822

 Excited State   3:      Singlet-A      2.1768 eV  569.57 nm  f=0.0128  <S**2>=0.000
     309 -> 313       -0.32517
     310 -> 314        0.55885
     311 -> 315        0.13230
     312 -> 316       -0.22914

 Excited State   4:      Singlet-A      2.1984 eV  563.98 nm  f=0.1546  <S**2>=0.000
     309 -> 313        0.55216
     310 -> 314        0.31884
     311 -> 315       -0.24562
     312 -> 316       -0.14351

 Excited State   5:      Singlet-A      2.2302 eV  555.92 nm  f=0.0000  <S**2>=0.000
     312 -> 313        0.70708

 The electronic state is 1-A.
 Alpha  occ. eigenvalues --  -46.87923 -46.87373 -19.26479 -19.25979 -19.19245
 Alpha  occ. eigenvalues --  -19.18879 -19.18799 -19.18492 -19.18256 -19.17659
 Alpha  occ. eigenvalues --  -14.42594 -14.42202 -14.41579 -14.41073 -14.39523
 Alpha  occ. eigenvalues --  -14.39072 -14.38705 -14.38296 -10.39291 -10.38713
 Alpha  occ. eigenvalues --  -10.35513 -10.35178 -10.34484 -10.33822 -10.31868
 Alpha  occ. eigenvalues --  -10.31556 -10.31456 -10.31068 -10.30987 -10.30719
 Alpha  occ. eigenvalues --  -10.30700 -10.30617 -10.30334 -10.30100 -10.30054
 Alpha  occ. eigenvalues --  -10.30037 -10.29903 -10.29742 -10.29596 -10.29372
 Alpha  occ. eigenvalues --  -10.29182 -10.29117 -10.28980 -10.28911 -10.28490
 Alpha  occ. eigenvalues --  -10.28453 -10.28357 -10.28317 -10.28092 -10.27900
 Alpha  occ. eigenvalues --  -10.27870 -10.27795 -10.27706 -10.27696 -10.27639
 Alpha  occ. eigenvalues --  -10.27637 -10.27569 -10.27543 -10.27397 -10.27340
 Alpha  occ. eigenvalues --  -10.27307 -10.27299 -10.27196 -10.27162 -10.27128
 Alpha  occ. eigenvalues --  -10.27050 -10.26563 -10.26467 -10.26426 -10.26402
 Alpha  occ. eigenvalues --  -10.26357 -10.26281 -10.26147 -10.25967 -10.25902
 Alpha  occ. eigenvalues --  -10.25671 -10.25562 -10.25550 -10.25534 -10.25122
 Alpha  occ. eigenvalues --  -10.24939 -10.24912 -10.24907 -10.24560 -10.24558
 Alpha  occ. eigenvalues --  -10.24392  -3.16666  -3.16124  -1.91547  -1.91134
 Alpha  occ. eigenvalues --   -1.91006  -1.90976  -1.90595  -1.90431  -1.16829
 Alpha  occ. eigenvalues --   -1.16275  -1.08716  -1.08251  -1.07275  -1.06849
 Alpha  occ. eigenvalues --   -1.06748  -1.06582  -1.04727  -1.04189  -1.03890
 Alpha  occ. eigenvalues --   -1.03372  -1.03353  -1.02754  -1.02535  -1.01817
 Alpha  occ. eigenvalues --   -0.92106  -0.91638  -0.89659  -0.89401  -0.89233
 Alpha  occ. eigenvalues --   -0.88818  -0.88423  -0.87972  -0.87965  -0.87831
 Alpha  occ. eigenvalues --   -0.87496  -0.87402  -0.87387  -0.86901  -0.85180
 Alpha  occ. eigenvalues --   -0.84701  -0.84080  -0.83623  -0.83073  -0.82817
 Alpha  occ. eigenvalues --   -0.82734  -0.82362  -0.81742  -0.81280  -0.80739
 Alpha  occ. eigenvalues --   -0.80146  -0.78915  -0.78385  -0.77381  -0.77120
 Alpha  occ. eigenvalues --   -0.76873  -0.76596  -0.76086  -0.75509  -0.75033
 Alpha  occ. eigenvalues --   -0.74522  -0.72900  -0.72412  -0.71812  -0.71265
 Alpha  occ. eigenvalues --   -0.70064  -0.69531  -0.69052  -0.68536  -0.67773
 Alpha  occ. eigenvalues --   -0.67424  -0.67316  -0.66949  -0.65478  -0.64998
 Alpha  occ. eigenvalues --   -0.64953  -0.64783  -0.64479  -0.64408  -0.64352
 Alpha  occ. eigenvalues --   -0.63941  -0.62458  -0.61957  -0.60557  -0.60097
 Alpha  occ. eigenvalues --   -0.59981  -0.59476  -0.59123  -0.58696  -0.58639
 Alpha  occ. eigenvalues --   -0.58119  -0.57730  -0.57439  -0.57176  -0.56943
 Alpha  occ. eigenvalues --   -0.56436  -0.56161  -0.55929  -0.55641  -0.55570
 Alpha  occ. eigenvalues --   -0.55485  -0.55184  -0.54963  -0.54686  -0.54196
 Alpha  occ. eigenvalues --   -0.54107  -0.53601  -0.53425  -0.53380  -0.53087
 Alpha  occ. eigenvalues --   -0.52969  -0.52896  -0.52855  -0.52615  -0.52601
 Alpha  occ. eigenvalues --   -0.52437  -0.52184  -0.52005  -0.51803  -0.51583
 Alpha  occ. eigenvalues --   -0.51378  -0.51336  -0.50895  -0.50689  -0.50295
 Alpha  occ. eigenvalues --   -0.50183  -0.50052  -0.49712  -0.49668  -0.49616
 Alpha  occ. eigenvalues --   -0.49353  -0.49261  -0.49214  -0.48891  -0.48753
 Alpha  occ. eigenvalues --   -0.48740  -0.48583  -0.48546  -0.48244  -0.48124
 Alpha  occ. eigenvalues --   -0.48064  -0.47847  -0.47430  -0.47321  -0.46950
 Alpha  occ. eigenvalues --   -0.46874  -0.46754  -0.46492  -0.46435  -0.46293
 Alpha  occ. eigenvalues --   -0.46265  -0.46011  -0.45958  -0.45788  -0.45498
 Alpha  occ. eigenvalues --   -0.45332  -0.44926  -0.44710  -0.44667  -0.44288
 Alpha  occ. eigenvalues --   -0.44259  -0.44206  -0.44201  -0.44143  -0.43831
 Alpha  occ. eigenvalues --   -0.43816  -0.43648  -0.43642  -0.43549  -0.43244
 Alpha  occ. eigenvalues --   -0.43163  -0.43085  -0.42864  -0.42816  -0.42622
 Alpha  occ. eigenvalues --   -0.42563  -0.42313  -0.42180  -0.41842  -0.41729
 Alpha  occ. eigenvalues --   -0.41701  -0.41331  -0.41284  -0.41176  -0.41064
 Alpha  occ. eigenvalues --   -0.40949  -0.40718  -0.40680  -0.40494  -0.40485
 Alpha  occ. eigenvalues --   -0.40425  -0.40213  -0.39958  -0.39610  -0.39211
 Alpha  occ. eigenvalues --   -0.38626  -0.38092  -0.38001  -0.37463  -0.37443
 Alpha  occ. eigenvalues --   -0.37388  -0.36999  -0.36907  -0.36892  -0.36443
 Alpha  occ. eigenvalues --   -0.36359  -0.35925  -0.34416  -0.33971  -0.33956
 Alpha  occ. eigenvalues --   -0.33509  -0.33319  -0.32884  -0.31414  -0.31167
 Alpha  occ. eigenvalues --   -0.31049  -0.30667  -0.30119  -0.29555  -0.29553
 Alpha  occ. eigenvalues --   -0.29425  -0.29064  -0.28894  -0.24213  -0.23730
 Alpha  occ. eigenvalues --   -0.21256  -0.20829
 Alpha virt. eigenvalues --   -0.08893  -0.08501  -0.01875  -0.01405  -0.00167
 Alpha virt. eigenvalues --    0.00239   0.02090   0.02389   0.02640   0.03613
 Alpha virt. eigenvalues --    0.04515   0.04828   0.05048   0.05541   0.05838

 Mulliken charges:
               1
     1  Mg   0.838564
     2  C   -0.003848
     3  C   -0.095408
     4  C   -0.045185
     5  C   -0.063643
     6  N   -0.256612
     7  C   -0.053388
     8  C   -0.013431
     9  C   -0.086871
    10  C    0.045976
    11  C    0.104795
    12  C    0.050419
    13  C   -0.071697
    14  H    0.033848
    15  N   -0.433347
    16  C    0.168464
    17  C   -0.177779
    18  C   -0.003372
    19  C    0.149187
    20  C    0.110389
    21  C    0.013714
    22  O   -0.248554
    23  C    0.062393
    24  N   -0.340893
    25  C    0.041068
    26  C   -0.028647
    27  C   -0.023978
    28  C    0.074659
    29  C    0.076034
    30  C    0.035527
    31  C   -0.008787
    32  N   -0.310770
    33  C    0.080715
    34  C   -0.169127
    35  C    0.009012
    36  C    0.083291
    37  C    0.127007
    38  C    0.046774
    39  O   -0.186738
    40  C   -0.005986
    41  C    0.213918
    42  O   -0.259053
    43  O   -0.304456
    44  C    0.156999
    45  H   -0.017873
    46  H   -0.016304
    47  H   -0.041296
    48  H    0.001425
    49  H   -0.005017
    50  H    0.025844
    51  H    0.016984
    52  H    0.016676
    53  H    0.010562
    54  H    0.045087
    55  H    0.019568
    56  H    0.017189
    57  H    0.005161
    58  H    0.027331
    59  H    0.038098
    60  H    0.036792
    61  H    0.037123
    62  H    0.030753
    63  H    0.016899
    64  H    0.009924
    65  H    0.023577
    66  H    0.012756
    67  H    0.004939
    68  H    0.006311
    69  H    0.004856
    70  H    0.011060
    71  H    0.016888
    72  H    0.031226
    73  H    0.049048
    74  H    0.008968
    75  H    0.046261
    76  H    0.035494
    77  H    0.044443
    78  H    0.045282
    79  H    0.054037
    80  Mg   0.836734
    81  C   -0.015090
    82  C   -0.088259
    83  C   -0.045494
    84  C   -0.065811
    85  N   -0.254790
    86  C   -0.047028
    87  C   -0.015287
    88  C   -0.092014
    89  C    0.045967
    90  C    0.108138
    91  C    0.062719
    92  C   -0.076835
    93  H    0.033676
    94  N   -0.423390
    95  C    0.162721
    96  C   -0.176302
    97  C   -0.008313
    98  C    0.151621
    99  C    0.100394
   100  C    0.014847
   101  O   -0.253251
   102  C    0.061638
   103  N   -0.350322
   104  C    0.037273
   105  C   -0.020199
   106  C   -0.034919
   107  C    0.089662
   108  C    0.072871
   109  C    0.034755
   110  C   -0.007401
   111  N   -0.324729
   112  C    0.079564
   113  C   -0.162900
   114  C    0.004498
   115  C    0.095715
   116  C    0.130883
   117  C    0.044861
   118  O   -0.186444
   119  C   -0.001164
   120  C    0.210176
   121  O   -0.252494
   122  O   -0.303985
   123  C    0.152471
   124  H   -0.021986
   125  H   -0.015708
   126  H   -0.041601
   127  H    0.003326
   128  H   -0.006862
   129  H    0.039366
   130  H    0.012384
   131  H    0.011690
   132  H    0.012974
   133  H    0.037509
   134  H    0.020244
   135  H    0.018288
   136  H    0.007415
   137  H    0.022951
   138  H    0.039015
   139  H    0.036526
   140  H    0.035833
   141  H    0.033587
   142  H    0.013823
   143  H    0.011464
   144  H    0.024797
   145  H    0.014124
   146  H    0.004914
   147  H    0.005604
   148  H    0.002894
   149  H    0.010815
   150  H    0.017364
   151  H    0.030539
   152  H    0.045784
   153  H    0.007021
   154  H    0.048898
   155  H    0.046381
   156  H    0.043610
   157  H    0.048250
   158  H    0.052749
 Sum of Mulliken charges =  -0.00000

 Dipole moment (field-independent basis, Debye):
    X=             -4.8725    Y=             -1.4114    Z=             -6.9414  Tot=              8.5974
 Quadrupole moment (field-independent basis, Debye-Ang):
   XX=           -519.6807   YY=           -548.7894   ZZ=           -450.1605
   XY=             -8.0863   XZ=             -1.8959   YZ=            -47.5551

 Normal termination of Gaussian 16 at Thu Sep  9 10:59:15 2021.
