 Gaussian 16, Revision A.03,
 Gaussian 16:  ES64L-G16RevA.03 25-Dec-2016

 -----------------------------------
 #p cam-b3lyp/Def2SVP td=(nstates=5)
 -----------------------------------

 --------------------------------
 TDDFT excited states in gaussian
 --------------------------------
 Symbolic Z-matrix:
 Charge =  0 Multiplicity = 1

                         Standard orientation:
 ---------------------------------------------------------------------
 Center     Atomic      Atomic             Coordinates (Angstroms)
 Number     Number       Type             X           Y           Z
 ---------------------------------------------------------------------
      1         12           0        5.301492   -0.589793    0.835918
      2          6           0        5.830775    2.211593   -1.328408
      3          6           0        5.736777    1.545814    3.461328
      4          6           0        5.289978   -3.116414    2.752340
      5          6           0        6.032356   -2.641792   -1.884522
      6          7           0        5.722892    1.581561    0.926969
      7          6           0        5.843309    2.551707    0.026144
      8          6           0        5.908438    3.975169    0.656135
      9          6           0        6.438229    3.583844    2.108094
     10          6           0        5.904827    2.164265    2.186844
     11          6           0        7.959494    3.543364    2.211127
     12          6           0        4.501950    4.659865    0.724790
     13          6           0        4.520431    6.162413    1.020364
     14          1           0        3.525181    7.013271    0.385646
     15          7           0        5.004515   -0.718264    2.784803
     16          6           0        5.218536    0.255028    3.702508
     17          6           0        4.849341   -0.329148    5.009839
     18          6           0        4.584144   -1.779777    4.801416
     19          6           0        4.979474   -1.936940    3.425047
     20          6           0        4.731124    0.476448    6.267133
     21          6           0        4.067831   -2.856117    5.703106
     22          8           0        4.132540   -4.094194    5.390773
     23          6           0        3.558165   -2.423956    7.017077
     24          7           0        5.828195   -2.589720    0.552179
     25          6           0        5.672549   -3.489617    1.529391
     26          6           0        5.843742   -4.888493    1.015797
     27          6           0        5.909891   -4.770265   -0.575240
     28          6           0        5.843133   -3.228129   -0.700262
     29          6           0        7.081437   -5.641054    1.523513
     30          6           0        4.899887   -5.620411   -1.386141
     31          6           0        3.495265   -5.112046   -1.150129
     32          7           0        5.665275   -0.308510   -1.285304
     33          6           0        5.972137   -1.301298   -2.227048
     34          6           0        6.238846   -0.616515   -3.505330
     35          6           0        6.083818    0.737022   -3.212501
     36          6           0        5.767685    0.889830   -1.832283
     37          6           0        6.631827   -1.243615   -4.720544
     38          6           0        6.135886    2.091287   -3.738916
     39          8           0        6.264220    2.580738   -4.862064
     40          6           0        6.094012    3.107209   -2.513365
     41          6           0        5.074420    4.165640   -2.835023
     42          8           0        3.861277    3.883114   -2.911378
     43          8           0        5.652316    5.374771   -2.767343
     44          6           0        4.687921    6.471969   -3.047080
     45          1           0        6.086934    2.070048    4.352681
     46          1           0        5.189268   -4.023194    3.352378
     47          1           0        6.183729   -3.222178   -2.796493
     48          1           0        6.611868    4.653987    0.173624
     49          1           0        5.988545    4.201283    2.885446
     50          1           0        8.428301    3.664314    1.234647
     51          1           0        8.196990    2.564801    2.628861
     52          1           0        8.318174    4.273942    2.936649
     53          1           0        3.971484    4.303589    1.607815
     54          1           0        3.939990    4.479724   -0.192312
     55          1           0        5.518852    6.581554    0.892356
     56          1           0        4.300338    6.305104    2.078380
     57          1           0        5.146967    1.475577    6.143192
     58          1           0        5.374654    0.004540    7.009346
     59          1           0        3.706492    0.510888    6.637641
     60          1           0        4.352120   -1.910671    7.559962
     61          1           0        3.149077   -3.316435    7.489284
     62          1           0        2.766674   -1.689611    6.864671
     63          1           0        4.995513   -5.513243    1.292601
     64          1           0        6.882798   -5.067519   -0.967370
     65          1           0        6.847974   -6.583573    2.019356
     66          1           0        7.631553   -4.975375    2.187993
     67          1           0        7.830818   -5.854744    0.761817
     68          1           0        4.925422   -6.657918   -1.054671
     69          1           0        5.092469   -5.610179   -2.459015
     70          1           0        3.210194   -5.606377   -0.222118
     71          1           0        2.839964   -5.410918   -1.968949
     72          1           0        3.486769   -4.038054   -0.963168
     73          1           0        6.048117   -0.770933   -5.510370
     74          1           0        6.455206   -2.318444   -4.686625
     75          1           0        7.692826   -0.995270   -4.742016
     76          1           0        7.096982    3.521354   -2.415099
     77          1           0        5.099693    7.059838   -3.867500
     78          1           0        4.512929    6.980037   -2.098582
     79          1           0        3.727663    6.173716   -3.469323
     80         12           0       -5.135008   -0.693146   -0.869792
     81          6           0       -6.586921    1.666534    1.411204
     82          6           0       -4.831528    1.872615   -3.096767
     83          6           0       -4.272458   -2.824485   -3.056308
     84          6           0       -6.575562   -3.222129    1.047164
     85          7           0       -5.674834    1.448045   -0.742732
     86          6           0       -6.163668    2.244288    0.196094
     87          6           0       -6.126639    3.755060   -0.158542
     88          6           0       -6.106003    3.625920   -1.759089
     89          6           0       -5.465748    2.244985   -1.884652
     90          6           0       -7.493525    3.566959   -2.376058
     91          6           0       -4.833088    4.463285    0.377321
     92          6           0       -4.874146    5.992520    0.338360
     93          1           0       -4.215177    6.734016    1.410001
     94          7           0       -4.183661   -0.450631   -2.594531
     95          6           0       -4.147168    0.664371   -3.353938
     96          6           0       -3.332488    0.323355   -4.530447
     97          6           0       -3.028225   -1.132667   -4.484256
     98          6           0       -3.851757   -1.538619   -3.363062
     99          6           0       -2.854901    1.350924   -5.515042
    100          6           0       -2.152200   -2.016088   -5.319923
    101          8           0       -2.222170   -3.293990   -5.249952
    102          6           0       -1.276314   -1.342393   -6.289699
    103          7           0       -5.559405   -2.713725   -1.113664
    104          6           0       -5.013914   -3.418071   -2.120773
    105          6           0       -5.239774   -4.899606   -1.935234
    106          6           0       -5.843628   -5.061107   -0.463205
    107          6           0       -5.950294   -3.571712   -0.068628
    108          6           0       -6.177327   -5.561191   -2.945042
    109          6           0       -5.102705   -6.029465    0.499088
    110          6           0       -3.740637   -5.471909    0.844474
    111          7           0       -6.203091   -0.807165    1.004834
    112          6           0       -6.740184   -1.963658    1.611561
    113          6           0       -7.475124   -1.522680    2.814825
    114          6           0       -7.332864   -0.126889    2.811983
    115          6           0       -6.580678    0.275522    1.675419
    116          6           0       -8.194935   -2.367440    3.706105
    117          6           0       -7.656991    1.098516    3.506264
    118          8           0       -8.199624    1.373612    4.575668
    119          6           0       -7.295926    2.325029    2.561979
    120          6           0       -6.526778    3.328183    3.377225
    121          8           0       -5.400830    3.048572    3.825168
    122          8           0       -7.148112    4.519749    3.310197
    123          6           0       -6.416788    5.550374    4.094290
    124          1           0       -4.898990    2.551355   -3.947434
    125          1           0       -3.907196   -3.611145   -3.720562
    126          1           0       -6.969372   -3.958548    1.750919
    127          1           0       -6.996919    4.317408    0.157920
    128          1           0       -5.469313    4.383672   -2.208315
    129          1           0       -8.266235    3.502479   -1.624449
    130          1           0       -7.499901    2.684190   -3.001935
    131          1           0       -7.642729    4.415359   -3.050061
    132          1           0       -4.008095    4.279578   -0.322948
    133          1           0       -4.602047    4.133213    1.371451
    134          1           0       -5.889620    6.373580    0.175436
    135          1           0       -4.316563    6.332415   -0.537761
    136          1           0       -3.373578    2.308201   -5.380864
    137          1           0       -3.165797    1.010482   -6.508675
    138          1           0       -1.769395    1.470377   -5.506028
    139          1           0       -1.881532   -0.752838   -6.974238
    140          1           0       -0.663824   -2.132495   -6.728416
    141          1           0       -0.634143   -0.637264   -5.750232
    142          1           0       -4.304981   -5.443567   -1.993228
    143          1           0       -6.870468   -5.454755   -0.484956
    144          1           0       -5.709685   -6.404565   -3.487354
    145          1           0       -6.519169   -4.805319   -3.639540
    146          1           0       -7.112493   -5.934565   -2.531206
    147          1           0       -4.929451   -6.990929    0.009470
    148          1           0       -5.647807   -6.228454    1.415741
    149          1           0       -3.123885   -5.784118   -0.003604
    150          1           0       -3.376440   -5.900110    1.776169
    151          1           0       -3.755293   -4.375872    0.855587
    152          1           0       -7.954923   -2.038878    4.708574
    153          1           0       -7.937051   -3.413940    3.557456
    154          1           0       -9.220409   -2.149340    3.396111
    155          1           0       -8.233569    2.735899    2.185696
    156          1           0       -7.129993    5.974758    4.807683
    157          1           0       -5.980492    6.240054    3.347470
    158          1           0       -5.630440    5.210604    4.758115
 ---------------------------------------------------------------------

 SCF Done:  E(RCAM-B3LYP) =  -4069.81247654     A.U. after   19 cycles

 Excitation energies and oscillator strengths:

 Excited State   1:      Singlet-A      1.6568 eV  748.32 nm  f=0.0310  <S**2>=0.000
     309 -> 315        0.11478
     310 -> 316        0.12480
     311 -> 313       -0.46402
     312 -> 314        0.50682
 This state for optimization and/or second-order correction.
 Total Energy, E(TD-HF/TD-DFT) =  -4069.75158908
 Copying the excited state density for this state as the 1-particle RhoCI density.

 Excited State   2:      Singlet-A      1.6973 eV  730.49 nm  f=0.6958  <S**2>=0.000
     309 -> 315       -0.13286
     310 -> 316        0.12102
     311 -> 313        0.50495
     312 -> 314        0.46245

 Excited State   3:      Singlet-A      2.1862 eV  567.13 nm  f=0.0173  <S**2>=0.000
     309 -> 313        0.30698
     310 -> 314        0.56536
     311 -> 315        0.12943
     312 -> 316       -0.23945

 Excited State   4:      Singlet-A      2.1953 eV  564.77 nm  f=0.1652  <S**2>=0.000
     309 -> 313        0.56250
     310 -> 314       -0.30448
     311 -> 315        0.24652
     312 -> 316        0.13375

 Excited State   5:      Singlet-A      2.5563 eV  485.02 nm  f=0.0000  <S**2>=0.000
     312 -> 313        0.70706

 The electronic state is 1-A.
 Alpha  occ. eigenvalues --  -46.87728 -46.87487 -19.26380 -19.26297 -19.19116
 Alpha  occ. eigenvalues --  -19.19097 -19.18707 -19.18480 -19.18172 -19.17916
 Alpha  occ. eigenvalues --  -14.42388 -14.42326 -14.41377 -14.41192 -14.39330
 Alpha  occ. eigenvalues --  -14.39168 -14.38530 -14.38432 -10.39164 -10.39020
 Alpha  occ. eigenvalues --  -10.35335 -10.35148 -10.34395 -10.34098 -10.31808
 Alpha  occ. eigenvalues --  -10.31738 -10.31360 -10.31153 -10.30849 -10.30841
 Alpha  occ. eigenvalues --  -10.30516 -10.30445 -10.30231 -10.30192 -10.30113
 Alpha  occ. eigenvalues --  -10.29955 -10.29857 -10.29749 -10.29565 -10.29240
 Alpha  occ. eigenvalues --  -10.29213 -10.29175 -10.28719 -10.28575 -10.28559
 Alpha  occ. eigenvalues --  -10.28548 -10.28308 -10.28225 -10.28076 -10.27989
 Alpha  occ. eigenvalues --  -10.27820 -10.27737 -10.27661 -10.27509 -10.27489
 Alpha  occ. eigenvalues --  -10.27392 -10.27372 -10.27356 -10.27356 -10.27354
 Alpha  occ. eigenvalues --  -10.27319 -10.27262 -10.27242 -10.27170 -10.27120
 Alpha  occ. eigenvalues --  -10.26931 -10.26690 -10.26557 -10.26249 -10.26197
 Alpha  occ. eigenvalues --  -10.26062 -10.26034 -10.26000 -10.25941 -10.25890
 Alpha  occ. eigenvalues --  -10.25819 -10.25764 -10.25723 -10.25353 -10.25281
 Alpha  occ. eigenvalues --  -10.24788 -10.24719 -10.24702 -10.24582 -10.24527
 Alpha  occ. eigenvalues --  -10.24489  -3.16471  -3.16237  -1.91353  -1.91119
 Alpha  occ. eigenvalues --   -1.90939  -1.90781  -1.90708  -1.90544  -1.16727
 Alpha  occ. eigenvalues --   -1.16587  -1.08642  -1.08533  -1.07105  -1.06880
 Alpha  occ. eigenvalues --   -1.06735  -1.06734  -1.04523  -1.04324  -1.03691
 Alpha  occ. eigenvalues --   -1.03491  -1.03168  -1.02868  -1.02346  -1.01941
 Alpha  occ. eigenvalues --   -0.91936  -0.91833  -0.89430  -0.89337  -0.89150
 Alpha  occ. eigenvalues --   -0.89003  -0.88197  -0.88071  -0.87826  -0.87637
 Alpha  occ. eigenvalues --   -0.87612  -0.87516  -0.87176  -0.86867  -0.84939
 Alpha  occ. eigenvalues --   -0.84846  -0.83846  -0.83734  -0.82852  -0.82701
 Alpha  occ. eigenvalues --   -0.82597  -0.82460  -0.81592  -0.81480  -0.80557
 Alpha  occ. eigenvalues --   -0.80289  -0.78718  -0.78421  -0.77152  -0.76976
 Alpha  occ. eigenvalues --   -0.76906  -0.76770  -0.75898  -0.75693  -0.74827
 Alpha  occ. eigenvalues --   -0.74659  -0.72713  -0.72531  -0.71620  -0.71430
 Alpha  occ. eigenvalues --   -0.69789  -0.69610  -0.68824  -0.68667  -0.67587
 Alpha  occ. eigenvalues --   -0.67437  -0.67168  -0.67021  -0.65252  -0.65125
 Alpha  occ. eigenvalues --   -0.64818  -0.64620  -0.64574  -0.64511  -0.64186
 Alpha  occ. eigenvalues --   -0.64054  -0.62313  -0.62171  -0.60351  -0.60125
 Alpha  occ. eigenvalues --   -0.59759  -0.59638  -0.58934  -0.58837  -0.58456
 Alpha  occ. eigenvalues --   -0.58271  -0.57597  -0.57437  -0.57244  -0.57066
 Alpha  occ. eigenvalues --   -0.56263  -0.56034  -0.56004  -0.55770  -0.55453
 Alpha  occ. eigenvalues --   -0.55293  -0.55268  -0.55115  -0.54496  -0.54369
 Alpha  occ. eigenvalues --   -0.53859  -0.53764  -0.53232  -0.53168  -0.53060
 Alpha  occ. eigenvalues --   -0.52968  -0.52894  -0.52757  -0.52666  -0.52411
 Alpha  occ. eigenvalues --   -0.52315  -0.52254  -0.51885  -0.51747  -0.51570
 Alpha  occ. eigenvalues --   -0.51480  -0.51155  -0.51058  -0.50445  -0.50197
 Alpha  occ. eigenvalues --   -0.49930  -0.49833  -0.49781  -0.49695  -0.49458
 Alpha  occ. eigenvalues --   -0.49292  -0.49172  -0.49065  -0.49023  -0.48962
 Alpha  occ. eigenvalues --   -0.48579  -0.48420  -0.48411  -0.48360  -0.48241
 Alpha  occ. eigenvalues --   -0.48117  -0.47633  -0.47418  -0.47230  -0.46926
 Alpha  occ. eigenvalues --   -0.46732  -0.46555  -0.46520  -0.46396  -0.46301
 Alpha  occ. eigenvalues --   -0.46118  -0.46098  -0.45945  -0.45818  -0.45703
 Alpha  occ. eigenvalues --   -0.45119  -0.45061  -0.44561  -0.44425  -0.44377
 Alpha  occ. eigenvalues --   -0.44316  -0.44088  -0.44028  -0.43977  -0.43961
 Alpha  occ. eigenvalues --   -0.43915  -0.43722  -0.43494  -0.43445  -0.43327
 Alpha  occ. eigenvalues --   -0.43237  -0.42978  -0.42830  -0.42755  -0.42749
 Alpha  occ. eigenvalues --   -0.42557  -0.42385  -0.41935  -0.41819  -0.41660
 Alpha  occ. eigenvalues --   -0.41521  -0.41488  -0.41309  -0.41089  -0.40837
 Alpha  occ. eigenvalues --   -0.40810  -0.40726  -0.40564  -0.40492  -0.40486
 Alpha  occ. eigenvalues --   -0.40350  -0.40198  -0.40061  -0.39312  -0.39277
 Alpha  occ. eigenvalues --   -0.38386  -0.38207  -0.37721  -0.37519  -0.37240
 Alpha  occ. eigenvalues --   -0.37224  -0.37112  -0.37038  -0.36753  -0.36690
 Alpha  occ. eigenvalues --   -0.36161  -0.36083  -0.34229  -0.34092  -0.33840
 Alpha  occ. eigenvalues --   -0.33779  -0.33131  -0.33008  -0.31240  -0.31048
 Alpha  occ. eigenvalues --   -0.30976  -0.30804  -0.30036  -0.29826  -0.29380
 Alpha  occ. eigenvalues --   -0.29269  -0.29131  -0.29035  -0.24020  -0.23869
 Alpha  occ. eigenvalues --   -0.21062  -0.20940
 Alpha virt. eigenvalues --   -0.08708  -0.08609  -0.01677  -0.01509   0.00018
 Alpha virt. eigenvalues --    0.00179   0.02236   0.02361   0.03182   0.03443
 Alpha virt. eigenvalues --    0.04766   0.04880   0.05029   0.05246   0.06184

 Mulliken charges:
               1
     1  Mg   0.839230
     2  C   -0.003422
     3  C   -0.093724
     4  C   -0.045643
     5  C   -0.063554
     6  N   -0.256859
     7  C   -0.052643
     8  C   -0.014103
     9  C   -0.087134
    10  C    0.046552
    11  C    0.104802
    12  C    0.053343
    13  C   -0.071448
    14  H    0.034634
    15  N   -0.433267
    16  C    0.168942
    17  C   -0.176457
    18  C   -0.003467
    19  C    0.148965
    20  C    0.110018
    21  C    0.012838
    22  O   -0.249596
    23  C    0.062047
    24  N   -0.341218
    25  C    0.041522
    26  C   -0.028168
    27  C   -0.023953
    28  C    0.074846
    29  C    0.076225
    30  C    0.035048
    31  C   -0.004918
    32  N   -0.310161
    33  C    0.080030
    34  C   -0.170421
    35  C    0.007566
    36  C    0.082519
    37  C    0.127584
    38  C    0.044988
    39  O   -0.189976
    40  C   -0.005001
    41  C    0.212794
    42  O   -0.258707
    43  O   -0.304318
    44  C    0.158260
    45  H   -0.017461
    46  H   -0.016624
    47  H   -0.041380
    48  H    0.000506
    49  H   -0.003747
    50  H    0.025270
    51  H    0.016603
    52  H    0.016672
    53  H    0.012298
    54  H    0.043211
    55  H    0.017764
    56  H    0.018624
    57  H    0.005878
    58  H    0.026795
    59  H    0.041392
    60  H    0.037114
    61  H    0.035918
    62  H    0.033232
    63  H    0.016855
    64  H    0.009172
    65  H    0.023207
    66  H    0.012367
    67  H    0.004673
    68  H    0.006128
    69  H    0.004903
    70  H    0.008327
    71  H    0.020945
    72  H    0.028645
    73  H    0.046148
    74  H    0.009616
    75  H    0.045844
    76  H    0.035122
    77  H    0.042680
    78  H    0.046775
    79  H    0.051935
    80  Mg   0.837919
    81  C   -0.017021
    82  C   -0.086500
    83  C   -0.045622
    84  C   -0.064950
    85  N   -0.254545
    86  C   -0.050271
    87  C   -0.015122
    88  C   -0.090691
    89  C    0.045873
    90  C    0.114397
    91  C    0.062157
    92  C   -0.077383
    93  H    0.033127
    94  N   -0.423705
    95  C    0.163638
    96  C   -0.173021
    97  C   -0.007135
    98  C    0.152233
    99  C    0.098704
   100  C    0.015955
   101  O   -0.254442
   102  C    0.060237
   103  N   -0.350067
   104  C    0.037757
   105  C   -0.019794
   106  C   -0.034581
   107  C    0.088604
   108  C    0.073833
   109  C    0.034838
   110  C   -0.007561
   111  N   -0.323843
   112  C    0.077832
   113  C   -0.163756
   114  C    0.001821
   115  C    0.095740
   116  C    0.131647
   117  C    0.041751
   118  O   -0.189165
   119  C    0.001049
   120  C    0.211220
   121  O   -0.251680
   122  O   -0.305465
   123  C    0.152400
   124  H   -0.019337
   125  H   -0.015881
   126  H   -0.040994
   127  H   -0.001228
   128  H   -0.003785
   129  H    0.022128
   130  H    0.014480
   131  H    0.016142
   132  H    0.015537
   133  H    0.037003
   134  H    0.020452
   135  H    0.020171
   136  H    0.008674
   137  H    0.025581
   138  H    0.045704
   139  H    0.038108
   140  H    0.035554
   141  H    0.038937
   142  H    0.014103
   143  H    0.011968
   144  H    0.024725
   145  H    0.011657
   146  H    0.005405
   147  H    0.005723
   148  H    0.003380
   149  H    0.010592
   150  H    0.018271
   151  H    0.030321
   152  H    0.045215
   153  H    0.008241
   154  H    0.046444
   155  H    0.034690
   156  H    0.043463
   157  H    0.049483
   158  H    0.052658
 Sum of Mulliken charges =  -0.00000

 Dipole moment (field-independent basis, Debye):
    X=              1.5883    Y=              3.0749    Z=              0.1786  Tot=              3.4655
 Quadrupole moment (field-independent basis, Debye-Ang):
   XX=           -507.5940   YY=           -461.7624   ZZ=           -528.7725
   XY=              3.6614   XZ=             51.9360   YZ=              9.7897

 Normal termination of Gaussian 16 at Fri Sep 10 12:19:49 2021.
