 Gaussian 16, Revision A.03,
 Gaussian 16:  ES64L-G16RevA.03 25-Dec-2016

 -----------------------------------
 #p cam-b3lyp/Def2SVP td=(nstates=5)
 -----------------------------------

 --------------------------------
 TDDFT excited states in gaussian
 --------------------------------
 Symbolic Z-matrix:
 Charge =  0 Multiplicity = 1

                         Standard orientation:
 ---------------------------------------------------------------------
 Center     Atomic      Atomic             Coordinates (Angstroms)
 Number     Number       Type             X           Y           Z
 ---------------------------------------------------------------------
      1         12           0       -5.139307   -0.840663    0.101209
      2          6           0       -5.426702    1.963621    2.307022
      3          6           0       -6.119932    1.234304   -2.423855
      4          6           0       -5.332466   -3.391213   -1.773358
      5          6           0       -5.294128   -2.885397    2.919143
      6          7           0       -5.675129    1.307032    0.070399
      7          6           0       -5.686935    2.283299    0.972582
      8          6           0       -5.927840    3.692957    0.354357
      9          6           0       -6.678184    3.256442   -0.982968
     10          6           0       -6.097693    1.862430   -1.143232
     11          6           0       -8.190899    3.143255   -0.823641
     12          6           0       -4.588724    4.441745    0.041602
     13          6           0       -4.730448    5.937379   -0.255629
     14          1           0       -3.683973    6.842956    0.194005
     15          7           0       -5.173680   -0.983036   -1.868917
     16          6           0       -5.588367   -0.034111   -2.742337
     17          6           0       -5.419935   -0.619050   -4.089986
     18          6           0       -5.052826   -2.052519   -3.921196
     19          6           0       -5.199143   -2.208262   -2.496516
     20          6           0       -5.557513    0.173073   -5.353855
     21          6           0       -4.646402   -3.116316   -4.891396
     22          8           0       -4.596541   -4.351455   -4.565022
     23          6           0       -4.390278   -2.679653   -6.275870
     24          7           0       -5.511941   -2.858794    0.483213
     25          6           0       -5.481928   -3.764342   -0.500690
     26          6           0       -5.494665   -5.162187    0.043190
     27          6           0       -5.293756   -5.024366    1.621288
     28          6           0       -5.281682   -3.479160    1.723585
     29          6           0       -6.762817   -5.979121   -0.240394
     30          6           0       -4.119968   -5.814530    2.252383
     31          6           0       -2.802702   -5.244352    1.776146
     32          7           0       -5.148671   -0.546319    2.251632
     33          6           0       -5.241535   -1.538776    3.238079
     34          6           0       -5.318963   -0.848966    4.538939
     35          6           0       -5.282223    0.506006    4.215602
     36          6           0       -5.214290    0.653633    2.800723
     37          6           0       -5.467646   -1.476285    5.807323
     38          6           0       -5.309392    1.863759    4.734856
     39          8           0       -5.267645    2.362728    5.860369
     40          6           0       -5.526904    2.862834    3.514051
     41          6           0       -4.520037    3.972381    3.649819
     42          8           0       -3.299400    3.748131    3.518966
     43          8           0       -5.159094    5.152012    3.674730
     44          6           0       -4.215593    6.297092    3.778415
     45          1           0       -6.642256    1.728710   -3.245245
     46          1           0       -5.291759   -4.300797   -2.376216
     47          1           0       -5.259110   -3.459090    3.847100
     48          1           0       -6.570677    4.344926    0.946067
     49          1           0       -6.398441    3.883052   -1.829623
     50          1           0       -8.491348    3.256109    0.217951
     51          1           0       -8.448393    2.148744   -1.188521
     52          1           0       -8.703318    3.845737   -1.481458
     53          1           0       -4.200191    4.098078   -0.917041
     54          1           0       -3.870294    4.301312    0.849973
     55          1           0       -5.711512    6.311074    0.038944
     56          1           0       -4.701503    6.075026   -1.336562
     57          1           0       -5.994153    1.153296   -5.166631
     58          1           0       -6.294643   -0.339072   -5.971961
     59          1           0       -4.614126    0.250162   -5.894605
     60          1           0       -5.289294   -2.211975   -6.677861
     61          1           0       -4.024956   -3.558669   -6.805701
     62          1           0       -3.621039   -1.906918   -6.265793
     63          1           0       -4.676823   -5.750417   -0.370991
     64          1           0       -6.169770   -5.361219    2.176090
     65          1           0       -6.571933   -6.916685   -0.763120
     66          1           0       -7.450050   -5.349553   -0.804882
     67          1           0       -7.359798   -6.216734    0.639703
     68          1           0       -4.151272   -6.856745    1.936543
     69          1           0       -4.126737   -5.797936    3.342305
     70          1           0       -2.656634   -5.738050    0.816063
     71          1           0       -2.003428   -5.500410    2.472427
     72          1           0       -2.878490   -4.173935    1.583923
     73          1           0       -4.781291   -0.965487    6.482579
     74          1           0       -5.247369   -2.542035    5.750230
     75          1           0       -6.520188   -1.277642    6.008702
     76          1           0       -6.550852    3.228078    3.586510
     77          1           0       -4.509270    6.876736    4.653629
     78          1           0       -4.230091    6.799136    2.810868
     79          1           0       -3.183977    6.050248    4.031746
     80         12           0        5.431399   -0.429698    0.000425
     81          6           0        4.222576    1.883557   -2.462640
     82          6           0        7.289131    2.130618    1.276455
     83          6           0        6.853792   -2.538708    1.896825
     84          6           0        4.403444   -3.002848   -2.113324
     85          7           0        5.643276    1.687990   -0.601889
     86          6           0        5.087619    2.469810   -1.515309
     87          6           0        5.418405    3.978254   -1.358068
     88          6           0        6.797998    3.838746   -0.548049
     89          6           0        6.555740    2.484832    0.115945
     90          6           0        8.015497    3.717648   -1.449376
     91          6           0        4.335020    4.743553   -0.519848
     92          6           0        4.429915    6.269431   -0.586507
     93          1           0        3.192981    7.045321   -0.565094
     94          7           0        6.471519   -0.159998    1.668949
     95          6           0        7.144349    0.950143    2.037948
     96          6           0        7.758883    0.635030    3.336874
     97          6           0        7.530268   -0.806683    3.626537
     98          6           0        6.948316   -1.238636    2.371609
     99          6           0        8.408565    1.674606    4.203263
    100          6           0        7.803493   -1.658748    4.828836
    101          8           0        7.742886   -2.937929    4.775419
    102          6           0        8.235055   -0.956046    6.045984
    103          7           0        5.798385   -2.467885   -0.182473
    104          6           0        6.388087   -3.156024    0.810833
    105          6           0        6.298084   -4.644328    0.571604
    106          6           0        5.309286   -4.820408   -0.672928
    107          6           0        5.057992   -3.333977   -1.008756
    108          6           0        7.620261   -5.351547    0.274815
    109          6           0        4.081630   -5.750190   -0.470343
    110          6           0        3.126338   -5.133936    0.526165
    111          7           0        4.321625   -0.574816   -1.847649
    112          6           0        4.026659   -1.748356   -2.575581
    113          6           0        3.352320   -1.329860   -3.821601
    114          6           0        3.322101    0.070593   -3.742211
    115          6           0        3.952401    0.495926   -2.541667
    116          6           0        2.907787   -2.197525   -4.858736
    117          6           0        2.909775    1.286321   -4.406064
    118          8           0        2.253007    1.546155   -5.413464
    119          6           0        3.586960    2.520093   -3.667392
    120          6           0        2.526029    3.560173   -3.432515
    121          8           0        1.575203    3.330900   -2.664417
    122          8           0        2.921580    4.724316   -3.979054
    123          6           0        1.907086    5.790047   -3.762637
    124          1           0        8.080856    2.799905    1.614244
    125          1           0        7.231445   -3.314155    2.567293
    126          1           0        3.964794   -3.750023   -2.778141
    127          1           0        5.585730    4.506090   -2.289289
    128          1           0        6.896279    4.619159    0.202053
    129          1           0        7.739379    3.626367   -2.489364
    130          1           0        8.539864    2.830967   -1.117911
    131          1           0        8.698154    4.554293   -1.275208
    132          1           0        4.534132    4.589409    0.548489
    133          1           0        3.347315    4.430451   -0.797383
    134          1           0        5.081044    6.606683   -1.402125
    135          1           0        4.927517    6.626035    0.318615
    136          1           0        8.572263    2.610358    3.654663
    137          1           0        9.417203    1.314452    4.433070
    138          1           0        7.870325    1.839233    5.139132
    139          1           0        9.144127   -0.397085    5.837157
    140          1           0        8.294777   -1.723033    6.820605
    141          1           0        7.468636   -0.220957    6.315932
    142          1           0        5.874555   -5.149259    1.431121
    143          1           0        5.822459   -5.256634   -1.542511
    144          1           0        7.839948   -6.178525    0.976179
    145          1           0        8.412986   -4.615518    0.294528
    146          1           0        7.709767   -5.760618   -0.730106
    147          1           0        4.397000   -6.707047   -0.047133
    148          1           0        3.546377   -5.965217   -1.389181
    149          1           0        3.553046   -5.426193    1.490323
    150          1           0        2.124916   -5.539972    0.398393
    151          1           0        3.153120   -4.039409    0.472018
    152          1           0        1.925987   -1.852154   -5.154169
    153          1           0        2.882496   -3.233405   -4.526948
    154          1           0        3.687510   -2.024555   -5.605317
    155          1           0        4.386356    2.888856   -4.311252
    156          1           0        1.648019    6.189392   -4.748080
    157          1           0        2.361094    6.491990   -3.038132
    158          1           0        0.933679    5.488050   -3.394236
 ---------------------------------------------------------------------

 SCF Done:  E(RCAM-B3LYP) =  -4069.81206669     A.U. after   19 cycles

 Excitation energies and oscillator strengths:

 Excited State   1:      Singlet-A      1.6576 eV  747.96 nm  f=0.0684  <S**2>=0.000
     309 -> 315        0.12831
     310 -> 316        0.11011
     311 -> 313        0.52135
     312 -> 314        0.44763
 This state for optimization and/or second-order correction.
 Total Energy, E(TD-HF/TD-DFT) =  -4069.75114951
 Copying the excited state density for this state as the 1-particle RhoCI density.

 Excited State   2:      Singlet-A      1.6962 eV  730.95 nm  f=0.6671  <S**2>=0.000
     309 -> 315       -0.11650
     310 -> 316        0.13612
     311 -> 313       -0.44604
     312 -> 314        0.51949

 Excited State   3:      Singlet-A      2.1830 eV  567.96 nm  f=0.0224  <S**2>=0.000
     309 -> 313        0.58025
     310 -> 314       -0.27947
     311 -> 315       -0.24376
     312 -> 316        0.11643

 Excited State   4:      Singlet-A      2.1946 eV  564.96 nm  f=0.1586  <S**2>=0.000
     309 -> 313        0.27669
     310 -> 314        0.57668
     311 -> 315       -0.12147
     312 -> 316       -0.25215

 Excited State   5:      Singlet-A      2.4976 eV  496.42 nm  f=0.0000  <S**2>=0.000
     312 -> 313        0.70689

 The electronic state is 1-A.
 Alpha  occ. eigenvalues --  -46.87556 -46.87424 -19.26375 -19.26022 -19.19157
 Alpha  occ. eigenvalues --  -19.18725 -19.18608 -19.18461 -19.18035 -19.17858
 Alpha  occ. eigenvalues --  -14.42396 -14.42083 -14.41264 -14.41104 -14.39249
 Alpha  occ. eigenvalues --  -14.39027 -14.38506 -14.38229 -10.39083 -10.38785
 Alpha  occ. eigenvalues --  -10.35284 -10.35090 -10.34211 -10.34079 -10.31831
 Alpha  occ. eigenvalues --  -10.31465 -10.31224 -10.31054 -10.30925 -10.30534
 Alpha  occ. eigenvalues --  -10.30307 -10.30275 -10.30214 -10.30164 -10.30035
 Alpha  occ. eigenvalues --  -10.29862 -10.29809 -10.29607 -10.29334 -10.29312
 Alpha  occ. eigenvalues --  -10.29281 -10.28886 -10.28630 -10.28570 -10.28386
 Alpha  occ. eigenvalues --  -10.28316 -10.28215 -10.28056 -10.27999 -10.27920
 Alpha  occ. eigenvalues --  -10.27768 -10.27573 -10.27439 -10.27421 -10.27396
 Alpha  occ. eigenvalues --  -10.27372 -10.27364 -10.27351 -10.27288 -10.27235
 Alpha  occ. eigenvalues --  -10.27217 -10.27192 -10.27053 -10.27031 -10.27019
 Alpha  occ. eigenvalues --  -10.26848 -10.26572 -10.26288 -10.26280 -10.26029
 Alpha  occ. eigenvalues --  -10.25996 -10.25962 -10.25961 -10.25932 -10.25835
 Alpha  occ. eigenvalues --  -10.25799 -10.25681 -10.25562 -10.25324 -10.25206
 Alpha  occ. eigenvalues --  -10.24797 -10.24610 -10.24600 -10.24487 -10.24477
 Alpha  occ. eigenvalues --  -10.24452  -3.16305  -3.16165  -1.91186  -1.91046
 Alpha  occ. eigenvalues --   -1.90776  -1.90634  -1.90613  -1.90476  -1.16663
 Alpha  occ. eigenvalues --   -1.16363  -1.08651  -1.08323  -1.06946  -1.06865
 Alpha  occ. eigenvalues --   -1.06859  -1.06351  -1.04399  -1.04217  -1.03567
 Alpha  occ. eigenvalues --   -1.03413  -1.02944  -1.02877  -1.02059  -1.02019
 Alpha  occ. eigenvalues --   -0.91915  -0.91632  -0.89402  -0.89220  -0.89062
 Alpha  occ. eigenvalues --   -0.88833  -0.88127  -0.87994  -0.87720  -0.87589
 Alpha  occ. eigenvalues --   -0.87540  -0.87315  -0.87016  -0.86885  -0.84910
 Alpha  occ. eigenvalues --   -0.84631  -0.83790  -0.83666  -0.82827  -0.82608
 Alpha  occ. eigenvalues --   -0.82568  -0.82305  -0.81561  -0.81285  -0.80377
 Alpha  occ. eigenvalues --   -0.80263  -0.78542  -0.78428  -0.77056  -0.76895
 Alpha  occ. eigenvalues --   -0.76835  -0.76622  -0.75779  -0.75604  -0.74727
 Alpha  occ. eigenvalues --   -0.74611  -0.72613  -0.72438  -0.71503  -0.71350
 Alpha  occ. eigenvalues --   -0.69659  -0.69643  -0.68743  -0.68529  -0.67521
 Alpha  occ. eigenvalues --   -0.67301  -0.67100  -0.66850  -0.65192  -0.64939
 Alpha  occ. eigenvalues --   -0.64696  -0.64584  -0.64529  -0.64304  -0.64116
 Alpha  occ. eigenvalues --   -0.63963  -0.62249  -0.62007  -0.60241  -0.60083
 Alpha  occ. eigenvalues --   -0.59708  -0.59450  -0.58912  -0.58658  -0.58354
 Alpha  occ. eigenvalues --   -0.58174  -0.57520  -0.57273  -0.57155  -0.56992
 Alpha  occ. eigenvalues --   -0.56129  -0.55970  -0.55853  -0.55682  -0.55382
 Alpha  occ. eigenvalues --   -0.55183  -0.55174  -0.55060  -0.54434  -0.54246
 Alpha  occ. eigenvalues --   -0.53823  -0.53540  -0.53145  -0.53070  -0.52968
 Alpha  occ. eigenvalues --   -0.52866  -0.52833  -0.52596  -0.52565  -0.52378
 Alpha  occ. eigenvalues --   -0.52302  -0.52177  -0.51828  -0.51609  -0.51568
 Alpha  occ. eigenvalues --   -0.51252  -0.51141  -0.50882  -0.50363  -0.50171
 Alpha  occ. eigenvalues --   -0.49886  -0.49776  -0.49733  -0.49555  -0.49398
 Alpha  occ. eigenvalues --   -0.49168  -0.49132  -0.49044  -0.48876  -0.48771
 Alpha  occ. eigenvalues --   -0.48504  -0.48315  -0.48286  -0.48246  -0.48170
 Alpha  occ. eigenvalues --   -0.48094  -0.47516  -0.47361  -0.47034  -0.46958
 Alpha  occ. eigenvalues --   -0.46624  -0.46476  -0.46467  -0.46210  -0.46190
 Alpha  occ. eigenvalues --   -0.46024  -0.46017  -0.45858  -0.45778  -0.45527
 Alpha  occ. eigenvalues --   -0.45126  -0.44914  -0.44459  -0.44389  -0.44271
 Alpha  occ. eigenvalues --   -0.44163  -0.44066  -0.43994  -0.43857  -0.43828
 Alpha  occ. eigenvalues --   -0.43768  -0.43675  -0.43523  -0.43308  -0.43197
 Alpha  occ. eigenvalues --   -0.43052  -0.42912  -0.42838  -0.42707  -0.42457
 Alpha  occ. eigenvalues --   -0.42416  -0.42384  -0.41873  -0.41712  -0.41608
 Alpha  occ. eigenvalues --   -0.41380  -0.41369  -0.41197  -0.40912  -0.40817
 Alpha  occ. eigenvalues --   -0.40625  -0.40597  -0.40548  -0.40458  -0.40405
 Alpha  occ. eigenvalues --   -0.40278  -0.40121  -0.39849  -0.39322  -0.39184
 Alpha  occ. eigenvalues --   -0.38257  -0.38174  -0.37563  -0.37397  -0.37175
 Alpha  occ. eigenvalues --   -0.37109  -0.37008  -0.36904  -0.36756  -0.36427
 Alpha  occ. eigenvalues --   -0.36144  -0.35887  -0.34165  -0.33937  -0.33841
 Alpha  occ. eigenvalues --   -0.33463  -0.33086  -0.32839  -0.31168  -0.30994
 Alpha  occ. eigenvalues --   -0.30883  -0.30691  -0.29943  -0.29721  -0.29234
 Alpha  occ. eigenvalues --   -0.29131  -0.29082  -0.28968  -0.23943  -0.23726
 Alpha  occ. eigenvalues --   -0.21023  -0.20774
 Alpha virt. eigenvalues --   -0.08702  -0.08415  -0.01585  -0.01398   0.00065
 Alpha virt. eigenvalues --    0.00308   0.02267   0.02525   0.03384   0.03656
 Alpha virt. eigenvalues --    0.04820   0.05062   0.05174   0.05397   0.06257

 Mulliken charges:
               1
     1  Mg   0.841724
     2  C   -0.002196
     3  C   -0.092151
     4  C   -0.046483
     5  C   -0.064490
     6  N   -0.256727
     7  C   -0.051866
     8  C   -0.014628
     9  C   -0.087463
    10  C    0.047550
    11  C    0.104975
    12  C    0.053125
    13  C   -0.070803
    14  H    0.033943
    15  N   -0.433133
    16  C    0.170245
    17  C   -0.175165
    18  C   -0.003399
    19  C    0.149259
    20  C    0.109946
    21  C    0.012490
    22  O   -0.251205
    23  C    0.061488
    24  N   -0.341163
    25  C    0.041463
    26  C   -0.028001
    27  C   -0.023672
    28  C    0.074559
    29  C    0.076469
    30  C    0.035417
    31  C   -0.004682
    32  N   -0.310203
    33  C    0.080106
    34  C   -0.170423
    35  C    0.007804
    36  C    0.083064
    37  C    0.127470
    38  C    0.045719
    39  O   -0.189987
    40  C   -0.005425
    41  C    0.212461
    42  O   -0.256233
    43  O   -0.304985
    44  C    0.158279
    45  H   -0.017956
    46  H   -0.017773
    47  H   -0.042516
    48  H   -0.000183
    49  H   -0.003660
    50  H    0.024936
    51  H    0.016169
    52  H    0.016000
    53  H    0.015398
    54  H    0.045224
    55  H    0.016586
    56  H    0.017756
    57  H    0.005725
    58  H    0.025583
    59  H    0.043896
    60  H    0.036833
    61  H    0.034428
    62  H    0.035520
    63  H    0.015614
    64  H    0.008834
    65  H    0.022388
    66  H    0.012578
    67  H    0.004242
    68  H    0.005249
    69  H    0.004474
    70  H    0.007355
    71  H    0.017586
    72  H    0.030555
    73  H    0.046774
    74  H    0.008533
    75  H    0.045224
    76  H    0.034408
    77  H    0.041799
    78  H    0.046266
    79  H    0.053111
    80  Mg   0.839650
    81  C   -0.016504
    82  C   -0.087499
    83  C   -0.045405
    84  C   -0.064762
    85  N   -0.254630
    86  C   -0.049482
    87  C   -0.015487
    88  C   -0.090674
    89  C    0.046360
    90  C    0.114450
    91  C    0.062386
    92  C   -0.077621
    93  H    0.034279
    94  N   -0.423499
    95  C    0.163691
    96  C   -0.174310
    97  C   -0.007415
    98  C    0.152514
    99  C    0.099396
   100  C    0.016022
   101  O   -0.253259
   102  C    0.060907
   103  N   -0.350115
   104  C    0.037671
   105  C   -0.019855
   106  C   -0.034740
   107  C    0.088806
   108  C    0.073744
   109  C    0.034683
   110  C   -0.007994
   111  N   -0.323954
   112  C    0.078384
   113  C   -0.163150
   114  C    0.001323
   115  C    0.096568
   116  C    0.131734
   117  C    0.042052
   118  O   -0.190509
   119  C    0.001036
   120  C    0.210273
   121  O   -0.250176
   122  O   -0.305616
   123  C    0.152742
   124  H   -0.019782
   125  H   -0.015618
   126  H   -0.040291
   127  H   -0.001367
   128  H   -0.004114
   129  H    0.022096
   130  H    0.014370
   131  H    0.016067
   132  H    0.015419
   133  H    0.038514
   134  H    0.019968
   135  H    0.019918
   136  H    0.008746
   137  H    0.025903
   138  H    0.040744
   139  H    0.037977
   140  H    0.036414
   141  H    0.034892
   142  H    0.014450
   143  H    0.012181
   144  H    0.024988
   145  H    0.011492
   146  H    0.005508
   147  H    0.005790
   148  H    0.004146
   149  H    0.010527
   150  H    0.018433
   151  H    0.030703
   152  H    0.044430
   153  H    0.009626
   154  H    0.046335
   155  H    0.034558
   156  H    0.042453
   157  H    0.050054
   158  H    0.052428
 Sum of Mulliken charges =  -0.00000

 Dipole moment (field-independent basis, Debye):
    X=              1.5977    Y=              3.1090    Z=             -2.1620  Tot=              4.1101
 Quadrupole moment (field-independent basis, Debye-Ang):
   XX=           -465.5835   YY=           -462.5463   ZZ=           -538.9324
   XY=             16.4795   XZ=             22.2172   YZ=            -12.1268

 Normal termination of Gaussian 16 at Fri Sep 10 15:00:20 2021.
