 Gaussian 16, Revision A.03,
 Gaussian 16:  ES64L-G16RevA.03 25-Dec-2016

 -----------------------------------
 #p cam-b3lyp/Def2SVP td=(nstates=5)
 -----------------------------------

 --------------------------------
 TDDFT excited states in gaussian
 --------------------------------
 Symbolic Z-matrix:
 Charge =  0 Multiplicity = 1

                         Standard orientation:
 ---------------------------------------------------------------------
 Center     Atomic      Atomic             Coordinates (Angstroms)
 Number     Number       Type             X           Y           Z
 ---------------------------------------------------------------------
      1         12           0       -4.512643   -0.201814    0.304989
      2          6           0       -4.233830    3.350529    0.644595
      3          6           0       -5.512282    0.333732   -2.913236
      4          6           0       -5.200877   -3.291878    0.119360
      5          6           0       -4.599109   -0.379506    3.784445
      6          7           0       -4.796075    1.652464   -0.870581
      7          6           0       -4.597418    2.946871   -0.642070
      8          6           0       -4.738451    3.828423   -1.918921
      9          6           0       -5.673945    2.870280   -2.784260
     10          6           0       -5.279616    1.534539   -2.179096
     11          6           0       -7.163572    3.096466   -2.546867
     12          6           0       -3.363079    4.076538   -2.624982
     13          6           0       -3.361650    5.185029   -3.681675
     14          1           0       -2.174967    6.014946   -3.824388
     15          7           0       -4.775226   -1.363470   -1.271226
     16          6           0       -5.168739   -0.974078   -2.507675
     17          6           0       -5.215347   -2.204312   -3.326841
     18          6           0       -5.000853   -3.364530   -2.418006
     19          6           0       -5.009974   -2.713110   -1.133114
     20          6           0       -5.395460   -2.196362   -4.813867
     21          6           0       -4.827332   -4.829430   -2.667182
     22          8           0       -4.886133   -5.691330   -1.724714
     23          6           0       -4.672894   -5.242781   -4.073714
     24          7           0       -5.073391   -1.619887    1.730566
     25          6           0       -5.254671   -2.901772    1.394573
     26          6           0       -5.370722   -3.773561    2.609668
     27          6           0       -4.986441   -2.850271    3.854504
     28          6           0       -4.784383   -1.511846    3.102134
     29          6           0       -6.748135   -4.406817    2.849937
     30          6           0       -3.851077   -3.354736    4.780185
     31          6           0       -2.535587   -3.338858    4.034309
     32          7           0       -4.256216    1.189074    1.951416
     33          6           0       -4.356737    0.902653    3.320551
     34          6           0       -4.213153    2.181083    4.041016
     35          6           0       -4.054624    3.130833    3.033699
     36          6           0       -4.122785    2.490082    1.763626
     37          6           0       -4.296105    2.357260    5.450454
     38          6           0       -3.868149    4.541290    2.734208
     39          8           0       -3.647895    5.549027    3.407592
     40          6           0       -4.098563    4.756825    1.173349
     41          6           0       -2.961141    5.595603    0.657568
     42          8           0       -1.795963    5.149255    0.635224
     43          8           0       -3.452724    6.690027    0.056633
     44          6           0       -2.377205    7.551168   -0.503590
     45          1           0       -6.059162    0.389345   -3.856513
     46          1           0       -5.331036   -4.375990    0.105233
     47          1           0       -4.531113   -0.368493    4.873806
     48          1           0       -5.233902    4.785995   -1.757650
     49          1           0       -5.416256    2.897553   -3.842832
     50          1           0       -7.334999    3.791520   -1.725019
     51          1           0       -7.572396    2.114777   -2.306778
     52          1           0       -7.658939    3.410745   -3.465898
     53          1           0       -3.122503    3.219839   -3.254467
     54          1           0       -2.582934    4.278019   -1.890064
     55          1           0       -4.255321    5.805564   -3.609577
     56          1           0       -3.433507    4.719776   -4.664822
     57          1           0       -5.692815   -1.213015   -5.176018
     58          1           0       -6.249230   -2.836720   -5.034611
     59          1           0       -4.513247   -2.566924   -5.336088
     60          1           0       -5.549660   -4.927536   -4.639799
     61          1           0       -4.471120   -6.313142   -4.052154
     62          1           0       -3.822684   -4.714173   -4.505762
     63          1           0       -4.675966   -4.610862    2.558025
     64          1           0       -5.830728   -2.698889    4.527510
     65          1           0       -6.724624   -5.494952    2.914082
     66          1           0       -7.414516   -4.076319    2.053697
     67          1           0       -7.270374   -4.043178    3.734500
     68          1           0       -4.036809   -4.385247    5.081011
     69          1           0       -3.738476   -2.759799    5.686619
     70          1           0       -2.551969   -4.283413    3.491742
     71          1           0       -1.701089   -3.305841    4.735546
     72          1           0       -2.507037   -2.538598    3.294541
     73          1           0       -3.486473    3.034820    5.721336
     74          1           0       -4.208291    1.405693    5.974299
     75          1           0       -5.290679    2.793656    5.541216
     76          1           0       -5.059473    5.258793    1.064710
     77          1           0       -2.505750    8.545064   -0.074776
     78          1           0       -2.437507    7.456265   -1.587915
     79          1           0       -1.359919    7.319925   -0.185794
     80         12           0        4.399307   -1.363077   -0.216792
     81          6           0        5.142446    2.134369    0.090889
     82          6           0        3.005767   -0.647739   -3.246796
     83          6           0        3.331972   -4.349322   -0.319549
     84          6           0        4.797280   -1.609461    3.236707
     85          7           0        4.165575    0.535830   -1.326653
     86          6           0        4.541837    1.791756   -1.138467
     87          6           0        4.331305    2.717188   -2.366807
     88          6           0        3.162425    1.889927   -3.093601
     89          6           0        3.478163    0.496074   -2.554946
     90          6           0        1.769740    2.278559   -2.625901
     91          6           0        5.611930    2.814678   -3.268197
     92          6           0        5.581853    3.936021   -4.309086
     93          1           0        6.829901    4.624419   -4.626825
     94          7           0        3.773471   -2.451030   -1.754075
     95          6           0        3.257179   -1.997308   -2.915482
     96          6           0        2.933401   -3.194485   -3.706739
     97          6           0        3.147739   -4.393762   -2.852037
     98          6           0        3.411854   -3.763067   -1.574326
     99          6           0        2.547254   -3.132065   -5.156028
    100          6           0        3.107425   -5.865046   -3.134719
    101          8           0        3.089769   -6.731838   -2.190687
    102          6           0        2.994951   -6.258480   -4.546826
    103          7           0        3.898113   -2.733015    1.264561
    104          6           0        3.511309   -3.981588    0.949281
    105          6           0        3.470149   -4.865297    2.173100
    106          6           0        4.145549   -4.010018    3.343536
    107          6           0        4.390286   -2.688565    2.582445
    108          6           0        2.081052   -5.324786    2.615437
    109          6           0        5.338776   -4.662865    4.093653
    110          6           0        6.522560   -4.796535    3.162975
    111          7           0        5.059131   -0.053790    1.370180
    112          6           0        5.124168   -0.350537    2.749232
    113          6           0        5.523228    0.890978    3.443368
    114          6           0        5.641242    1.837259    2.414227
    115          6           0        5.317573    1.233550    1.169129
    116          6           0        5.680208    1.044066    4.849794
    117          6           0        5.955700    3.212263    2.099317
    118          8           0        6.382964    4.173677    2.737163
    119          6           0        5.524062    3.497948    0.596499
    120          6           0        6.661873    4.205524   -0.087060
    121          8           0        7.747476    3.626981   -0.269701
    122          8           0        6.213582    5.364344   -0.603328
    123          6           0        7.303362    6.097302   -1.301169
    124          1           0        2.344472   -0.500909   -4.101207
    125          1           0        3.074997   -5.411095   -0.310695
    126          1           0        5.037862   -1.628673    4.301794
    127          1           0        3.986988    3.716511   -2.128964
    128          1           0        3.273899    1.915279   -4.174486
    129          1           0        1.801443    2.966082   -1.793765
    130          1           0        1.288558    1.354052   -2.334711
    131          1           0        1.186505    2.670960   -3.463865
    132          1           0        5.649113    1.942132   -3.933036
    133          1           0        6.495476    2.903774   -2.666505
    134          1           0        4.782800    4.660802   -4.111192
    135          1           0        5.317852    3.503749   -5.277313
    136          1           0        2.312624   -2.106258   -5.465970
    137          1           0        1.598603   -3.670216   -5.257642
    138          1           0        3.288681   -3.596246   -5.809839
    139          1           0        2.091669   -5.826650   -4.971177
    140          1           0        3.071158   -7.347523   -4.553726
    141          1           0        3.838492   -5.828235   -5.098128
    142          1           0        4.048990   -5.767556    2.018241
    143          1           0        3.429605   -3.782051    4.146830
    144          1           0        1.982145   -6.425391    2.669804
    145          1           0        1.351066   -4.910670    1.932671
    146          1           0        1.748616   -4.932351    3.574956
    147          1           0        5.077992   -5.675341    4.411506
    148          1           0        5.643536   -4.115682    4.979494
    149          1           0        6.307926   -5.723145    2.622211
    150          1           0        7.448235   -4.875504    3.729481
    151          1           0        6.539764   -3.982780    2.428690
    152          1           0        6.587325    1.613791    5.001634
    153          1           0        5.726591    0.079965    5.351932
    154          1           0        4.763116    1.588453    5.090298
    155          1           0        4.620683    4.108385    0.625527
    156          1           0        7.355466    7.094494   -0.853315
    157          1           0        7.058891    6.041159   -2.378589
    158          1           0        8.317932    5.746027   -1.153869
 ---------------------------------------------------------------------

 SCF Done:  E(RCAM-B3LYP) =  -4069.81134104     A.U. after   19 cycles

 Excitation energies and oscillator strengths:

 Excited State   1:      Singlet-A      1.6470 eV  752.79 nm  f=0.0094  <S**2>=0.000
     309 -> 315       -0.11365
     310 -> 316        0.12182
     311 -> 313       -0.46676
     312 -> 314        0.50511
 This state for optimization and/or second-order correction.
 Total Energy, E(TD-HF/TD-DFT) =  -4069.75081531
 Copying the excited state density for this state as the 1-particle RhoCI density.

 Excited State   2:      Singlet-A      1.7040 eV  727.59 nm  f=0.6915  <S**2>=0.000
     309 -> 315        0.13377
     310 -> 316        0.12234
     311 -> 313        0.50244
     312 -> 314        0.46434

 Excited State   3:      Singlet-A      2.1799 eV  568.76 nm  f=0.0146  <S**2>=0.000
     309 -> 313       -0.31156
     310 -> 314        0.56518
     311 -> 315        0.12846
     312 -> 316       -0.23446

 Excited State   4:      Singlet-A      2.1961 eV  564.56 nm  f=0.1594  <S**2>=0.000
     309 -> 313        0.56008
     310 -> 314        0.30687
     311 -> 315       -0.24708
     312 -> 316       -0.13658

 Excited State   5:      Singlet-A      2.3408 eV  529.66 nm  f=0.0000  <S**2>=0.000
     312 -> 313        0.70706

 The electronic state is 1-A.
 Alpha  occ. eigenvalues --  -46.87930 -46.87444 -19.26438 -19.26128 -19.19182
 Alpha  occ. eigenvalues --  -19.18939 -19.18912 -19.18544 -19.18278 -19.17797
 Alpha  occ. eigenvalues --  -14.42595 -14.42274 -14.41579 -14.41149 -14.39534
 Alpha  occ. eigenvalues --  -14.39144 -14.38715 -14.38375 -10.39238 -10.38860
 Alpha  occ. eigenvalues --  -10.35548 -10.35227 -10.34502 -10.33968 -10.31833
 Alpha  occ. eigenvalues --  -10.31572 -10.31554 -10.31074 -10.31066 -10.30807
 Alpha  occ. eigenvalues --  -10.30706 -10.30626 -10.30334 -10.30178 -10.30141
 Alpha  occ. eigenvalues --  -10.30034 -10.29958 -10.29756 -10.29676 -10.29384
 Alpha  occ. eigenvalues --  -10.29241 -10.29195 -10.28954 -10.28844 -10.28521
 Alpha  occ. eigenvalues --  -10.28499 -10.28474 -10.28302 -10.28183 -10.27917
 Alpha  occ. eigenvalues --  -10.27879 -10.27873 -10.27786 -10.27714 -10.27665
 Alpha  occ. eigenvalues --  -10.27612 -10.27545 -10.27542 -10.27464 -10.27391
 Alpha  occ. eigenvalues --  -10.27359 -10.27292 -10.27270 -10.27256 -10.27201
 Alpha  occ. eigenvalues --  -10.26991 -10.26763 -10.26536 -10.26513 -10.26392
 Alpha  occ. eigenvalues --  -10.26312 -10.26303 -10.26148 -10.26004 -10.25932
 Alpha  occ. eigenvalues --  -10.25735 -10.25638 -10.25615 -10.25516 -10.25225
 Alpha  occ. eigenvalues --  -10.24955 -10.24907 -10.24821 -10.24646 -10.24600
 Alpha  occ. eigenvalues --  -10.24475  -3.16673  -3.16194  -1.91554  -1.91141
 Alpha  occ. eigenvalues --   -1.91076  -1.90983  -1.90665  -1.90502  -1.16788
 Alpha  occ. eigenvalues --   -1.16421  -1.08736  -1.08398  -1.07308  -1.06800
 Alpha  occ. eigenvalues --   -1.06797  -1.06723  -1.04727  -1.04270  -1.03891
 Alpha  occ. eigenvalues --   -1.03448  -1.03362  -1.02828  -1.02540  -1.01895
 Alpha  occ. eigenvalues --   -0.92107  -0.91749  -0.89642  -0.89380  -0.89304
 Alpha  occ. eigenvalues --   -0.88907  -0.88405  -0.88037  -0.87989  -0.87828
 Alpha  occ. eigenvalues --   -0.87569  -0.87478  -0.87412  -0.86962  -0.85164
 Alpha  occ. eigenvalues --   -0.84782  -0.84053  -0.83698  -0.83095  -0.82811
 Alpha  occ. eigenvalues --   -0.82787  -0.82445  -0.81729  -0.81383  -0.80738
 Alpha  occ. eigenvalues --   -0.80236  -0.78933  -0.78453  -0.77371  -0.77097
 Alpha  occ. eigenvalues --   -0.76945  -0.76688  -0.76077  -0.75604  -0.75017
 Alpha  occ. eigenvalues --   -0.74610  -0.72904  -0.72487  -0.71807  -0.71355
 Alpha  occ. eigenvalues --   -0.70028  -0.69591  -0.69042  -0.68615  -0.67775
 Alpha  occ. eigenvalues --   -0.67414  -0.67399  -0.67021  -0.65463  -0.65048
 Alpha  occ. eigenvalues --   -0.64991  -0.64768  -0.64560  -0.64443  -0.64393
 Alpha  occ. eigenvalues --   -0.64015  -0.62438  -0.62068  -0.60571  -0.60165
 Alpha  occ. eigenvalues --   -0.59973  -0.59563  -0.59120  -0.58781  -0.58636
 Alpha  occ. eigenvalues --   -0.58213  -0.57720  -0.57434  -0.57309  -0.57039
 Alpha  occ. eigenvalues --   -0.56443  -0.56137  -0.56004  -0.55682  -0.55654
 Alpha  occ. eigenvalues --   -0.55462  -0.55261  -0.55052  -0.54656  -0.54294
 Alpha  occ. eigenvalues --   -0.54086  -0.53682  -0.53430  -0.53383  -0.53063
 Alpha  occ. eigenvalues --   -0.53038  -0.52940  -0.52913  -0.52701  -0.52561
 Alpha  occ. eigenvalues --   -0.52501  -0.52242  -0.52023  -0.51796  -0.51652
 Alpha  occ. eigenvalues --   -0.51458  -0.51330  -0.50988  -0.50722  -0.50346
 Alpha  occ. eigenvalues --   -0.50164  -0.50059  -0.49783  -0.49687  -0.49669
 Alpha  occ. eigenvalues --   -0.49355  -0.49288  -0.49256  -0.48984  -0.48849
 Alpha  occ. eigenvalues --   -0.48734  -0.48574  -0.48566  -0.48335  -0.48193
 Alpha  occ. eigenvalues --   -0.48153  -0.47843  -0.47432  -0.47402  -0.46946
 Alpha  occ. eigenvalues --   -0.46939  -0.46739  -0.46510  -0.46490  -0.46343
 Alpha  occ. eigenvalues --   -0.46286  -0.46083  -0.45954  -0.45878  -0.45596
 Alpha  occ. eigenvalues --   -0.45318  -0.45014  -0.44711  -0.44661  -0.44298
 Alpha  occ. eigenvalues --   -0.44277  -0.44271  -0.44255  -0.44152  -0.43902
 Alpha  occ. eigenvalues --   -0.43894  -0.43743  -0.43632  -0.43539  -0.43344
 Alpha  occ. eigenvalues --   -0.43171  -0.43159  -0.42838  -0.42784  -0.42721
 Alpha  occ. eigenvalues --   -0.42680  -0.42378  -0.42154  -0.41839  -0.41777
 Alpha  occ. eigenvalues --   -0.41712  -0.41438  -0.41281  -0.41256  -0.41041
 Alpha  occ. eigenvalues --   -0.40961  -0.40762  -0.40697  -0.40550  -0.40501
 Alpha  occ. eigenvalues --   -0.40464  -0.40297  -0.40041  -0.39565  -0.39266
 Alpha  occ. eigenvalues --   -0.38603  -0.38165  -0.37966  -0.37466  -0.37449
 Alpha  occ. eigenvalues --   -0.37437  -0.37072  -0.36986  -0.36858  -0.36562
 Alpha  occ. eigenvalues --   -0.36335  -0.36016  -0.34419  -0.34036  -0.33927
 Alpha  occ. eigenvalues --   -0.33640  -0.33320  -0.32963  -0.31442  -0.31168
 Alpha  occ. eigenvalues --   -0.31101  -0.30753  -0.30139  -0.29697  -0.29575
 Alpha  occ. eigenvalues --   -0.29443  -0.29132  -0.28982  -0.24214  -0.23814
 Alpha  occ. eigenvalues --   -0.21261  -0.20904
 Alpha virt. eigenvalues --   -0.08904  -0.08580  -0.01878  -0.01476  -0.00186
 Alpha virt. eigenvalues --    0.00169   0.02084   0.02433   0.02801   0.03482
 Alpha virt. eigenvalues --    0.04542   0.04912   0.04970   0.05396   0.05910

 Mulliken charges:
               1
     1  Mg   0.838597
     2  C   -0.003411
     3  C   -0.095442
     4  C   -0.045064
     5  C   -0.063665
     6  N   -0.256683
     7  C   -0.052903
     8  C   -0.013827
     9  C   -0.086803
    10  C    0.045901
    11  C    0.104772
    12  C    0.053644
    13  C   -0.071402
    14  H    0.034388
    15  N   -0.433185
    16  C    0.168216
    17  C   -0.178048
    18  C   -0.003768
    19  C    0.149017
    20  C    0.110395
    21  C    0.013152
    22  O   -0.248208
    23  C    0.062670
    24  N   -0.341046
    25  C    0.041102
    26  C   -0.028434
    27  C   -0.024022
    28  C    0.074840
    29  C    0.076018
    30  C    0.035052
    31  C   -0.005558
    32  N   -0.310601
    33  C    0.080585
    34  C   -0.169286
    35  C    0.008712
    36  C    0.083150
    37  C    0.127197
    38  C    0.046471
    39  O   -0.187453
    40  C   -0.005572
    41  C    0.213359
    42  O   -0.257981
    43  O   -0.304625
    44  C    0.157406
    45  H   -0.017808
    46  H   -0.016128
    47  H   -0.041193
    48  H    0.001407
    49  H   -0.004911
    50  H    0.025803
    51  H    0.016838
    52  H    0.016687
    53  H    0.009270
    54  H    0.043556
    55  H    0.019161
    56  H    0.017191
    57  H    0.005396
    58  H    0.027342
    59  H    0.037611
    60  H    0.037167
    61  H    0.036823
    62  H    0.029510
    63  H    0.017275
    64  H    0.009756
    65  H    0.023705
    66  H    0.012569
    67  H    0.004877
    68  H    0.006648
    69  H    0.004699
    70  H    0.010061
    71  H    0.016933
    72  H    0.029672
    73  H    0.048287
    74  H    0.009170
    75  H    0.046289
    76  H    0.035406
    77  H    0.044001
    78  H    0.045582
    79  H    0.053780
    80  Mg   0.838112
    81  C   -0.015971
    82  C   -0.088142
    83  C   -0.045339
    84  C   -0.064941
    85  N   -0.254681
    86  C   -0.047921
    87  C   -0.015166
    88  C   -0.091247
    89  C    0.046490
    90  C    0.113576
    91  C    0.062654
    92  C   -0.077201
    93  H    0.033982
    94  N   -0.423428
    95  C    0.162936
    96  C   -0.175615
    97  C   -0.007836
    98  C    0.151731
    99  C    0.100202
   100  C    0.015481
   101  O   -0.252928
   102  C    0.061554
   103  N   -0.349935
   104  C    0.037196
   105  C   -0.019813
   106  C   -0.034704
   107  C    0.089217
   108  C    0.073486
   109  C    0.034805
   110  C   -0.007556
   111  N   -0.324472
   112  C    0.079253
   113  C   -0.162547
   114  C    0.003504
   115  C    0.096308
   116  C    0.131022
   117  C    0.043628
   118  O   -0.187265
   119  C    0.000151
   120  C    0.210788
   121  O   -0.251769
   122  O   -0.304927
   123  C    0.152315
   124  H   -0.021413
   125  H   -0.015545
   126  H   -0.040865
   127  H    0.000756
   128  H   -0.006368
   129  H    0.031311
   130  H    0.013921
   131  H    0.013050
   132  H    0.013288
   133  H    0.037501
   134  H    0.020609
   135  H    0.018617
   136  H    0.007513
   137  H    0.023486
   138  H    0.039115
   139  H    0.036844
   140  H    0.036156
   141  H    0.033457
   142  H    0.014034
   143  H    0.011689
   144  H    0.024763
   145  H    0.013211
   146  H    0.004490
   147  H    0.005710
   148  H    0.003378
   149  H    0.010794
   150  H    0.017551
   151  H    0.030385
   152  H    0.045668
   153  H    0.007685
   154  H    0.049006
   155  H    0.039451
   156  H    0.043739
   157  H    0.048834
   158  H    0.053104
 Sum of Mulliken charges =  -0.00000

 Dipole moment (field-independent basis, Debye):
    X=             -5.3695    Y=             -1.0114    Z=             -6.7396  Tot=              8.6762
 Quadrupole moment (field-independent basis, Debye-Ang):
   XX=           -527.4270   YY=           -543.3999   ZZ=           -452.7142
   XY=            -13.8812   XZ=              1.2862   YZ=            -50.7099

 Normal termination of Gaussian 16 at Thu Sep  9 13:09:53 2021.
