 Gaussian 16, Revision A.03,
 Gaussian 16:  ES64L-G16RevA.03 25-Dec-2016

 -----------------------------------
 #p cam-b3lyp/Def2SVP td=(nstates=5)
 -----------------------------------

 --------------------------------
 TDDFT excited states in gaussian
 --------------------------------
 Symbolic Z-matrix:
 Charge =  0 Multiplicity = 1

                         Standard orientation:
 ---------------------------------------------------------------------
 Center     Atomic      Atomic             Coordinates (Angstroms)
 Number     Number       Type             X           Y           Z
 ---------------------------------------------------------------------
      1         12           0        7.804002   -0.927462    0.181117
      2          6           0        8.359704    2.292245   -1.280697
      3          6           0        8.876055    0.394988    3.138293
      4          6           0        7.754979   -3.860605    1.385645
      5          6           0        7.873407   -2.241199   -3.046102
      6          7           0        8.501002    1.099991    0.732726
      7          6           0        8.609878    2.260190    0.092996
      8          6           0        8.941881    3.456171    1.034684
      9          6           0        9.622880    2.652637    2.231585
     10          6           0        8.933987    1.312001    2.047071
     11          6           0       11.126098    2.460337    2.058791
     12          6           0        7.656280    4.212625    1.510856
     13          6           0        7.904053    5.576813    2.161207
     14          1           0        6.941286    6.644631    1.937171
     15          7           0        7.777833   -1.541114    2.058774
     16          6           0        8.241521   -0.866057    3.137930
     17          6           0        7.995137   -1.742127    4.303467
     18          6           0        7.524212   -3.058984    3.791401
     19          6           0        7.694041   -2.879198    2.372171
     20          6           0        8.160834   -1.290361    5.721988
     21          6           0        7.013608   -4.288615    4.473620
     22          8           0        6.877989   -5.401144    3.858430
     23          6           0        6.756748   -4.178186    5.920987
     24          7           0        8.031241   -2.817931   -0.674526
     25          6           0        7.907550   -3.927884    0.061469
     26          6           0        7.827400   -5.150592   -0.803691
     27          6           0        7.677358   -4.622169   -2.303027
     28          6           0        7.785661   -3.101762   -2.029343
     29          6           0        9.022064   -6.110517   -0.718052
     30          6           0        6.463019   -5.141083   -3.113291
     31          6           0        5.181471   -4.598432   -2.521461
     32          7           0        7.889888   -0.126988   -1.834550
     33          6           0        7.931640   -0.857635   -3.030830
     34          6           0        8.094128    0.115937   -4.126195
     35          6           0        8.152634    1.352057   -3.485547
     36          6           0        8.060564    1.160500   -2.077314
     37          6           0        8.226443   -0.198220   -5.507583
     38          6           0        8.296261    2.788117   -3.661495
     39          8           0        8.321003    3.544489   -4.633494
     40          6           0        8.558491    3.444039   -2.234320
     41          6           0        7.642850    4.630634   -2.104298
     42          8           0        6.405767    4.479951   -2.038831
     43          8           0        8.370375    5.726677   -1.839837
     44          6           0        7.519796    6.934869   -1.669721
     45          1           0        9.413703    0.634213    4.057884
     46          1           0        7.629909   -4.882091    1.750833
     47          1           0        7.818133   -2.570534   -4.085302
     48          1           0        9.647223    4.177566    0.621762
     49          1           0        9.370488    3.077883    3.202763
     50          1           0       11.460392    2.795628    1.077084
     51          1           0       11.297786    1.389980    2.174344
     52          1           0       11.673848    2.940938    2.869821
     53          1           0        7.218684    3.681011    2.355815
     54          1           0        6.949809    4.328411    0.688166
     55          1           0        8.917846    5.930565    1.971494
     56          1           0        7.858488    5.452685    3.243203
     57          1           0        8.675483   -0.332047    5.779579
     58          1           0        8.840999   -1.993268    6.202619
     59          1           0        7.212757   -1.270154    6.259644
     60          1           0        7.678390   -3.894239    6.429416
     61          1           0        6.312279   -5.126581    6.220727
     62          1           0        6.049136   -3.366639    6.093106
     63          1           0        6.956943   -5.753680   -0.548714
     64          1           0        8.538836   -4.884912   -2.917435
     65          1           0        8.747187   -7.127807   -0.438287
     66          1           0        9.740854   -5.692030   -0.014134
     67          1           0        9.621159   -6.176794   -1.625857
     68          1           0        6.406844   -6.227710   -3.058209
     69          1           0        6.498460   -4.863805   -4.166909
     70          1           0        4.974088   -5.294942   -1.709859
     71          1           0        4.382785   -4.614956   -3.263780
     72          1           0        5.333757   -3.615114   -2.076060
     73          1           0        7.598225    0.513047   -6.043691
     74          1           0        7.924216   -1.225336   -5.710793
     75          1           0        9.295795   -0.041919   -5.648688
     76          1           0        9.608794    3.732840   -2.210273
     77          1           0        7.878728    7.682329   -2.377327
     78          1           0        7.548159    7.187024   -0.609524
     79          1           0        6.479071    6.839472   -1.981379
     80         12           0       -7.972942    0.890097    0.379504
     81          6           0       -8.172792   -2.521858   -0.714884
     82          6           0       -7.038343    1.698573   -2.799733
     83          6           0       -7.352424    3.824646    1.414307
     84          6           0       -7.799845   -0.313205    3.645661
     85          7           0       -7.679567   -0.340667   -1.434726
     86          6           0       -7.844695   -1.617391   -1.746251
     87          6           0       -7.725823   -1.930160   -3.262038
     88          6           0       -6.822140   -0.675705   -3.696273
     89          6           0       -7.225689    0.307573   -2.599463
     90          6           0       -5.330195   -0.938661   -3.576693
     91          6           0       -9.117460   -1.913806   -3.986668
     92          6           0       -9.115932   -2.511004   -5.395601
     93          1           0      -10.295485   -3.248052   -5.840454
     94          7           0       -7.773902    2.590530   -0.624222
     95          6           0       -7.408855    2.735376   -1.915370
     96          6           0       -7.390847    4.184483   -2.168232
     97          6           0       -7.614762    4.888859   -0.876559
     98          6           0       -7.567280    3.771306    0.044804
     99          6           0       -7.255195    4.768723   -3.544341
    100          6           0       -7.822777    6.331320   -0.526921
    101          8           0       -7.760034    6.746435    0.684099
    102          6           0       -8.009320    7.258429   -1.652598
    103          7           0       -7.413798    1.641906    2.235430
    104          6           0       -7.259275    2.963651    2.427889
    105          6           0       -7.127705    3.289333    3.896558
    106          6           0       -7.469689    1.931940    4.669945
    107          6           0       -7.661103    0.992240    3.459276
    108          6           0       -5.758151    3.798991    4.344850
    109          6           0       -8.592978    1.995920    5.740832
    110          6           0       -9.926388    2.250522    5.075556
    111          7           0       -8.166691   -1.035528    1.339962
    112          6           0       -8.032752   -1.319328    2.716765
    113          6           0       -8.134962   -2.784995    2.871121
    114          6           0       -8.299540   -3.257841    1.560471
    115          6           0       -8.279649   -2.165794    0.651329
    116          6           0       -8.025279   -3.502153    4.095774
    117          6           0       -8.474923   -4.433406    0.738287
    118          8           0       -8.652163   -5.630431    0.960648
    119          6           0       -8.273956   -4.020427   -0.783369
    120          6           0       -9.406343   -4.610604   -1.578288
    121          8           0      -10.575217   -4.228578   -1.392801
    122          8           0       -8.901341   -5.365420   -2.571058
    123          6           0       -9.985891   -5.963581   -3.394329
    124          1           0       -6.520381    2.027879   -3.700929
    125          1           0       -7.243537    4.826619    1.835821
    126          1           0       -7.853777   -0.758225    4.641516
    127          1           0       -7.213949   -2.855901   -3.496070
    128          1           0       -7.113622   -0.298167   -4.672931
    129          1           0       -5.124989   -1.888465   -3.105630
    130          1           0       -4.935380   -0.127075   -2.979620
    131          1           0       -4.852393   -0.851932   -4.556757
    132          1           0       -9.386056   -0.876090   -4.222738
    133          1           0       -9.863954   -2.399799   -3.389010
    134          1           0       -8.204300   -3.086055   -5.598568
    135          1           0       -9.083431   -1.692886   -6.119239
    136          1           0       -6.941096    4.011763   -4.273556
    137          1           0       -6.419709    5.476315   -3.510381
    138          1           0       -8.153922    5.298322   -3.867566
    139          1           0       -7.142700    7.210131   -2.307646
    140          1           0       -8.231936    8.226635   -1.199951
    141          1           0       -8.869256    6.923173   -2.243132
    142          1           0       -7.841018    4.049934    4.189427
    143          1           0       -6.601978    1.551678    5.228791
    144          1           0       -5.800905    4.787561    4.839795
    145          1           0       -5.107510    3.833978    3.481151
    146          1           0       -5.215557    3.135518    5.016111
    147          1           0       -8.420505    2.833638    6.420999
    148          1           0       -8.663921    1.098652    6.346521
    149          1           0       -9.935206    3.337181    4.948330
    150          1           0      -10.742735    1.921388    5.715305
    151          1           0       -9.959731    1.801361    4.076159
    152          1           0       -8.807311   -4.249730    4.089900
    153          1           0       -8.114244   -2.839350    4.953999
    154          1           0       -7.015476   -3.908628    3.993990
    155          1           0       -7.305038   -4.406452   -1.102366
    156          1           0       -9.824961   -7.046074   -3.396989
    157          1           0       -9.940455   -5.445173   -4.370512
    158          1           0      -10.997939   -5.901169   -3.011820
 ---------------------------------------------------------------------

 SCF Done:  E(RCAM-B3LYP) =  -4069.81186492     A.U. after   19 cycles

 Excitation energies and oscillator strengths:

 Excited State   1:      Singlet-A      1.6717 eV  741.68 nm  f=0.1218  <S**2>=0.000
     310 -> 316        0.14206
     311 -> 313        0.38913
     312 -> 314        0.56524
 This state for optimization and/or second-order correction.
 Total Energy, E(TD-HF/TD-DFT) =  -4069.75043251
 Copying the excited state density for this state as the 1-particle RhoCI density.

 Excited State   2:      Singlet-A      1.6837 eV  736.40 nm  f=0.6307  <S**2>=0.000
     309 -> 315        0.14539
     311 -> 313        0.56459
     312 -> 314       -0.38878

 Excited State   3:      Singlet-A      2.1861 eV  567.15 nm  f=0.0782  <S**2>=0.000
     309 -> 313        0.10088
     310 -> 314        0.63462
     312 -> 316       -0.26951

 Excited State   4:      Singlet-A      2.1929 eV  565.38 nm  f=0.1181  <S**2>=0.000
     309 -> 313        0.63285
     310 -> 314       -0.10010
     311 -> 315       -0.27490

 Excited State   5:      Singlet-A      2.7642 eV  448.54 nm  f=0.0000  <S**2>=0.000
     312 -> 313        0.70710

 The electronic state is 1-A.
 Alpha  occ. eigenvalues --  -46.87837 -46.87588 -19.26337 -19.26291 -19.19101
 Alpha  occ. eigenvalues --  -19.19076 -19.18840 -19.18642 -19.18220 -19.17984
 Alpha  occ. eigenvalues --  -14.42490 -14.42422 -14.41489 -14.41290 -14.39442
 Alpha  occ. eigenvalues --  -14.39278 -14.38630 -14.38529 -10.39134 -10.39030
 Alpha  occ. eigenvalues --  -10.35473 -10.35319 -10.34440 -10.34162 -10.31731
 Alpha  occ. eigenvalues --  -10.31703 -10.31448 -10.31232 -10.30946 -10.30944
 Alpha  occ. eigenvalues --  -10.30614 -10.30549 -10.30330 -10.30288 -10.30243
 Alpha  occ. eigenvalues --  -10.30073 -10.29962 -10.29832 -10.29672 -10.29362
 Alpha  occ. eigenvalues --  -10.29330 -10.29292 -10.28785 -10.28637 -10.28583
 Alpha  occ. eigenvalues --  -10.28570 -10.28405 -10.28330 -10.28152 -10.28048
 Alpha  occ. eigenvalues --  -10.27928 -10.27836 -10.27766 -10.27623 -10.27588
 Alpha  occ. eigenvalues --  -10.27539 -10.27511 -10.27484 -10.27471 -10.27444
 Alpha  occ. eigenvalues --  -10.27411 -10.27393 -10.27368 -10.27328 -10.27206
 Alpha  occ. eigenvalues --  -10.26983 -10.26741 -10.26618 -10.26426 -10.26336
 Alpha  occ. eigenvalues --  -10.26267 -10.26228 -10.26104 -10.26061 -10.25910
 Alpha  occ. eigenvalues --  -10.25903 -10.25868 -10.25796 -10.25463 -10.25355
 Alpha  occ. eigenvalues --  -10.24877 -10.24826 -10.24801 -10.24737 -10.24697
 Alpha  occ. eigenvalues --  -10.24622  -3.16580  -3.16338  -1.91462  -1.91220
 Alpha  occ. eigenvalues --   -1.91048  -1.90890  -1.90809  -1.90646  -1.16686
 Alpha  occ. eigenvalues --   -1.16585  -1.08679  -1.08593  -1.07240  -1.06895
 Alpha  occ. eigenvalues --   -1.06886  -1.06698  -1.04621  -1.04419  -1.03800
 Alpha  occ. eigenvalues --   -1.03591  -1.03275  -1.02970  -1.02452  -1.02041
 Alpha  occ. eigenvalues --   -0.92015  -0.91916  -0.89561  -0.89435  -0.89225
 Alpha  occ. eigenvalues --   -0.89067  -0.88326  -0.88165  -0.87918  -0.87727
 Alpha  occ. eigenvalues --   -0.87712  -0.87610  -0.87307  -0.87041  -0.85019
 Alpha  occ. eigenvalues --   -0.84922  -0.83977  -0.83825  -0.82996  -0.82860
 Alpha  occ. eigenvalues --   -0.82685  -0.82576  -0.81631  -0.81532  -0.80637
 Alpha  occ. eigenvalues --   -0.80374  -0.78835  -0.78560  -0.77258  -0.77072
 Alpha  occ. eigenvalues --   -0.76974  -0.76831  -0.75964  -0.75761  -0.74936
 Alpha  occ. eigenvalues --   -0.74745  -0.72816  -0.72629  -0.71711  -0.71510
 Alpha  occ. eigenvalues --   -0.69949  -0.69709  -0.68910  -0.68751  -0.67681
 Alpha  occ. eigenvalues --   -0.67532  -0.67254  -0.67125  -0.65326  -0.65196
 Alpha  occ. eigenvalues --   -0.64896  -0.64702  -0.64661  -0.64585  -0.64310
 Alpha  occ. eigenvalues --   -0.64146  -0.62345  -0.62216  -0.60477  -0.60268
 Alpha  occ. eigenvalues --   -0.59843  -0.59716  -0.59028  -0.58925  -0.58545
 Alpha  occ. eigenvalues --   -0.58358  -0.57632  -0.57489  -0.57349  -0.57173
 Alpha  occ. eigenvalues --   -0.56351  -0.56133  -0.56024  -0.55820  -0.55556
 Alpha  occ. eigenvalues --   -0.55383  -0.55380  -0.55192  -0.54569  -0.54433
 Alpha  occ. eigenvalues --   -0.53932  -0.53831  -0.53337  -0.53258  -0.53160
 Alpha  occ. eigenvalues --   -0.53069  -0.52958  -0.52833  -0.52787  -0.52586
 Alpha  occ. eigenvalues --   -0.52482  -0.52356  -0.51967  -0.51824  -0.51653
 Alpha  occ. eigenvalues --   -0.51581  -0.51240  -0.51136  -0.50600  -0.50395
 Alpha  occ. eigenvalues --   -0.50069  -0.49951  -0.49903  -0.49805  -0.49550
 Alpha  occ. eigenvalues --   -0.49411  -0.49256  -0.49135  -0.49126  -0.49028
 Alpha  occ. eigenvalues --   -0.48636  -0.48499  -0.48486  -0.48480  -0.48320
 Alpha  occ. eigenvalues --   -0.48265  -0.47732  -0.47521  -0.47333  -0.47046
 Alpha  occ. eigenvalues --   -0.46838  -0.46642  -0.46592  -0.46476  -0.46400
 Alpha  occ. eigenvalues --   -0.46206  -0.46202  -0.46025  -0.45870  -0.45759
 Alpha  occ. eigenvalues --   -0.45238  -0.45150  -0.44624  -0.44541  -0.44448
 Alpha  occ. eigenvalues --   -0.44400  -0.44185  -0.44125  -0.44059  -0.44053
 Alpha  occ. eigenvalues --   -0.44015  -0.43865  -0.43541  -0.43492  -0.43423
 Alpha  occ. eigenvalues --   -0.43314  -0.43068  -0.42867  -0.42836  -0.42745
 Alpha  occ. eigenvalues --   -0.42699  -0.42495  -0.42052  -0.41904  -0.41746
 Alpha  occ. eigenvalues --   -0.41601  -0.41570  -0.41387  -0.41179  -0.40915
 Alpha  occ. eigenvalues --   -0.40907  -0.40851  -0.40649  -0.40626  -0.40611
 Alpha  occ. eigenvalues --   -0.40434  -0.40268  -0.40151  -0.39483  -0.39378
 Alpha  occ. eigenvalues --   -0.38506  -0.38293  -0.37785  -0.37581  -0.37359
 Alpha  occ. eigenvalues --   -0.37302  -0.37204  -0.37123  -0.36762  -0.36713
 Alpha  occ. eigenvalues --   -0.36236  -0.36155  -0.34327  -0.34183  -0.33823
 Alpha  occ. eigenvalues --   -0.33800  -0.33228  -0.33105  -0.31370  -0.31202
 Alpha  occ. eigenvalues --   -0.31075  -0.30901  -0.30080  -0.29890  -0.29488
 Alpha  occ. eigenvalues --   -0.29366  -0.29253  -0.29141  -0.24121  -0.23964
 Alpha  occ. eigenvalues --   -0.21168  -0.21045
 Alpha virt. eigenvalues --   -0.08814  -0.08719  -0.01788  -0.01613  -0.00093
 Alpha virt. eigenvalues --    0.00047   0.02155   0.02274   0.03073   0.03290
 Alpha virt. eigenvalues --    0.04680   0.04806   0.05045   0.05227   0.06142

 Mulliken charges:
               1
     1  Mg   0.838567
     2  C   -0.003010
     3  C   -0.094066
     4  C   -0.045828
     5  C   -0.064021
     6  N   -0.256774
     7  C   -0.052485
     8  C   -0.014008
     9  C   -0.087005
    10  C    0.046332
    11  C    0.104785
    12  C    0.053447
    13  C   -0.071883
    14  H    0.036215
    15  N   -0.433175
    16  C    0.168494
    17  C   -0.177076
    18  C   -0.003885
    19  C    0.148771
    20  C    0.110155
    21  C    0.012396
    22  O   -0.249362
    23  C    0.062425
    24  N   -0.341121
    25  C    0.041264
    26  C   -0.028238
    27  C   -0.023947
    28  C    0.074790
    29  C    0.076110
    30  C    0.035141
    31  C   -0.004489
    32  N   -0.310391
    33  C    0.080263
    34  C   -0.170004
    35  C    0.008255
    36  C    0.082851
    37  C    0.127393
    38  C    0.045916
    39  O   -0.188743
    40  C   -0.005275
    41  C    0.212860
    42  O   -0.257356
    43  O   -0.304721
    44  C    0.157750
    45  H   -0.017467
    46  H   -0.016635
    47  H   -0.041655
    48  H    0.000943
    49  H   -0.003939
    50  H    0.025478
    51  H    0.016484
    52  H    0.016774
    53  H    0.011233
    54  H    0.043986
    55  H    0.017904
    56  H    0.018064
    57  H    0.005933
    58  H    0.026993
    59  H    0.039664
    60  H    0.037383
    61  H    0.035958
    62  H    0.031492
    63  H    0.016722
    64  H    0.009477
    65  H    0.023428
    66  H    0.012600
    67  H    0.004775
    68  H    0.006562
    69  H    0.004490
    70  H    0.009130
    71  H    0.017698
    72  H    0.028858
    73  H    0.047143
    74  H    0.008957
    75  H    0.046074
    76  H    0.035212
    77  H    0.042908
    78  H    0.046583
    79  H    0.053471
    80  Mg   0.837906
    81  C   -0.016820
    82  C   -0.087523
    83  C   -0.045427
    84  C   -0.064995
    85  N   -0.254573
    86  C   -0.049786
    87  C   -0.015094
    88  C   -0.090517
    89  C    0.045711
    90  C    0.114212
    91  C    0.062511
    92  C   -0.077836
    93  H    0.034629
    94  N   -0.423583
    95  C    0.162901
    96  C   -0.174148
    97  C   -0.007762
    98  C    0.152251
    99  C    0.099144
   100  C    0.015649
   101  O   -0.253363
   102  C    0.061185
   103  N   -0.350022
   104  C    0.037617
   105  C   -0.019849
   106  C   -0.034689
   107  C    0.088886
   108  C    0.073683
   109  C    0.034791
   110  C   -0.007620
   111  N   -0.324060
   112  C    0.078360
   113  C   -0.163292
   114  C    0.002225
   115  C    0.096126
   116  C    0.131501
   117  C    0.042301
   118  O   -0.188101
   119  C    0.000954
   120  C    0.211219
   121  O   -0.251113
   122  O   -0.305581
   123  C    0.152074
   124  H   -0.018978
   125  H   -0.015683
   126  H   -0.040782
   127  H   -0.000676
   128  H   -0.004245
   129  H    0.022373
   130  H    0.015029
   131  H    0.016761
   132  H    0.013899
   133  H    0.037527
   134  H    0.020833
   135  H    0.019700
   136  H    0.009118
   137  H    0.026834
   138  H    0.039688
   139  H    0.038670
   140  H    0.036224
   141  H    0.033803
   142  H    0.014241
   143  H    0.012142
   144  H    0.024834
   145  H    0.012105
   146  H    0.005323
   147  H    0.005953
   148  H    0.003455
   149  H    0.010867
   150  H    0.017739
   151  H    0.030278
   152  H    0.045821
   153  H    0.008245
   154  H    0.046913
   155  H    0.035109
   156  H    0.043781
   157  H    0.049539
   158  H    0.053477
 Sum of Mulliken charges =  -0.00000

 Dipole moment (field-independent basis, Debye):
    X=              4.3401    Y=              2.1674    Z=              0.9252  Tot=              4.9386
 Quadrupole moment (field-independent basis, Debye-Ang):
   XX=           -520.4371   YY=           -537.6344   ZZ=           -460.6373
   XY=            -20.7495   XZ=             62.2060   YZ=             34.1485

 Normal termination of Gaussian 16 at Sat Sep  4 12:27:44 2021.
