 Gaussian 16, Revision A.03,
 Gaussian 16:  ES64L-G16RevA.03 25-Dec-2016

 -----------------------------------
 #p cam-b3lyp/Def2SVP td=(nstates=5)
 -----------------------------------

 --------------------------------
 TDDFT excited states in gaussian
 --------------------------------
 Symbolic Z-matrix:
 Charge =  0 Multiplicity = 1

                         Standard orientation:
 ---------------------------------------------------------------------
 Center     Atomic      Atomic             Coordinates (Angstroms)
 Number     Number       Type             X           Y           Z
 ---------------------------------------------------------------------
      1         12           0       15.774440   -0.799224    0.176432
      2          6           0       16.131393    2.489785   -1.190029
      3          6           0       16.730699    0.506425    3.180415
      4          6           0       15.906632   -3.762108    1.299138
      5          6           0       15.959025   -2.014150   -3.084786
      6          7           0       16.332156    1.253001    0.791225
      7          6           0       16.370641    2.435401    0.184907
      8          6           0       16.615056    3.623463    1.162733
      9          6           0       17.336306    2.832620    2.344411
     10          6           0       16.738375    1.455657    2.115553
     11          6           0       18.850397    2.743681    2.182792
     12          6           0       15.278413    4.280768    1.645502
     13          6           0       15.430415    5.639332    2.335831
     14          1           0       14.401873    6.647999    2.130795
     15          7           0       15.771452   -1.465958    2.036085
     16          6           0       16.180123   -0.792794    3.138411
     17          6           0       15.981053   -1.715569    4.276629
     18          6           0       15.602031   -3.045368    3.723393
     19          6           0       15.772609   -2.814960    2.311588
     20          6           0       16.103922   -1.294125    5.708773
     21          6           0       15.166857   -4.324413    4.365889
     22          8           0       15.109966   -5.425634    3.718858
     23          6           0       14.890182   -4.271808    5.812860
     24          7           0       16.132733   -2.645985   -0.728408
     25          6           0       16.075302   -3.781944   -0.024645
     26          6           0       16.083244   -4.982402   -0.923966
     27          6           0       15.912551   -4.422834   -2.409731
     28          6           0       15.918581   -2.906921   -2.093123
     29          6           0       17.337369   -5.864429   -0.851766
     30          6           0       14.742204   -4.996770   -3.247171
     31          6           0       13.422552   -4.555724   -2.654636
     32          7           0       15.826035    0.061644   -1.815373
     33          6           0       15.926402   -0.630715   -3.030791
     34          6           0       16.034739    0.381867   -4.097097
     35          6           0       16.006363    1.600621   -3.422058
     36          6           0       15.914245    1.363851   -2.020720
     37          6           0       16.199882    0.116068   -5.485086
     38          6           0       16.057247    3.047378   -3.556822
     39          8           0       16.041239    3.830850   -4.507299
     40          6           0       16.262992    3.678511   -2.109353
     41          6           0       15.270481    4.798747   -1.956703
     42          8           0       14.045374    4.565946   -1.908905
     43          8           0       15.922248    5.931999   -1.654245
     44          6           0       14.992877    7.076890   -1.460215
     45          1           0       17.243155    0.754178    4.112053
     46          1           0       15.845401   -4.799461    1.634677
     47          1           0       15.934874   -2.316965   -4.133200
     48          1           0       17.275373    4.400661    0.777547
     49          1           0       17.047800    3.212961    3.324119
     50          1           0       19.170924    3.127592    1.214394
     51          1           0       19.090741    1.683964    2.270696
     52          1           0       19.358114    3.235918    3.012673
     53          1           0       14.868906    3.698149    2.470682
     54          1           0       14.573379    4.373391    0.818657
     55          1           0       16.420552    6.063634    2.166998
     56          1           0       15.383249    5.482048    3.413438
     57          1           0       16.554176   -0.306302    5.798337
     58          1           0       16.824257   -1.964461    6.177258
     59          1           0       15.151712   -1.350936    6.236410
     60          1           0       15.786598   -3.942821    6.338935
     61          1           0       14.506059   -5.255234    6.081509
     62          1           0       14.129418   -3.513295    5.999531
     63          1           0       15.251862   -5.647906   -0.695199
     64          1           0       16.794928   -4.611429   -3.021709
     65          1           0       17.127159   -6.904956   -0.603130
     66          1           0       18.020792   -5.419978   -0.128795
     67          1           0       17.947739   -5.865891   -1.754464
     68          1           0       14.756798   -6.085866   -3.222645
     69          1           0       14.768982   -4.688182   -4.292306
     70          1           0       13.253855   -5.286872   -1.864829
     71          1           0       12.633437   -4.603353   -3.405795
     72          1           0       13.506076   -3.577516   -2.180696
     73          1           0       15.531337    0.799692   -6.008226
     74          1           0       15.967413   -0.922430   -5.719783
     75          1           0       17.257944    0.345670   -5.610163
     76          1           0       17.291871    4.034381   -2.065910
     77          1           0       15.308511    7.865808   -2.143015
     78          1           0       14.995038    7.300373   -0.393230
     79          1           0       13.963506    6.922667   -1.785713
     80         12           0      -15.944800    0.757319    0.336679
     81          6           0      -15.913093   -2.696778   -0.636595
     82          6           0      -15.046472    1.513349   -2.865815
     83          6           0      -15.524985    3.761010    1.268908
     84          6           0      -15.712393   -0.316264    3.644115
     85          7           0      -15.560223   -0.514470   -1.431618
     86          6           0      -15.639090   -1.809477   -1.698228
     87          6           0      -15.490831   -2.166864   -3.201506
     88          6           0      -14.669098   -0.871562   -3.676707
     89          6           0      -15.143050    0.120920   -2.616983
     90          6           0      -13.163830   -1.031111   -3.542446
     91          6           0      -16.876177   -2.267896   -3.931319
     92          6           0      -16.826926   -2.912891   -5.318152
     93          1           0      -17.952728   -3.741365   -5.740843
     94          7           0      -15.852133    2.430814   -0.726054
     95          6           0      -15.489707    2.553906   -2.020182
     96          6           0      -15.565607    3.991242   -2.324273
     97          6           0      -15.843106    4.724328   -1.059243
     98          6           0      -15.727676    3.645449   -0.098612
     99          6           0      -15.460484    4.534391   -3.719754
    100          6           0      -16.147710    6.161312   -0.761797
    101          8           0      -16.119661    6.622027    0.433948
    102          6           0      -16.388144    7.033914   -1.920356
    103          7           0      -15.447456    1.609232    2.166778
    104          6           0      -15.381420    2.944238    2.312740
    105          6           0      -15.280350    3.329367    3.769396
    106          6           0      -15.536864    1.980428    4.589232
    107          6           0      -15.658766    0.988117    3.412003
    108          6           0      -13.950015    3.943755    4.204290
    109          6           0      -16.668300    2.007771    5.653071
    110          6           0      -18.011573    2.150263    4.974329
    111          7           0      -16.017112   -1.141902    1.364193
    112          6           0      -15.873010   -1.367625    2.750687
    113          6           0      -15.879439   -2.830497    2.956610
    114          6           0      -16.004712   -3.359004    1.662977
    115          6           0      -16.051312   -2.300687    0.715725
    116          6           0      -15.730107   -3.495319    4.206343
    117          6           0      -16.097421   -4.571774    0.882423
    118          8           0      -16.196813   -5.769330    1.146494
    119          6           0      -15.914987   -4.200229   -0.652205
    120          6           0      -17.001305   -4.891462   -1.429779
    121          8           0      -18.193868   -4.581115   -1.262232
    122          8           0      -16.441790   -5.645771   -2.393283
    123          6           0      -17.479671   -6.342795   -3.198740
    124          1           0      -14.545932    1.844199   -3.776252
    125          1           0      -15.484811    4.782196    1.654972
    126          1           0      -15.742863   -0.728550    4.654934
    127          1           0      -14.917736   -3.064466   -3.400661
    128          1           0      -14.978965   -0.548685   -4.667214
    129          1           0      -12.899365   -1.948146   -3.037212
    130          1           0      -12.826859   -0.174744   -2.973127
    131          1           0      -12.686931   -0.947583   -4.523219
    132          1           0      -17.211082   -1.259114   -4.205065
    133          1           0      -17.592619   -2.780757   -3.319506
    134          1           0      -15.878215   -3.433304   -5.497248
    135          1           0      -16.844021   -2.120377   -6.070250
    136          1           0      -15.092893    3.774614   -4.420482
    137          1           0      -14.673612    5.296323   -3.707891
    138          1           0      -16.390183    4.991823   -4.064848
    139          1           0      -15.516322    7.019890   -2.570115
    140          1           0      -16.676708    8.000646   -1.503187
    141          1           0      -17.220602    6.622070   -2.501741
    142          1           0      -16.043912    4.051072    4.032475
    143          1           0      -14.649355    1.678158    5.164391
    144          1           0      -14.060704    4.944154    4.663665
    145          1           0      -13.297942    3.991189    3.342264
    146          1           0      -13.368938    3.341568    4.900658
    147          1           0      -16.555407    2.878464    6.303707
    148          1           0      -16.683649    1.129648    6.289984
    149          1           0      -18.091146    3.228820    4.808578
    150          1           0      -18.808299    1.790686    5.622385
    151          1           0      -18.009308    1.664989    3.991399
    152          1           0      -16.461195   -4.292628    4.224173
    153          1           0      -15.867643   -2.810046    5.040164
    154          1           0      -14.695156   -3.837598    4.122736
    155          1           0      -14.920875   -4.532456   -0.953759
    156          1           0      -17.247830   -7.411727   -3.162380
    157          1           0      -17.462642   -5.857185   -4.192535
    158          1           0      -18.495909   -6.333886   -2.822376
 ---------------------------------------------------------------------

 SCF Done:  E(RCAM-B3LYP) =  -4069.81179056     A.U. after   19 cycles

 Excitation energies and oscillator strengths:

 Excited State   1:      Singlet-A      1.6754 eV  740.02 nm  f=0.2784  <S**2>=0.000
     310 -> 316        0.17031
     311 -> 314        0.13199
     312 -> 313        0.67323
     310 <- 316        0.10267
 This state for optimization and/or second-order correction.
 Total Energy, E(TD-HF/TD-DFT) =  -4069.75021973
 Copying the excited state density for this state as the 1-particle RhoCI density.

 Excited State   2:      Singlet-A      1.6800 eV  737.98 nm  f=0.4985  <S**2>=0.000
     309 -> 315        0.17232
     311 -> 314        0.67287
     312 -> 313       -0.13196
     309 <- 315        0.10318

 Excited State   3:      Singlet-A      2.1861 eV  567.14 nm  f=0.0983  <S**2>=0.000
     310 -> 313        0.64227
     312 -> 316       -0.27302

 Excited State   4:      Singlet-A      2.1926 eV  565.47 nm  f=0.1022  <S**2>=0.000
     309 -> 314        0.64050
     311 -> 315       -0.27823

 Excited State   5:      Singlet-A      3.0660 eV  404.38 nm  f=0.0000  <S**2>=0.000
     311 -> 313        0.70711

 The electronic state is 1-A.
 Alpha  occ. eigenvalues --  -46.87796 -46.87660 -19.26348 -19.26287 -19.19160
 Alpha  occ. eigenvalues --  -19.19023 -19.18812 -19.18713 -19.18171 -19.18051
 Alpha  occ. eigenvalues --  -14.42497 -14.42450 -14.41449 -14.41360 -14.39402
 Alpha  occ. eigenvalues --  -14.39352 -14.38600 -14.38587 -10.39090 -10.39082
 Alpha  occ. eigenvalues --  -10.35445 -10.35390 -10.34391 -10.34229 -10.31754
 Alpha  occ. eigenvalues --  -10.31683 -10.31405 -10.31308 -10.31021 -10.30908
 Alpha  occ. eigenvalues --  -10.30570 -10.30508 -10.30398 -10.30361 -10.30206
 Alpha  occ. eigenvalues --  -10.30141 -10.29921 -10.29896 -10.29631 -10.29436
 Alpha  occ. eigenvalues --  -10.29401 -10.29254 -10.28748 -10.28715 -10.28649
 Alpha  occ. eigenvalues --  -10.28538 -10.28404 -10.28365 -10.28136 -10.28116
 Alpha  occ. eigenvalues --  -10.28001 -10.27793 -10.27727 -10.27668 -10.27584
 Alpha  occ. eigenvalues --  -10.27521 -10.27501 -10.27483 -10.27478 -10.27466
 Alpha  occ. eigenvalues --  -10.27461 -10.27449 -10.27404 -10.27379 -10.27160
 Alpha  occ. eigenvalues --  -10.27050 -10.26704 -10.26689 -10.26412 -10.26405
 Alpha  occ. eigenvalues --  -10.26233 -10.26185 -10.26143 -10.26019 -10.26018
 Alpha  occ. eigenvalues --  -10.25935 -10.25854 -10.25847 -10.25435 -10.25401
 Alpha  occ. eigenvalues --  -10.24873 -10.24833 -10.24787 -10.24736 -10.24690
 Alpha  occ. eigenvalues --  -10.24688  -3.16539  -3.16410  -1.91421  -1.91292
 Alpha  occ. eigenvalues --   -1.91007  -1.90881  -1.90849  -1.90718  -1.16642
 Alpha  occ. eigenvalues --   -1.16636  -1.08658  -1.08629  -1.07213  -1.06965
 Alpha  occ. eigenvalues --   -1.06945  -1.06645  -1.04581  -1.04494  -1.03760
 Alpha  occ. eigenvalues --   -1.03663  -1.03234  -1.03039  -1.02411  -1.02111
 Alpha  occ. eigenvalues --   -0.91987  -0.91973  -0.89520  -0.89496  -0.89187
 Alpha  occ. eigenvalues --   -0.89148  -0.88287  -0.88222  -0.87871  -0.87795
 Alpha  occ. eigenvalues --   -0.87683  -0.87673  -0.87272  -0.87118  -0.84997
 Alpha  occ. eigenvalues --   -0.84982  -0.83937  -0.83879  -0.82965  -0.82930
 Alpha  occ. eigenvalues --   -0.82650  -0.82648  -0.81596  -0.81587  -0.80596
 Alpha  occ. eigenvalues --   -0.80442  -0.78796  -0.78635  -0.77218  -0.77143
 Alpha  occ. eigenvalues --   -0.76935  -0.76897  -0.75923  -0.75837  -0.74898
 Alpha  occ. eigenvalues --   -0.74804  -0.72775  -0.72699  -0.71672  -0.71580
 Alpha  occ. eigenvalues --   -0.69908  -0.69761  -0.68872  -0.68825  -0.67641
 Alpha  occ. eigenvalues --   -0.67601  -0.67218  -0.67197  -0.65286  -0.65270
 Alpha  occ. eigenvalues --   -0.64854  -0.64770  -0.64653  -0.64621  -0.64270
 Alpha  occ. eigenvalues --   -0.64205  -0.62299  -0.62278  -0.60441  -0.60339
 Alpha  occ. eigenvalues --   -0.59804  -0.59794  -0.58993  -0.58988  -0.58504
 Alpha  occ. eigenvalues --   -0.58426  -0.57586  -0.57554  -0.57309  -0.57237
 Alpha  occ. eigenvalues --   -0.56310  -0.56204  -0.55980  -0.55885  -0.55519
 Alpha  occ. eigenvalues --   -0.55451  -0.55340  -0.55249  -0.54525  -0.54489
 Alpha  occ. eigenvalues --   -0.53909  -0.53894  -0.53298  -0.53228  -0.53221
 Alpha  occ. eigenvalues --   -0.53140  -0.52915  -0.52901  -0.52754  -0.52665
 Alpha  occ. eigenvalues --   -0.52439  -0.52404  -0.51917  -0.51887  -0.51656
 Alpha  occ. eigenvalues --   -0.51616  -0.51201  -0.51197  -0.50569  -0.50473
 Alpha  occ. eigenvalues --   -0.50031  -0.49978  -0.49917  -0.49868  -0.49514
 Alpha  occ. eigenvalues --   -0.49486  -0.49215  -0.49201  -0.49103  -0.49096
 Alpha  occ. eigenvalues --   -0.48594  -0.48557  -0.48461  -0.48445  -0.48378
 Alpha  occ. eigenvalues --   -0.48337  -0.47694  -0.47593  -0.47296  -0.47117
 Alpha  occ. eigenvalues --   -0.46797  -0.46709  -0.46555  -0.46551  -0.46359
 Alpha  occ. eigenvalues --   -0.46271  -0.46163  -0.46087  -0.45824  -0.45822
 Alpha  occ. eigenvalues --   -0.45210  -0.45201  -0.44579  -0.44514  -0.44505
 Alpha  occ. eigenvalues --   -0.44474  -0.44144  -0.44126  -0.44088  -0.44078
 Alpha  occ. eigenvalues --   -0.44019  -0.43937  -0.43553  -0.43496  -0.43385
 Alpha  occ. eigenvalues --   -0.43385  -0.43027  -0.42930  -0.42901  -0.42700
 Alpha  occ. eigenvalues --   -0.42656  -0.42555  -0.42010  -0.41965  -0.41704
 Alpha  occ. eigenvalues --   -0.41669  -0.41533  -0.41457  -0.41141  -0.40988
 Alpha  occ. eigenvalues --   -0.40869  -0.40821  -0.40720  -0.40697  -0.40571
 Alpha  occ. eigenvalues --   -0.40495  -0.40233  -0.40223  -0.39442  -0.39429
 Alpha  occ. eigenvalues --   -0.38469  -0.38352  -0.37748  -0.37651  -0.37320
 Alpha  occ. eigenvalues --   -0.37267  -0.37263  -0.37198  -0.36771  -0.36715
 Alpha  occ. eigenvalues --   -0.36218  -0.36193  -0.34286  -0.34253  -0.33861
 Alpha  occ. eigenvalues --   -0.33773  -0.33186  -0.33176  -0.31342  -0.31272
 Alpha  occ. eigenvalues --   -0.31035  -0.30972  -0.30031  -0.29956  -0.29448
 Alpha  occ. eigenvalues --   -0.29327  -0.29322  -0.29212  -0.24080  -0.24036
 Alpha  occ. eigenvalues --   -0.21127  -0.21117
 Alpha virt. eigenvalues --   -0.08792  -0.08774  -0.01749  -0.01684  -0.00057
 Alpha virt. eigenvalues --   -0.00028   0.02200   0.02206   0.03121   0.03227
 Alpha virt. eigenvalues --    0.04719   0.04731   0.05096   0.05166   0.06178

 Mulliken charges:
               1
     1  Mg   0.838728
     2  C   -0.002964
     3  C   -0.094101
     4  C   -0.045868
     5  C   -0.063958
     6  N   -0.256782
     7  C   -0.052460
     8  C   -0.014012
     9  C   -0.086994
    10  C    0.046326
    11  C    0.104804
    12  C    0.053453
    13  C   -0.071815
    14  H    0.036123
    15  N   -0.433146
    16  C    0.168428
    17  C   -0.177125
    18  C   -0.003994
    19  C    0.148737
    20  C    0.110170
    21  C    0.012310
    22  O   -0.249596
    23  C    0.062459
    24  N   -0.341140
    25  C    0.041233
    26  C   -0.028176
    27  C   -0.023974
    28  C    0.074833
    29  C    0.076169
    30  C    0.035140
    31  C   -0.004504
    32  N   -0.310462
    33  C    0.080390
    34  C   -0.169759
    35  C    0.008345
    36  C    0.082974
    37  C    0.127323
    38  C    0.046091
    39  O   -0.188508
    40  C   -0.005337
    41  C    0.212876
    42  O   -0.257128
    43  O   -0.304792
    44  C    0.157708
    45  H   -0.017572
    46  H   -0.016812
    47  H   -0.041528
    48  H    0.000928
    49  H   -0.004008
    50  H    0.025464
    51  H    0.016452
    52  H    0.016679
    53  H    0.011227
    54  H    0.044102
    55  H    0.017869
    56  H    0.017983
    57  H    0.005890
    58  H    0.026856
    59  H    0.039604
    60  H    0.037360
    61  H    0.035702
    62  H    0.031530
    63  H    0.016570
    64  H    0.009449
    65  H    0.023234
    66  H    0.012556
    67  H    0.004745
    68  H    0.006371
    69  H    0.004690
    70  H    0.008811
    71  H    0.018098
    72  H    0.028988
    73  H    0.047509
    74  H    0.009085
    75  H    0.045995
    76  H    0.035147
    77  H    0.042919
    78  H    0.046427
    79  H    0.053655
    80  Mg   0.837875
    81  C   -0.016849
    82  C   -0.087752
    83  C   -0.045515
    84  C   -0.064907
    85  N   -0.254576
    86  C   -0.049832
    87  C   -0.015112
    88  C   -0.090501
    89  C    0.045754
    90  C    0.114356
    91  C    0.062523
    92  C   -0.077921
    93  H    0.034900
    94  N   -0.423509
    95  C    0.162915
    96  C   -0.174572
    97  C   -0.007795
    98  C    0.152141
    99  C    0.099343
   100  C    0.015590
   101  O   -0.253196
   102  C    0.061194
   103  N   -0.350054
   104  C    0.037514
   105  C   -0.019822
   106  C   -0.034816
   107  C    0.088922
   108  C    0.073652
   109  C    0.034747
   110  C   -0.007683
   111  N   -0.324096
   112  C    0.078439
   113  C   -0.163158
   114  C    0.002235
   115  C    0.096191
   116  C    0.131487
   117  C    0.042369
   118  O   -0.187904
   119  C    0.000949
   120  C    0.211243
   121  O   -0.251020
   122  O   -0.305617
   123  C    0.152027
   124  H   -0.019562
   125  H   -0.015565
   126  H   -0.040502
   127  H   -0.000619
   128  H   -0.004277
   129  H    0.022470
   130  H    0.014449
   131  H    0.016384
   132  H    0.013920
   133  H    0.037657
   134  H    0.020824
   135  H    0.019631
   136  H    0.008823
   137  H    0.026227
   138  H    0.039825
   139  H    0.038312
   140  H    0.036409
   141  H    0.033900
   142  H    0.014389
   143  H    0.012396
   144  H    0.025130
   145  H    0.011687
   146  H    0.005655
   147  H    0.006236
   148  H    0.003621
   149  H    0.010937
   150  H    0.017909
   151  H    0.030123
   152  H    0.045984
   153  H    0.008478
   154  H    0.046933
   155  H    0.035052
   156  H    0.043912
   157  H    0.049522
   158  H    0.053566
 Sum of Mulliken charges =  -0.00000

 Dipole moment (field-independent basis, Debye):
    X=              4.1196    Y=              2.2028    Z=              0.8841  Tot=              4.7545
 Quadrupole moment (field-independent basis, Debye-Ang):
   XX=           -518.6010   YY=           -540.4403   ZZ=           -458.3319
   XY=            -37.6215   XZ=            118.2998   YZ=             37.6988

 Normal termination of Gaussian 16 at Sat Sep  4 17:10:44 2021.
