 Gaussian 16, Revision A.03,
 Gaussian 16:  ES64L-G16RevA.03 25-Dec-2016

 -----------------------------------
 #p cam-b3lyp/Def2SVP td=(nstates=5)
 -----------------------------------

 --------------------------------
 TDDFT excited states in gaussian
 --------------------------------
 Symbolic Z-matrix:
 Charge =  0 Multiplicity = 1

                         Standard orientation:
 ---------------------------------------------------------------------
 Center     Atomic      Atomic             Coordinates (Angstroms)
 Number     Number       Type             X           Y           Z
 ---------------------------------------------------------------------
      1         12           0       15.776435   -0.768854    0.268281
      2          6           0       16.113802    2.323246   -1.502965
      3          6           0       16.745312    0.906795    3.078359
      4          6           0       15.925637   -3.566691    1.753701
      5          6           0       15.946572   -2.383638   -2.815416
      6          7           0       16.330368    1.345941    0.616771
      7          6           0       16.361151    2.442831   -0.133599
      8          6           0       16.606958    3.745086    0.685599
      9          6           0       17.337809    3.111116    1.952854
     10          6           0       16.743478    1.714632    1.902592
     11          6           0       18.851252    3.006817    1.794377
     12          6           0       15.270783    4.454114    1.090132
     13          6           0       15.421917    5.889112    1.603254
     14          1           0       14.388627    6.861104    1.279385
     15          7           0       15.786525   -1.196497    2.196978
     16          6           0       16.199134   -0.388937    3.203401
     17          6           0       16.009905   -1.161841    4.449793
     18          6           0       15.632443   -2.551705    4.070456
     19          6           0       15.794071   -2.500147    2.639863
     20          6           0       16.139514   -0.563340    5.816814
     21          6           0       15.205533   -3.741039    4.871307
     22          8           0       15.148841   -4.915026    4.368203
     23          6           0       14.937005   -3.507706    6.301863
     24          7           0       16.136089   -2.713709   -0.399419
     25          6           0       16.086755   -3.752331    0.441899
     26          6           0       16.093796   -5.056304   -0.299413
     27          6           0       15.912562   -4.688457   -1.842655
     28          6           0       15.915016   -3.144756   -1.719163
     29          6           0       17.351448   -5.918727   -0.124633
     30          6           0       14.739465   -5.366412   -2.594080
     31          6           0       13.421684   -4.858078   -2.053574
     32          7           0       15.813499   -0.165098   -1.816221
     33          6           0       15.909334   -1.004488   -2.935558
     34          6           0       16.007925   -0.133704   -4.121341
     35          6           0       15.979094    1.160165   -3.604701
     36          6           0       15.895887    1.101200   -2.184176
     37          6           0       16.166021   -0.571435   -5.465897
     38          6           0       16.024049    2.578636   -3.920574
     39          8           0       15.999781    3.236343   -4.961884
     40          6           0       16.235874    3.387321   -2.565220
     41          6           0       15.240274    4.515067   -2.548494
     42          8           0       14.016300    4.286682   -2.464268
     43          8           0       15.889731    5.679180   -2.394913
     44          6           0       14.957421    6.836766   -2.340623
     45          1           0       17.262236    1.271152    3.968289
     46          1           0       15.870033   -4.553795    2.217352
     47          1           0       15.917466   -2.815930   -3.817279
     48          1           0       17.262275    4.469541    0.201710
     49          1           0       17.053595    3.610802    2.878737
     50          1           0       19.164831    3.266827    0.783445
     51          1           0       19.095871    1.967240    2.013316
     52          1           0       19.361981    3.600911    2.552655
     53          1           0       14.868111    3.978717    1.984511
     54          1           0       14.560677    4.440065    0.262559
     55          1           0       16.409549    6.291601    1.376329
     56          1           0       15.381515    5.868428    2.692355
     57          1           0       16.586756    0.429166    5.778717
     58          1           0       16.864916   -1.167430    6.361403
     59          1           0       15.190565   -0.556037    6.353260
     60          1           0       15.835257   -3.112672    6.776879
     61          1           0       14.557939   -4.450628    6.694365
     62          1           0       14.174631   -2.733884    6.396384
     63          1           0       15.266119   -5.690098    0.016313
     64          1           0       16.792068   -4.950018   -2.431491
     65          1           0       17.146380   -6.920324    0.254122
     66          1           0       18.037434   -5.384989    0.532511
     67          1           0       17.956614   -6.031956   -1.023727
     68          1           0       14.758079   -6.443738   -2.432932
     69          1           0       14.759129   -5.191600   -3.669862
     70          1           0       13.260140   -5.484596   -1.177098
     71          1           0       12.628433   -5.001987   -2.787914
     72          1           0       13.504450   -3.827815   -1.706885
     73          1           0       15.492047    0.039111   -6.066697
     74          1           0       15.935906   -1.631850   -5.566750
     75          1           0       17.222522   -0.356409   -5.625357
     76          1           0       17.263712    3.748718   -2.573194
     77          1           0       15.266309    7.534462   -3.119111
     78          1           0       14.964928    7.192628   -1.310230
     79          1           0       13.926749    6.639951   -2.637808
     80         12           0      -15.946611    0.708322    0.426818
     81          6           0      -15.901298   -2.593889   -0.977595
     82          6           0      -15.030732    1.866821   -2.647860
     83          6           0      -15.539154    3.569672    1.736066
     84          6           0      -15.731699   -0.776844    3.572261
     85          7           0      -15.548545   -0.327681   -1.486418
     86          6           0      -15.622897   -1.578376   -1.916034
     87          6           0      -15.464795   -1.741460   -3.451600
     88          6           0      -14.643135   -0.395042   -3.753075
     89          6           0      -15.125672    0.453914   -2.578723
     90          6           0      -13.138339   -0.568178   -3.630775
     91          6           0      -16.845491   -1.750874   -4.196982
     92          6           0      -16.786449   -2.214180   -5.654251
     93          1           0      -17.907830   -2.983819   -6.185892
     94          7           0      -15.851306    2.503523   -0.413867
     95          6           0      -15.481377    2.790735   -1.679546
     96          6           0      -15.558666    4.254958   -1.798849
     97          6           0      -15.845423    4.820787   -0.452620
     98          6           0      -15.733359    3.628677    0.363711
     99          6           0      -15.446380    4.971327   -3.113239
    100          6           0      -16.155030    6.207837    0.023243
    101          8           0      -16.135221    6.512768    1.268008
    102          6           0      -16.390457    7.220338   -1.016421
    103          7           0      -15.462196    1.321289    2.353463
    104          6           0      -15.400037    2.626993    2.668430
    105          6           0      -15.308601    2.823879    4.162846
    106          6           0      -15.567013    1.381247    4.802858
    107          6           0      -15.679600    0.546541    3.508254
    108          6           0      -13.982289    3.379907    4.680644
    109          6           0      -16.704888    1.271414    5.854444
    110          6           0      -18.044369    1.497108    5.190936
    111          7           0      -16.020840   -1.306259    1.203989
    112          6           0      -15.884584   -1.706274    2.551395
    113          6           0      -15.888966   -3.183464    2.569574
    114          6           0      -16.005263   -3.543338    1.218477
    115          6           0      -16.048536   -2.373210    0.413226
    116          6           0      -15.745661   -4.001614    3.725525
    117          6           0      -16.090555   -4.647125    0.289465
    118          8           0      -16.188840   -5.868676    0.398474
    119          6           0      -15.899715   -4.083150   -1.184275
    120          6           0      -16.979784   -4.671461   -2.050227
    121          8           0      -18.174028   -4.386692   -1.852026
    122          8           0      -16.412785   -5.296291   -3.098308
    123          6           0      -17.444245   -5.886735   -3.992346
    124          1           0      -14.525468    2.311499   -3.505673
    125          1           0      -15.503595    4.533515    2.249096
    126          1           0      -15.767328   -1.314389    4.522234
    127          1           0      -14.888502   -2.605601   -3.759698
    128          1           0      -14.947752    0.050740   -4.696397
    129          1           0      -12.874863   -1.541626   -3.244620
    130          1           0      -12.806726    0.209328   -2.955081
    131          1           0      -12.655739   -0.359882   -4.589967
    132          1           0      -17.181013   -0.715958   -4.342314
    133          1           0      -17.564454   -2.338432   -3.659852
    134          1           0      -15.835527   -2.706204   -5.892127
    135          1           0      -16.800798   -1.332480   -6.299546
    136          1           0      -15.072876    4.307383   -3.902595
    137          1           0      -14.661292    5.726718   -2.999661
    138          1           0      -16.375004    5.467572   -3.403165
    139          1           0      -15.514704    7.290345   -1.657233
    140          1           0      -16.683691    8.125751   -0.481518
    141          1           0      -17.218476    6.884569   -1.650662
    142          1           0      -16.075348    3.505143    4.510779
    143          1           0      -14.682307    1.009582    5.340438
    144          1           0      -14.097982    4.313590    5.262812
    145          1           0      -13.325148    3.537542    3.835748
    146          1           0      -13.404063    2.694891    5.298400
    147          1           0      -16.597866    2.052454    6.611208
    148          1           0      -16.722091    0.319402    6.374394
    149          1           0      -18.125356    2.587871    5.163198
    150          1           0      -18.844168    1.056871    5.783015
    151          1           0      -18.035106    1.140789    4.154313
    152          1           0      -16.475056   -4.795777    3.637242
    153          1           0      -15.889747   -3.428148    4.638844
    154          1           0      -14.709462   -4.328965    3.605541
    155          1           0      -14.903063   -4.372878   -1.519422
    156          1           0      -17.210218   -6.951261   -4.090769
    157          1           0      -17.422322   -5.278650   -4.916194
    158          1           0      -18.462738   -5.927245   -3.624269
 ---------------------------------------------------------------------

 SCF Done:  E(RCAM-B3LYP) =  -4069.81178684     A.U. after   19 cycles

 Excitation energies and oscillator strengths:

 Excited State   1:      Singlet-A      1.6755 eV  739.99 nm  f=0.3232  <S**2>=0.000
     310 -> 316        0.17157
     311 -> 314        0.10379
     312 -> 313        0.67815
     310 <- 316        0.10342
 This state for optimization and/or second-order correction.
 Total Energy, E(TD-HF/TD-DFT) =  -4069.75021356
 Copying the excited state density for this state as the 1-particle RhoCI density.

 Excited State   2:      Singlet-A      1.6800 eV  738.01 nm  f=0.4533  <S**2>=0.000
     309 -> 315        0.17356
     311 -> 314        0.67780
     312 -> 313       -0.10377
     309 <- 315        0.10393

 Excited State   3:      Singlet-A      2.1861 eV  567.14 nm  f=0.1002  <S**2>=0.000
     310 -> 313        0.64237
     312 -> 316       -0.27305

 Excited State   4:      Singlet-A      2.1926 eV  565.47 nm  f=0.1006  <S**2>=0.000
     309 -> 314        0.64060
     311 -> 315       -0.27827

 Excited State   5:      Singlet-A      3.0660 eV  404.38 nm  f=0.0000  <S**2>=0.000
     311 -> 313        0.70711

 The electronic state is 1-A.
 Alpha  occ. eigenvalues --  -46.87796 -46.87660 -19.26347 -19.26288 -19.19159
 Alpha  occ. eigenvalues --  -19.19024 -19.18812 -19.18713 -19.18172 -19.18051
 Alpha  occ. eigenvalues --  -14.42496 -14.42450 -14.41449 -14.41359 -14.39402
 Alpha  occ. eigenvalues --  -14.39351 -14.38600 -14.38587 -10.39089 -10.39083
 Alpha  occ. eigenvalues --  -10.35445 -10.35391 -10.34392 -10.34228 -10.31753
 Alpha  occ. eigenvalues --  -10.31684 -10.31405 -10.31307 -10.31021 -10.30908
 Alpha  occ. eigenvalues --  -10.30570 -10.30508 -10.30398 -10.30360 -10.30206
 Alpha  occ. eigenvalues --  -10.30141 -10.29921 -10.29896 -10.29631 -10.29436
 Alpha  occ. eigenvalues --  -10.29400 -10.29254 -10.28749 -10.28715 -10.28648
 Alpha  occ. eigenvalues --  -10.28539 -10.28404 -10.28365 -10.28135 -10.28116
 Alpha  occ. eigenvalues --  -10.28001 -10.27793 -10.27727 -10.27667 -10.27584
 Alpha  occ. eigenvalues --  -10.27521 -10.27500 -10.27483 -10.27479 -10.27466
 Alpha  occ. eigenvalues --  -10.27461 -10.27449 -10.27404 -10.27379 -10.27160
 Alpha  occ. eigenvalues --  -10.27049 -10.26705 -10.26688 -10.26413 -10.26405
 Alpha  occ. eigenvalues --  -10.26234 -10.26184 -10.26143 -10.26019 -10.26017
 Alpha  occ. eigenvalues --  -10.25935 -10.25854 -10.25846 -10.25434 -10.25401
 Alpha  occ. eigenvalues --  -10.24873 -10.24833 -10.24787 -10.24736 -10.24690
 Alpha  occ. eigenvalues --  -10.24687  -3.16539  -3.16410  -1.91421  -1.91292
 Alpha  occ. eigenvalues --   -1.91007  -1.90881  -1.90850  -1.90718  -1.16641
 Alpha  occ. eigenvalues --   -1.16637  -1.08658  -1.08630  -1.07213  -1.06966
 Alpha  occ. eigenvalues --   -1.06944  -1.06646  -1.04581  -1.04494  -1.03760
 Alpha  occ. eigenvalues --   -1.03663  -1.03234  -1.03039  -1.02411  -1.02111
 Alpha  occ. eigenvalues --   -0.91986  -0.91973  -0.89520  -0.89496  -0.89188
 Alpha  occ. eigenvalues --   -0.89147  -0.88286  -0.88222  -0.87871  -0.87794
 Alpha  occ. eigenvalues --   -0.87683  -0.87673  -0.87272  -0.87119  -0.84997
 Alpha  occ. eigenvalues --   -0.84982  -0.83936  -0.83879  -0.82965  -0.82931
 Alpha  occ. eigenvalues --   -0.82650  -0.82648  -0.81595  -0.81588  -0.80597
 Alpha  occ. eigenvalues --   -0.80442  -0.78796  -0.78635  -0.77218  -0.77143
 Alpha  occ. eigenvalues --   -0.76935  -0.76897  -0.75924  -0.75836  -0.74898
 Alpha  occ. eigenvalues --   -0.74804  -0.72775  -0.72699  -0.71672  -0.71580
 Alpha  occ. eigenvalues --   -0.69907  -0.69761  -0.68873  -0.68825  -0.67641
 Alpha  occ. eigenvalues --   -0.67601  -0.67219  -0.67197  -0.65287  -0.65269
 Alpha  occ. eigenvalues --   -0.64854  -0.64770  -0.64653  -0.64621  -0.64269
 Alpha  occ. eigenvalues --   -0.64205  -0.62300  -0.62277  -0.60441  -0.60339
 Alpha  occ. eigenvalues --   -0.59804  -0.59794  -0.58993  -0.58988  -0.58504
 Alpha  occ. eigenvalues --   -0.58425  -0.57586  -0.57553  -0.57309  -0.57237
 Alpha  occ. eigenvalues --   -0.56310  -0.56204  -0.55981  -0.55884  -0.55520
 Alpha  occ. eigenvalues --   -0.55451  -0.55340  -0.55249  -0.54525  -0.54489
 Alpha  occ. eigenvalues --   -0.53909  -0.53895  -0.53298  -0.53227  -0.53222
 Alpha  occ. eigenvalues --   -0.53140  -0.52916  -0.52901  -0.52754  -0.52665
 Alpha  occ. eigenvalues --   -0.52438  -0.52405  -0.51917  -0.51887  -0.51656
 Alpha  occ. eigenvalues --   -0.51616  -0.51201  -0.51197  -0.50569  -0.50473
 Alpha  occ. eigenvalues --   -0.50031  -0.49978  -0.49917  -0.49869  -0.49514
 Alpha  occ. eigenvalues --   -0.49486  -0.49215  -0.49201  -0.49102  -0.49096
 Alpha  occ. eigenvalues --   -0.48594  -0.48557  -0.48461  -0.48445  -0.48378
 Alpha  occ. eigenvalues --   -0.48337  -0.47694  -0.47593  -0.47296  -0.47117
 Alpha  occ. eigenvalues --   -0.46797  -0.46709  -0.46555  -0.46551  -0.46359
 Alpha  occ. eigenvalues --   -0.46270  -0.46163  -0.46086  -0.45824  -0.45822
 Alpha  occ. eigenvalues --   -0.45210  -0.45201  -0.44579  -0.44513  -0.44506
 Alpha  occ. eigenvalues --   -0.44474  -0.44144  -0.44126  -0.44088  -0.44078
 Alpha  occ. eigenvalues --   -0.44020  -0.43937  -0.43552  -0.43497  -0.43385
 Alpha  occ. eigenvalues --   -0.43384  -0.43027  -0.42929  -0.42901  -0.42701
 Alpha  occ. eigenvalues --   -0.42656  -0.42555  -0.42010  -0.41965  -0.41704
 Alpha  occ. eigenvalues --   -0.41669  -0.41534  -0.41457  -0.41141  -0.40988
 Alpha  occ. eigenvalues --   -0.40869  -0.40821  -0.40720  -0.40697  -0.40571
 Alpha  occ. eigenvalues --   -0.40495  -0.40234  -0.40223  -0.39441  -0.39429
 Alpha  occ. eigenvalues --   -0.38468  -0.38352  -0.37748  -0.37651  -0.37320
 Alpha  occ. eigenvalues --   -0.37267  -0.37264  -0.37197  -0.36770  -0.36716
 Alpha  occ. eigenvalues --   -0.36217  -0.36194  -0.34286  -0.34253  -0.33861
 Alpha  occ. eigenvalues --   -0.33773  -0.33187  -0.33175  -0.31342  -0.31273
 Alpha  occ. eigenvalues --   -0.31035  -0.30972  -0.30031  -0.29955  -0.29449
 Alpha  occ. eigenvalues --   -0.29327  -0.29322  -0.29212  -0.24080  -0.24036
 Alpha  occ. eigenvalues --   -0.21127  -0.21117
 Alpha virt. eigenvalues --   -0.08792  -0.08774  -0.01749  -0.01684  -0.00057
 Alpha virt. eigenvalues --   -0.00027   0.02199   0.02207   0.03122   0.03226
 Alpha virt. eigenvalues --    0.04718   0.04732   0.05095   0.05167   0.06177

 Mulliken charges:
               1
     1  Mg   0.838778
     2  C   -0.002958
     3  C   -0.094088
     4  C   -0.045870
     5  C   -0.063961
     6  N   -0.256788
     7  C   -0.052483
     8  C   -0.014018
     9  C   -0.087026
    10  C    0.046333
    11  C    0.104817
    12  C    0.053470
    13  C   -0.071810
    14  H    0.036109
    15  N   -0.433150
    16  C    0.168413
    17  C   -0.177128
    18  C   -0.003966
    19  C    0.148712
    20  C    0.110166
    21  C    0.012298
    22  O   -0.249594
    23  C    0.062469
    24  N   -0.341135
    25  C    0.041256
    26  C   -0.028184
    27  C   -0.023953
    28  C    0.074810
    29  C    0.076162
    30  C    0.035128
    31  C   -0.004500
    32  N   -0.310464
    33  C    0.080393
    34  C   -0.169746
    35  C    0.008332
    36  C    0.082981
    37  C    0.127319
    38  C    0.046088
    39  O   -0.188508
    40  C   -0.005324
    41  C    0.212847
    42  O   -0.257124
    43  O   -0.304782
    44  C    0.157703
    45  H   -0.017580
    46  H   -0.016809
    47  H   -0.041517
    48  H    0.000926
    49  H   -0.004011
    50  H    0.025463
    51  H    0.016454
    52  H    0.016675
    53  H    0.011223
    54  H    0.044101
    55  H    0.017868
    56  H    0.017980
    57  H    0.005886
    58  H    0.026855
    59  H    0.039599
    60  H    0.037355
    61  H    0.035701
    62  H    0.031523
    63  H    0.016576
    64  H    0.009451
    65  H    0.023241
    66  H    0.012553
    67  H    0.004750
    68  H    0.006382
    69  H    0.004697
    70  H    0.008813
    71  H    0.018113
    72  H    0.028974
    73  H    0.047511
    74  H    0.009093
    75  H    0.045996
    76  H    0.035145
    77  H    0.042916
    78  H    0.046426
    79  H    0.053651
    80  Mg   0.837846
    81  C   -0.016802
    82  C   -0.087754
    83  C   -0.045515
    84  C   -0.064892
    85  N   -0.254574
    86  C   -0.049834
    87  C   -0.015100
    88  C   -0.090505
    89  C    0.045750
    90  C    0.114353
    91  C    0.062510
    92  C   -0.077918
    93  H    0.034903
    94  N   -0.423510
    95  C    0.162926
    96  C   -0.174578
    97  C   -0.007801
    98  C    0.152140
    99  C    0.099333
   100  C    0.015584
   101  O   -0.253192
   102  C    0.061186
   103  N   -0.350078
   104  C    0.037557
   105  C   -0.019844
   106  C   -0.034787
   107  C    0.088910
   108  C    0.073655
   109  C    0.034733
   110  C   -0.007666
   111  N   -0.324095
   112  C    0.078442
   113  C   -0.163157
   114  C    0.002249
   115  C    0.096171
   116  C    0.131489
   117  C    0.042373
   118  O   -0.187883
   119  C    0.000913
   120  C    0.211266
   121  O   -0.251029
   122  O   -0.305622
   123  C    0.152025
   124  H   -0.019570
   125  H   -0.015585
   126  H   -0.040497
   127  H   -0.000612
   128  H   -0.004277
   129  H    0.022476
   130  H    0.014445
   131  H    0.016392
   132  H    0.013919
   133  H    0.037655
   134  H    0.020829
   135  H    0.019631
   136  H    0.008825
   137  H    0.026217
   138  H    0.039821
   139  H    0.038305
   140  H    0.036399
   141  H    0.033906
   142  H    0.014384
   143  H    0.012396
   144  H    0.025117
   145  H    0.011680
   146  H    0.005656
   147  H    0.006234
   148  H    0.003626
   149  H    0.010930
   150  H    0.017910
   151  H    0.030125
   152  H    0.045989
   153  H    0.008480
   154  H    0.046943
   155  H    0.035064
   156  H    0.043919
   157  H    0.049526
   158  H    0.053566
 Sum of Mulliken charges =  -0.00000

 Dipole moment (field-independent basis, Debye):
    X=              4.1580    Y=              3.1258    Z=              1.1704  Tot=              5.3319
 Quadrupole moment (field-independent basis, Debye-Ang):
   XX=           -518.2927   YY=           -531.0501   ZZ=           -467.7776
   XY=            -35.1567   XZ=            111.1987   YZ=             28.9504

 Normal termination of Gaussian 16 at Sun Sep 12 10:37:41 2021.
