 Gaussian 16, Revision A.03,
 Gaussian 16:  ES64L-G16RevA.03 25-Dec-2016

 -----------------------------------
 #p cam-b3lyp/Def2SVP td=(nstates=5)
 -----------------------------------

 --------------------------------
 TDDFT excited states in gaussian
 --------------------------------
 Symbolic Z-matrix:
 Charge =  0 Multiplicity = 1

                         Standard orientation:
 ---------------------------------------------------------------------
 Center     Atomic      Atomic             Coordinates (Angstroms)
 Number     Number       Type             X           Y           Z
 ---------------------------------------------------------------------
      1         12           0       15.602811   -0.817922    0.261747
      2          6           0       15.861452    2.259300   -1.548232
      3          6           0       16.452932    0.931960    3.065008
      4          6           0       15.825192   -3.587084    1.791096
      5          6           0       15.893935   -2.468575   -2.793781
      6          7           0       16.071417    1.320673    0.589570
      7          6           0       16.076793    2.407267   -0.176234
      8          6           0       16.258047    3.729161    0.628202
      9          6           0       16.986254    3.140668    1.918702
     10          6           0       16.444871    1.722522    1.877584
     11          6           0       18.505377    3.090377    1.791280
     12          6           0       14.888848    4.393750    0.996095
     13          6           0       14.976747    5.840455    1.490736
     14          1           0       13.915052    6.768775    1.132442
     15          7           0       15.590062   -1.217673    2.196401
     16          6           0       15.952444   -0.381257    3.198585
     17          6           0       15.766911   -1.143009    4.452376
     18          6           0       15.448545   -2.551129    4.086405
     19          6           0       15.636746   -2.513775    2.658623
     20          6           0       15.847027   -0.520906    5.812641
     21          6           0       15.049785   -3.744082    4.896335
     22          8           0       15.046433   -4.926338    4.409678
     23          6           0       14.744288   -3.500738    6.317777
     24          7           0       16.047116   -2.757307   -0.369926
     25          6           0       16.019242   -3.785085    0.485574
     26          6           0       16.089118   -5.098216   -0.236051
     27          6           0       15.925365   -4.759131   -1.787811
     28          6           0       15.868505   -3.214815   -1.687189
     29          6           0       17.373925   -5.910829   -0.024058
     30          6           0       14.793292   -5.490672   -2.551800
     31          6           0       13.447140   -5.024020   -2.044642
     32          7           0       15.659304   -0.242641   -1.830359
     33          6           0       15.808350   -1.093587   -2.935053
     34          6           0       15.898508   -0.236541   -4.131469
     35          6           0       15.811727    1.062519   -3.634722
     36          6           0       15.702352    1.020532   -2.215368
     37          6           0       16.099477   -0.687008   -5.466057
     38          6           0       15.810730    2.477089   -3.970650
     39          8           0       15.783093    3.118704   -5.021869
     40          6           0       15.965483    3.312097   -2.623565
     41          6           0       14.928898    4.402246   -2.642940
     42          8           0       13.712723    4.129810   -2.579180
     43          8           0       15.531848    5.591706   -2.494016
     44          6           0       14.556647    6.714549   -2.475049
     45          1           0       16.938186    1.327751    3.959334
     46          1           0       15.796710   -4.568939    2.268156
     47          1           0       15.900810   -2.915724   -3.789504
     48          1           0       16.895792    4.470543    0.146477
     49          1           0       16.665371    3.642462    2.831368
     50          1           0       18.829326    3.347573    0.782901
     51          1           0       18.783681    2.063782    2.030324
     52          1           0       18.978616    3.713640    2.550467
     53          1           0       14.486145    3.916389    1.889413
     54          1           0       14.196435    4.341699    0.155154
     55          1           0       15.953230    6.276078    1.277138
     56          1           0       14.915359    5.833636    2.579030
     57          1           0       16.258092    0.486877    5.768550
     58          1           0       16.583142   -1.089928    6.380142
     59          1           0       14.887913   -0.541262    6.330345
     60          1           0       15.617704   -3.065990    6.804281
     61          1           0       14.392424   -4.451452    6.716758
     62          1           0       13.952200   -2.754483    6.385959
     63          1           0       15.279191   -5.757774    0.072862
     64          1           0       16.825507   -4.996148   -2.355474
     65          1           0       17.198342   -6.913909    0.365437
     66          1           0       18.026512   -5.342795    0.638331
     67          1           0       18.000712   -6.014182   -0.909425
     68          1           0       14.848335   -6.564187   -2.374369
     69          1           0       14.828019   -5.330427   -3.629467
     70          1           0       13.291276   -5.643688   -1.162287
     71          1           0       12.674572   -5.207599   -2.792071
     72          1           0       13.484963   -3.986612   -1.711716
     73          1           0       15.415629   -0.110419   -6.088847
     74          1           0       15.910626   -1.756547   -5.555642
     75          1           0       17.150320   -0.435195   -5.608090
     76          1           0       16.979270    3.711237   -2.616884
     77          1           0       14.855144    7.412186   -3.257632
     78          1           0       14.530434    7.084930   -1.450093
     79          1           0       13.540072    6.475456   -2.789292
     80         12           0      -16.146163   -0.509075   -0.216974
     81          6           0      -13.663646    1.932486    0.651904
     82          6           0      -18.473497    1.605951    1.103927
     83          6           0      -18.294056   -2.819512   -0.557403
     84          6           0      -13.574178   -2.853080   -0.407316
     85          7           0      -15.968483    1.483793    0.725964
     86          6           0      -14.981725    2.339540    0.945871
     87          6           0      -15.441074    3.738337    1.437729
     88          6           0      -16.854972    3.317706    2.072431
     89          6           0      -17.142216    2.077278    1.228916
     90          6           0      -16.758654    2.893372    3.528448
     91          6           0      -15.621306    4.757232    0.258153
     92          6           0      -15.767241    6.218787    0.687469
     93          1           0      -15.185224    7.254923   -0.161140
     94          7           0      -18.128748   -0.425230   -0.246963
     95          6           0      -18.912096    0.515612    0.320907
     96          6           0      -20.297405    0.113984    0.031483
     97          6           0      -20.272138   -1.227765   -0.611788
     98          6           0      -18.868020   -1.559221   -0.475128
     99          6           0      -21.474907    1.008317    0.290479
    100          6           0      -21.337969   -2.078067   -1.234038
    101          8           0      -21.135067   -3.311342   -1.518112
    102          6           0      -22.655022   -1.450283   -1.414987
    103          7           0      -15.994832   -2.582437   -0.241651
    104          6           0      -17.075809   -3.351968   -0.458980
    105          6           0      -16.681809   -4.788492   -0.707082
    106          6           0      -15.089104   -4.778372   -0.851256
    107          6           0      -14.818127   -3.286001   -0.560096
    108          6           0      -17.088079   -5.786473    0.377069
    109          6           0      -14.495689   -5.398507   -2.145849
    110          6           0      -14.862970   -4.548313   -3.340696
    111          7           0      -13.988382   -0.462007   -0.117873
    112          6           0      -13.106744   -1.562369   -0.195317
    113          6           0      -11.742899   -1.044756    0.037961
    114          6           0      -11.929662    0.328029    0.259519
    115          6           0      -13.314313    0.640230    0.190600
    116          6           0      -10.552312   -1.824041    0.074578
    117          6           0      -11.271324    1.582185    0.546540
    118          8           0      -10.099989    1.949513    0.628934
    119          6           0      -12.376651    2.654980    0.938681
    120          6           0      -12.094243    3.915704    0.168402
    121          8           0      -12.191112    3.934050   -1.071313
    122          8           0      -11.969860    4.940677    1.031141
    123          6           0      -11.699976    6.215232    0.313844
    124          1           0      -19.252650    2.089660    1.693699
    125          1           0      -18.982102   -3.637017   -0.784900
    126          1           0      -12.708311   -3.503729   -0.547329
    127          1           0      -14.809668    4.182494    2.197876
    128          1           0      -17.609055    4.080691    1.897612
    129          1           0      -15.733806    2.831581    3.863138
    130          1           0      -17.233981    1.922797    3.584062
    131          1           0      -17.358518    3.559099    4.155582
    132          1           0      -16.603608    4.598517   -0.205148
    133          1           0      -14.820095    4.666684   -0.449292
    134          1           0      -15.477675    6.371798    1.734214
    135          1           0      -16.826927    6.484082    0.661009
    136          1           0      -21.199744    1.863427    0.920153
    137          1           0      -22.181887    0.437148    0.901888
    138          1           0      -21.975367    1.322386   -0.627970
    139          1           0      -23.032830   -1.119180   -0.450569
    140          1           0      -23.256805   -2.184003   -1.954803
    141          1           0      -22.532813   -0.551955   -2.030365
    142          1           0      -17.115821   -5.154774   -1.629339
    143          1           0      -14.603460   -5.348882   -0.045959
    144          1           0      -17.710455   -6.617309   -0.005594
    145          1           0      -17.609755   -5.248867    1.157693
    146          1           0      -16.261047   -6.239202    0.921350
    147          1           0      -14.926261   -6.386931   -2.324125
    148          1           0      -13.417893   -5.517918   -2.112850
    149          1           0      -15.869442   -4.896558   -3.591339
    150          1           0      -14.169728   -4.721104   -4.161420
    151          1           0      -14.939831   -3.490780   -3.062530
    152          1           0       -9.803970   -1.275569   -0.481883
    153          1           0      -10.712962   -2.815345   -0.344079
    154          1           0      -10.374331   -1.857708    1.152748
    155          1           0      -12.314036    2.810949    2.016339
    156          1           0      -10.777902    6.629037    0.733626
    157          1           0      -12.619455    6.820395    0.423792
    158          1           0      -11.444922    6.154272   -0.737667
 ---------------------------------------------------------------------

 SCF Done:  E(RCAM-B3LYP) =  -4069.81174944     A.U. after   19 cycles

 Excitation energies and oscillator strengths:

 Excited State   1:      Singlet-A      1.6756 eV  739.94 nm  f=0.3951  <S**2>=0.000
     309 -> 315        0.17359
     311 -> 313        0.68595
     309 <- 315        0.10462
 This state for optimization and/or second-order correction.
 Total Energy, E(TD-HF/TD-DFT) =  -4069.75017232
 Copying the excited state density for this state as the 1-particle RhoCI density.

 Excited State   2:      Singlet-A      1.6799 eV  738.06 nm  f=0.3870  <S**2>=0.000
     310 -> 316        0.17552
     312 -> 314        0.68561
     310 <- 316        0.10511

 Excited State   3:      Singlet-A      2.1861 eV  567.15 nm  f=0.0944  <S**2>=0.000
     309 -> 313        0.64201
     311 -> 315       -0.27294

 Excited State   4:      Singlet-A      2.1925 eV  565.50 nm  f=0.1056  <S**2>=0.000
     310 -> 314        0.64025
     312 -> 316       -0.27808

 Excited State   5:      Singlet-A      3.0452 eV  407.15 nm  f=0.0000  <S**2>=0.000
     312 -> 313        0.70708

 The electronic state is 1-A.
 Alpha  occ. eigenvalues --  -46.87726 -46.87660 -19.26344 -19.26209 -19.19155
 Alpha  occ. eigenvalues --  -19.18944 -19.18746 -19.18714 -19.18099 -19.18048
 Alpha  occ. eigenvalues --  -14.42497 -14.42380 -14.41380 -14.41359 -14.39352
 Alpha  occ. eigenvalues --  -14.39332 -14.38599 -14.38516 -10.39086 -10.39004
 Alpha  occ. eigenvalues --  -10.35391 -10.35380 -10.34319 -10.34225 -10.31750
 Alpha  occ. eigenvalues --  -10.31603 -10.31335 -10.31308 -10.31023 -10.30839
 Alpha  occ. eigenvalues --  -10.30500 -10.30437 -10.30397 -10.30360 -10.30141
 Alpha  occ. eigenvalues --  -10.30138 -10.29894 -10.29851 -10.29561 -10.29436
 Alpha  occ. eigenvalues --  -10.29400 -10.29185 -10.28719 -10.28678 -10.28653
 Alpha  occ. eigenvalues --  -10.28463 -10.28404 -10.28295 -10.28141 -10.28048
 Alpha  occ. eigenvalues --  -10.28000 -10.27723 -10.27669 -10.27658 -10.27517
 Alpha  occ. eigenvalues --  -10.27514 -10.27483 -10.27467 -10.27464 -10.27433
 Alpha  occ. eigenvalues --  -10.27413 -10.27383 -10.27376 -10.27333 -10.27087
 Alpha  occ. eigenvalues --  -10.27048 -10.26691 -10.26630 -10.26415 -10.26342
 Alpha  occ. eigenvalues --  -10.26169 -10.26135 -10.26114 -10.26028 -10.25950
 Alpha  occ. eigenvalues --  -10.25933 -10.25846 -10.25775 -10.25400 -10.25373
 Alpha  occ. eigenvalues --  -10.24871 -10.24763 -10.24727 -10.24718 -10.24689
 Alpha  occ. eigenvalues --  -10.24613  -3.16469  -3.16410  -1.91350  -1.91292
 Alpha  occ. eigenvalues --   -1.90937  -1.90881  -1.90779  -1.90717  -1.16638
 Alpha  occ. eigenvalues --   -1.16558  -1.08654  -1.08556  -1.07147  -1.06966
 Alpha  occ. eigenvalues --   -1.06940  -1.06567  -1.04511  -1.04495  -1.03691
 Alpha  occ. eigenvalues --   -1.03663  -1.03164  -1.03038  -1.02341  -1.02111
 Alpha  occ. eigenvalues --   -0.91986  -0.91902  -0.89493  -0.89450  -0.89151
 Alpha  occ. eigenvalues --   -0.89118  -0.88220  -0.88218  -0.87801  -0.87791
 Alpha  occ. eigenvalues --   -0.87684  -0.87603  -0.87204  -0.87120  -0.84999
 Alpha  occ. eigenvalues --   -0.84911  -0.83875  -0.83867  -0.82931  -0.82898
 Alpha  occ. eigenvalues --   -0.82652  -0.82578  -0.81594  -0.81514  -0.80525
 Alpha  occ. eigenvalues --   -0.80441  -0.78728  -0.78635  -0.77149  -0.77144
 Alpha  occ. eigenvalues --   -0.76897  -0.76864  -0.75853  -0.75838  -0.74830
 Alpha  occ. eigenvalues --   -0.74802  -0.72705  -0.72698  -0.71603  -0.71581
 Alpha  occ. eigenvalues --   -0.69838  -0.69756  -0.68827  -0.68803  -0.67601
 Alpha  occ. eigenvalues --   -0.67571  -0.67199  -0.67148  -0.65271  -0.65215
 Alpha  occ. eigenvalues --   -0.64783  -0.64769  -0.64652  -0.64550  -0.64203
 Alpha  occ. eigenvalues --   -0.64200  -0.62275  -0.62225  -0.60373  -0.60339
 Alpha  occ. eigenvalues --   -0.59796  -0.59734  -0.58992  -0.58918  -0.58434
 Alpha  occ. eigenvalues --   -0.58424  -0.57551  -0.57513  -0.57239  -0.57235
 Alpha  occ. eigenvalues --   -0.56240  -0.56203  -0.55905  -0.55884  -0.55451
 Alpha  occ. eigenvalues --   -0.55451  -0.55269  -0.55246  -0.54485  -0.54452
 Alpha  occ. eigenvalues --   -0.53912  -0.53824  -0.53229  -0.53226  -0.53152
 Alpha  occ. eigenvalues --   -0.53140  -0.52900  -0.52843  -0.52686  -0.52668
 Alpha  occ. eigenvalues --   -0.52399  -0.52368  -0.51882  -0.51845  -0.51658
 Alpha  occ. eigenvalues --   -0.51546  -0.51199  -0.51125  -0.50503  -0.50475
 Alpha  occ. eigenvalues --   -0.49980  -0.49963  -0.49867  -0.49849  -0.49487
 Alpha  occ. eigenvalues --   -0.49445  -0.49201  -0.49145  -0.49104  -0.49027
 Alpha  occ. eigenvalues --   -0.48557  -0.48523  -0.48393  -0.48375  -0.48375
 Alpha  occ. eigenvalues --   -0.48338  -0.47625  -0.47594  -0.47228  -0.47118
 Alpha  occ. eigenvalues --   -0.46727  -0.46708  -0.46554  -0.46484  -0.46289
 Alpha  occ. eigenvalues --   -0.46269  -0.46093  -0.46084  -0.45820  -0.45751
 Alpha  occ. eigenvalues --   -0.45209  -0.45133  -0.44512  -0.44507  -0.44475
 Alpha  occ. eigenvalues --   -0.44437  -0.44127  -0.44076  -0.44074  -0.44019
 Alpha  occ. eigenvalues --   -0.43949  -0.43938  -0.43550  -0.43423  -0.43385
 Alpha  occ. eigenvalues --   -0.43316  -0.42957  -0.42928  -0.42899  -0.42627
 Alpha  occ. eigenvalues --   -0.42583  -0.42552  -0.41963  -0.41939  -0.41668
 Alpha  occ. eigenvalues --   -0.41634  -0.41463  -0.41458  -0.41072  -0.40990
 Alpha  occ. eigenvalues --   -0.40799  -0.40753  -0.40722  -0.40698  -0.40502
 Alpha  occ. eigenvalues --   -0.40493  -0.40226  -0.40161  -0.39424  -0.39371
 Alpha  occ. eigenvalues --   -0.38400  -0.38350  -0.37676  -0.37653  -0.37265
 Alpha  occ. eigenvalues --   -0.37251  -0.37199  -0.37192  -0.36767  -0.36640
 Alpha  occ. eigenvalues --   -0.36216  -0.36121  -0.34253  -0.34216  -0.33857
 Alpha  occ. eigenvalues --   -0.33695  -0.33175  -0.33116  -0.31276  -0.31273
 Alpha  occ. eigenvalues --   -0.30972  -0.30966  -0.29958  -0.29952  -0.29379
 Alpha  occ. eigenvalues --   -0.29326  -0.29252  -0.29210  -0.24036  -0.24010
 Alpha  occ. eigenvalues --   -0.21116  -0.21058
 Alpha virt. eigenvalues --   -0.08791  -0.08704  -0.01683  -0.01680  -0.00028
 Alpha virt. eigenvalues --    0.00012   0.02209   0.02270   0.03198   0.03229
 Alpha virt. eigenvalues --    0.04729   0.04789   0.05170   0.05173   0.06183

 Mulliken charges:
               1
     1  Mg   0.838863
     2  C   -0.002913
     3  C   -0.094081
     4  C   -0.045888
     5  C   -0.063967
     6  N   -0.256757
     7  C   -0.052479
     8  C   -0.014008
     9  C   -0.087020
    10  C    0.046334
    11  C    0.104836
    12  C    0.053471
    13  C   -0.071839
    14  H    0.036265
    15  N   -0.433136
    16  C    0.168436
    17  C   -0.177162
    18  C   -0.004005
    19  C    0.148730
    20  C    0.110197
    21  C    0.012312
    22  O   -0.249664
    23  C    0.062457
    24  N   -0.341150
    25  C    0.041242
    26  C   -0.028138
    27  C   -0.023984
    28  C    0.074854
    29  C    0.076193
    30  C    0.035136
    31  C   -0.004508
    32  N   -0.310473
    33  C    0.080437
    34  C   -0.169698
    35  C    0.008359
    36  C    0.083031
    37  C    0.127297
    38  C    0.046145
    39  O   -0.188439
    40  C   -0.005368
    41  C    0.212865
    42  O   -0.256969
    43  O   -0.304851
    44  C    0.157663
    45  H   -0.017660
    46  H   -0.016877
    47  H   -0.041518
    48  H    0.000893
    49  H   -0.004022
    50  H    0.025433
    51  H    0.016401
    52  H    0.016594
    53  H    0.011271
    54  H    0.044216
    55  H    0.017778
    56  H    0.017943
    57  H    0.005852
    58  H    0.026739
    59  H    0.039616
    60  H    0.037278
    61  H    0.035624
    62  H    0.031600
    63  H    0.016572
    64  H    0.009386
    65  H    0.023161
    66  H    0.012500
    67  H    0.004685
    68  H    0.006300
    69  H    0.004712
    70  H    0.008784
    71  H    0.018223
    72  H    0.029053
    73  H    0.047624
    74  H    0.009106
    75  H    0.045927
    76  H    0.035078
    77  H    0.042896
    78  H    0.046396
    79  H    0.053811
    80  Mg   0.837805
    81  C   -0.016801
    82  C   -0.087802
    83  C   -0.045493
    84  C   -0.064856
    85  N   -0.254563
    86  C   -0.049853
    87  C   -0.015091
    88  C   -0.090496
    89  C    0.045770
    90  C    0.114381
    91  C    0.062523
    92  C   -0.077905
    93  H    0.034965
    94  N   -0.423476
    95  C    0.162931
    96  C   -0.174634
    97  C   -0.007803
    98  C    0.152108
    99  C    0.099373
   100  C    0.015571
   101  O   -0.253185
   102  C    0.061187
   103  N   -0.350044
   104  C    0.037495
   105  C   -0.019830
   106  C   -0.034806
   107  C    0.088886
   108  C    0.073669
   109  C    0.034724
   110  C   -0.007684
   111  N   -0.324120
   112  C    0.078456
   113  C   -0.163089
   114  C    0.002257
   115  C    0.096209
   116  C    0.131485
   117  C    0.042413
   118  O   -0.187777
   119  C    0.000897
   120  C    0.211284
   121  O   -0.250959
   122  O   -0.305667
   123  C    0.152003
   124  H   -0.019684
   125  H   -0.015577
   126  H   -0.040414
   127  H   -0.000664
   128  H   -0.004324
   129  H    0.022437
   130  H    0.014407
   131  H    0.016254
   132  H    0.013931
   133  H    0.037717
   134  H    0.020751
   135  H    0.019582
   136  H    0.008751
   137  H    0.026122
   138  H    0.039810
   139  H    0.038237
   140  H    0.036408
   141  H    0.033918
   142  H    0.014419
   143  H    0.012409
   144  H    0.025142
   145  H    0.011606
   146  H    0.005659
   147  H    0.006266
   148  H    0.003698
   149  H    0.010926
   150  H    0.018007
   151  H    0.030103
   152  H    0.046129
   153  H    0.008553
   154  H    0.046916
   155  H    0.034989
   156  H    0.043935
   157  H    0.049464
   158  H    0.053661
 Sum of Mulliken charges =  -0.00000

 Dipole moment (field-independent basis, Debye):
    X=             -1.7525    Y=              1.7771    Z=              6.2900  Tot=              6.7671
 Quadrupole moment (field-independent basis, Debye-Ang):
   XX=           -350.8458   YY=           -477.0223   ZZ=           -511.1068
   XY=            -36.0013   XZ=             24.2740   YZ=             42.7457

 Normal termination of Gaussian 16 at Sun Sep 12 16:22:11 2021.
