 Gaussian 16, Revision A.03,
 Gaussian 16:  ES64L-G16RevA.03 25-Dec-2016

 -----------------------------------
 #p cam-b3lyp/Def2SVP td=(nstates=5)
 -----------------------------------

 --------------------------------
 TDDFT excited states in gaussian
 --------------------------------
 Symbolic Z-matrix:
 Charge =  0 Multiplicity = 1

                         Standard orientation:
 ---------------------------------------------------------------------
 Center     Atomic      Atomic             Coordinates (Angstroms)
 Number     Number       Type             X           Y           Z
 ---------------------------------------------------------------------
      1         12           0       -4.165043   -0.009263    0.165229
      2          6           0       -3.697703    3.216309    1.644922
      3          6           0       -4.982337    1.601677   -2.729588
      4          6           0       -5.021124   -2.819413   -1.029258
      5          6           0       -4.422304   -1.290839    3.395870
      6          7           0       -4.286381    2.139668   -0.352478
      7          6           0       -4.024135    3.274538    0.288200
      8          6           0       -4.054914    4.527676   -0.637042
      9          6           0       -5.003151    3.966517   -1.789406
     10          6           0       -4.714940    2.483072   -1.640243
     11          6           0       -6.486619    4.207288   -1.528920
     12          6           0       -2.636363    4.893536   -1.189843
     13          6           0       -2.522147    6.280196   -1.829752
     14          1           0       -1.284227    7.027236   -1.665941
     15          7           0       -4.421106   -0.580602   -1.708498
     16          6           0       -4.733940    0.212376   -2.761402
     17          6           0       -4.813557   -0.682382   -3.936030
     18          6           0       -4.708593   -2.085315   -3.447302
     19          6           0       -4.739472   -1.883107   -2.021281
     20          6           0       -4.924007   -0.183773   -5.344199
     21          6           0       -4.608563   -3.400405   -4.153463
     22          8           0       -4.760486   -4.513472   -3.543075
     23          6           0       -4.413407   -3.348778   -5.613700
     24          7           0       -4.871956   -1.768061    1.039607
     25          6           0       -5.111185   -2.857726    0.301781
     26          6           0       -5.333369   -4.063890    1.165345
     27          6           0       -4.954384   -3.619440    2.651476
     28          6           0       -4.640882   -2.127562    2.378921
     29          6           0       -6.754657   -4.643366    1.152761
     30          6           0       -3.894010   -4.472651    3.391785
     31          6           0       -2.546737   -4.309099    2.724547
     32          7           0       -3.905136    0.756358    2.179508
     33          6           0       -4.085174    0.052265    3.378888
     34          6           0       -3.901505    1.017552    4.478231
     35          6           0       -3.642060    2.227506    3.837494
     36          6           0       -3.688321    2.035977    2.427009
     37          6           0       -4.039190    0.736069    5.866123
     38          6           0       -3.360868    3.642731    4.016171
     39          8           0       -3.114182    4.362240    4.985164
     40          6           0       -3.506091    4.364609    2.604212
     41          6           0       -2.299548    5.243507    2.416862
     42          8           0       -1.162281    4.748204    2.280241
     43          8           0       -2.698866    6.504494    2.191034
     44          6           0       -1.550712    7.423115    1.967355
     45          1           0       -5.480926    1.995800   -3.617292
     46          1           0       -5.212830   -3.829474   -1.397312
     47          1           0       -4.404195   -1.635762    4.431318
     48          1           0       -4.501206    5.414407   -0.186536
     49          1           0       -4.695679    4.315031   -2.775165
     50          1           0       -6.655446    4.611009   -0.530707
     51          1           0       -6.962066    3.231504   -1.630351
     52          1           0       -6.920030    4.834269   -2.308553
     53          1           0       -2.416792    4.270467   -2.056812
     54          1           0       -1.880684    4.793004   -0.409991
     55          1           0       -3.380896    6.905078   -1.582810
     56          1           0       -2.575224    6.162294   -2.912103
     57          1           0       -5.147071    0.881974   -5.375357
     58          1           0       -5.802191   -0.658004   -5.781928
     59          1           0       -4.041459   -0.426959   -5.936063
     60          1           0       -5.243425   -2.807950   -6.068809
     61          1           0       -4.274944   -4.380425   -5.935230
     62          1           0       -3.515057   -2.769728   -5.829611
     63          1           0       -4.686443   -4.886199    0.862493
     64          1           0       -5.818724   -3.634378    3.315831
     65          1           0       -6.796963   -5.693104    0.861272
     66          1           0       -7.363351   -4.028695    0.490219
     67          1           0       -7.295357   -4.548366    2.094055
     68          1           0       -4.152597   -5.529599    3.337554
     69          1           0       -3.789271   -4.210442    4.444651
     70          1           0       -2.592508   -5.025229    1.904855
     71          1           0       -1.745020   -4.561643    3.419300
     72          1           0       -2.437905   -3.317367    2.285105
     73          1           0       -3.205193    1.232362    6.362220
     74          1           0       -4.030730   -0.337134    6.055241
     75          1           0       -5.010055    1.188091    6.068495
     76          1           0       -4.430386    4.940380    2.640116
     77          1           0       -1.641369    8.232523    2.691838
     78          1           0       -1.566222    7.686670    0.909668
     79          1           0       -0.564238    7.031740    2.218417
     80         12           0        3.633366   -1.374978   -0.408645
     81          6           0        6.210475    1.108785   -0.146929
     82          6           0        1.511493    1.137148   -1.315000
     83          6           0        1.245651   -3.455286   -0.212346
     84          6           0        5.614695   -3.440366    1.579868
     85          7           0        3.939493    0.800704   -0.663453
     86          6           0        4.976110    1.622453   -0.596296
     87          6           0        4.692678    3.058845   -1.112044
     88          6           0        3.101570    3.082344   -0.895963
     89          6           0        2.818876    1.584908   -0.998223
     90          6           0        2.689190    3.552781    0.488944
     91          6           0        5.069587    3.235976   -2.624851
     92          6           0        5.110302    4.686095   -3.111930
     93          1           0        6.109928    5.057429   -4.109598
     94          7           0        1.803028   -1.305023   -1.172541
     95          6           0        1.100632   -0.200904   -1.502468
     96          6           0       -0.196107   -0.683442   -2.002258
     97          6           0       -0.264164   -2.154311   -1.786311
     98          6           0        0.943381   -2.363326   -1.012857
     99          6           0       -1.188923    0.211509   -2.685494
    100          6           0       -1.258872   -3.197892   -2.195806
    101          8           0       -1.240868   -4.378102   -1.696212
    102          6           0       -2.311471   -2.770001   -3.128773
    103          7           0        3.356728   -3.101891    0.715447
    104          6           0        2.248845   -3.850166    0.571855
    105          6           0        2.393809   -5.179577    1.273312
    106          6           0        3.928120   -5.266768    1.715895
    107          6           0        4.404896   -3.872883    1.252061
    108          6           0        1.499332   -5.388073    2.495133
    109          6           0        4.725874   -6.514509    1.247491
    110          6           0        4.897413   -6.483590   -0.254173
    111          7           0        5.634870   -1.299430    0.401503
    112          6           0        6.256619   -2.259367    1.229763
    113          6           0        7.573080   -1.712572    1.617542
    114          6           0        7.616654   -0.452614    1.001833
    115          6           0        6.404049   -0.221424    0.297813
    116          6           0        8.517374   -2.345854    2.473913
    117          6           0        8.408375    0.738838    0.796137
    118          8           0        9.556827    1.078132    1.078395
    119          6           0        7.481758    1.855594    0.147575
    120          6           0        8.224603    2.459196   -1.012747
    121          8           0        8.491452    1.775664   -2.016827
    122          8           0        8.305140    3.791075   -0.839554
    123          6           0        9.023981    4.436093   -1.970496
    124          1           0        0.712986    1.876203   -1.386153
    125          1           0        0.498699   -4.252411   -0.200537
    126          1           0        6.331800   -4.064216    2.117696
    127          1           0        5.158004    3.848824   -0.534827
    128          1           0        2.602011    3.620284   -1.697470
    129          1           0        3.540466    3.681501    1.140783
    130          1           0        2.029200    2.787150    0.875287
    131          1           0        2.085213    4.461585    0.414023
    132          1           0        4.249602    2.852275   -3.245456
    133          1           0        6.002995    2.754904   -2.843804
    134          1           0        5.114089    5.400492   -2.279727
    135          1           0        4.180199    4.899617   -3.644218
    136          1           0       -0.935568    1.270283   -2.550578
    137          1           0       -2.142443    0.091282   -2.159952
    138          1           0       -1.330923   -0.043022   -3.737976
    139          1           0       -2.872452   -1.949103   -2.688452
    140          1           0       -2.871349   -3.674957   -3.372658
    141          1           0       -1.837153   -2.376735   -4.034855
    142          1           0        2.175505   -5.998504    0.598928
    143          1           0        4.035937   -5.287663    2.810324
    144          1           0        0.855409   -6.284347    2.416820
    145          1           0        0.898470   -4.499122    2.633963
    146          1           0        2.025410   -5.462055    3.445381
    147          1           0        4.170869   -7.427251    1.477754
    148          1           0        5.701003   -6.604067    1.714516
    149          1           0        3.955233   -6.903550   -0.618881
    150          1           0        5.745193   -7.095535   -0.555582
    151          1           0        4.963044   -5.452918   -0.621668
    152          1           0        9.489307   -2.213730    2.017394
    153          1           0        8.283074   -3.399024    2.614300
    154          1           0        8.369433   -1.766843    3.389403
    155          1           0        7.264846    2.591885    0.922433
    156          1           0        9.852338    5.006371   -1.538879
    157          1           0        8.255940    5.005917   -2.526531
    158          1           0        9.550322    3.790159   -2.663447
 ---------------------------------------------------------------------

 SCF Done:  E(RCAM-B3LYP) =  -4069.77002599     A.U. after   18 cycles

 Excitation energies and oscillator strengths:

 Excited State   1:      Singlet-A      1.5967 eV  776.51 nm  f=0.2618  <S**2>=0.000
     309 -> 315       -0.12261
     311 -> 313        0.53888
     312 -> 313       -0.14843
     312 -> 314       -0.39610
 This state for optimization and/or second-order correction.
 Total Energy, E(TD-HF/TD-DFT) =  -4069.71134922
 Copying the excited state density for this state as the 1-particle RhoCI density.

 Excited State   2:      Singlet-A      1.6963 eV  730.92 nm  f=0.5012  <S**2>=0.000
     309 -> 315       -0.10875
     310 -> 316        0.13984
     311 -> 313        0.41224
     312 -> 314        0.54154

 Excited State   3:      Singlet-A      2.0396 eV  607.88 nm  f=0.0013  <S**2>=0.000
     312 -> 313        0.68325
     312 -> 314       -0.13840

 Excited State   4:      Singlet-A      2.1787 eV  569.08 nm  f=0.0102  <S**2>=0.000
     309 -> 313        0.34870
     310 -> 313        0.10315
     310 -> 314        0.53023
     311 -> 315        0.14900
     312 -> 316       -0.21768

 Excited State   5:      Singlet-A      2.2041 eV  562.52 nm  f=0.1393  <S**2>=0.000
     309 -> 313        0.51845
     310 -> 314       -0.34046
     311 -> 315        0.24631
     312 -> 316        0.15087

 The electronic state is 1-A.
 Alpha  occ. eigenvalues --  -46.88422 -46.87243 -19.26798 -19.26059 -19.19589
 Alpha  occ. eigenvalues --  -19.19369 -19.18855 -19.18512 -19.17972 -19.17667
 Alpha  occ. eigenvalues --  -14.42968 -14.42046 -14.41918 -14.40969 -14.40458
 Alpha  occ. eigenvalues --  -14.38973 -14.38931 -14.38187 -10.39616 -10.38776
 Alpha  occ. eigenvalues --  -10.36476 -10.34749 -10.34473 -10.33847 -10.32183
 Alpha  occ. eigenvalues --  -10.32056 -10.31517 -10.31436 -10.31381 -10.31096
 Alpha  occ. eigenvalues --  -10.30847 -10.30564 -10.30502 -10.30402 -10.30348
 Alpha  occ. eigenvalues --  -10.29985 -10.29954 -10.29738 -10.29576 -10.29540
 Alpha  occ. eigenvalues --  -10.29334 -10.29207 -10.28996 -10.28962 -10.28755
 Alpha  occ. eigenvalues --  -10.28689 -10.28513 -10.28403 -10.28290 -10.28234
 Alpha  occ. eigenvalues --  -10.28166 -10.28131 -10.27971 -10.27826 -10.27616
 Alpha  occ. eigenvalues --  -10.27585 -10.27576 -10.27546 -10.27523 -10.27459
 Alpha  occ. eigenvalues --  -10.27231 -10.27184 -10.27151 -10.27115 -10.27059
 Alpha  occ. eigenvalues --  -10.27024 -10.26743 -10.26725 -10.26669 -10.26384
 Alpha  occ. eigenvalues --  -10.26346 -10.26110 -10.26104 -10.25893 -10.25564
 Alpha  occ. eigenvalues --  -10.25545 -10.25506 -10.25314 -10.25224 -10.25169
 Alpha  occ. eigenvalues --  -10.25005 -10.24492 -10.24454 -10.24361 -10.24356
 Alpha  occ. eigenvalues --  -10.24306  -3.17161  -3.15993  -1.92042  -1.91625
 Alpha  occ. eigenvalues --   -1.91476  -1.90876  -1.90464  -1.90301  -1.17152
 Alpha  occ. eigenvalues --   -1.16349  -1.08983  -1.08347  -1.08286  -1.07180
 Alpha  occ. eigenvalues --   -1.06639  -1.06191  -1.05263  -1.04530  -1.04044
 Alpha  occ. eigenvalues --   -1.03799  -1.03243  -1.02874  -1.02639  -1.01699
 Alpha  occ. eigenvalues --   -0.92397  -0.91573  -0.89871  -0.89738  -0.89146
 Alpha  occ. eigenvalues --   -0.88679  -0.88620  -0.88439  -0.88211  -0.88166
 Alpha  occ. eigenvalues --   -0.87902  -0.87399  -0.87256  -0.86556  -0.85703
 Alpha  occ. eigenvalues --   -0.84514  -0.84174  -0.83679  -0.83576  -0.83154
 Alpha  occ. eigenvalues --   -0.82469  -0.82237  -0.81933  -0.81256  -0.81076
 Alpha  occ. eigenvalues --   -0.80104  -0.79417  -0.78150  -0.77677  -0.77331
 Alpha  occ. eigenvalues --   -0.76728  -0.76495  -0.76436  -0.75347  -0.75188
 Alpha  occ. eigenvalues --   -0.74472  -0.73231  -0.72284  -0.72134  -0.71153
 Alpha  occ. eigenvalues --   -0.70063  -0.69561  -0.69454  -0.68482  -0.68254
 Alpha  occ. eigenvalues --   -0.67959  -0.67193  -0.66789  -0.65825  -0.65317
 Alpha  occ. eigenvalues --   -0.65182  -0.64843  -0.64522  -0.64379  -0.64261
 Alpha  occ. eigenvalues --   -0.63856  -0.62752  -0.61940  -0.61226  -0.60374
 Alpha  occ. eigenvalues --   -0.60257  -0.59452  -0.59328  -0.59005  -0.58610
 Alpha  occ. eigenvalues --   -0.58049  -0.58021  -0.57752  -0.57224  -0.57124
 Alpha  occ. eigenvalues --   -0.56854  -0.56505  -0.56134  -0.55823  -0.55694
 Alpha  occ. eigenvalues --   -0.55561  -0.55394  -0.54947  -0.54796  -0.54506
 Alpha  occ. eigenvalues --   -0.54229  -0.53980  -0.53750  -0.53688  -0.53598
 Alpha  occ. eigenvalues --   -0.53341  -0.53285  -0.52778  -0.52705  -0.52511
 Alpha  occ. eigenvalues --   -0.52443  -0.52278  -0.52179  -0.52125  -0.51673
 Alpha  occ. eigenvalues --   -0.51567  -0.51502  -0.51231  -0.50861  -0.50568
 Alpha  occ. eigenvalues --   -0.50275  -0.50270  -0.49917  -0.49692  -0.49582
 Alpha  occ. eigenvalues --   -0.49545  -0.49339  -0.49176  -0.48935  -0.48810
 Alpha  occ. eigenvalues --   -0.48758  -0.48669  -0.48542  -0.48149  -0.48054
 Alpha  occ. eigenvalues --   -0.47903  -0.47766  -0.47385  -0.47197  -0.47148
 Alpha  occ. eigenvalues --   -0.47098  -0.46976  -0.46571  -0.46397  -0.46272
 Alpha  occ. eigenvalues --   -0.46208  -0.46138  -0.45795  -0.45558  -0.45446
 Alpha  occ. eigenvalues --   -0.45405  -0.45125  -0.44923  -0.44848  -0.44694
 Alpha  occ. eigenvalues --   -0.44544  -0.44386  -0.44332  -0.44152  -0.43948
 Alpha  occ. eigenvalues --   -0.43790  -0.43769  -0.43641  -0.43633  -0.43513
 Alpha  occ. eigenvalues --   -0.43204  -0.43150  -0.42956  -0.42870  -0.42595
 Alpha  occ. eigenvalues --   -0.42490  -0.42283  -0.42189  -0.42098  -0.41930
 Alpha  occ. eigenvalues --   -0.41649  -0.41610  -0.41317  -0.41258  -0.41074
 Alpha  occ. eigenvalues --   -0.40967  -0.40728  -0.40611  -0.40372  -0.40141
 Alpha  occ. eigenvalues --   -0.40102  -0.39835  -0.39426  -0.39134  -0.38768
 Alpha  occ. eigenvalues --   -0.38675  -0.38398  -0.38016  -0.37909  -0.37507
 Alpha  occ. eigenvalues --   -0.37237  -0.37160  -0.36879  -0.36720  -0.36513
 Alpha  occ. eigenvalues --   -0.36441  -0.35847  -0.34672  -0.34269  -0.33838
 Alpha  occ. eigenvalues --   -0.33535  -0.33409  -0.32762  -0.32104  -0.31566
 Alpha  occ. eigenvalues --   -0.30929  -0.30585  -0.30383  -0.29732  -0.29691
 Alpha  occ. eigenvalues --   -0.29576  -0.28885  -0.28792  -0.24615  -0.23622
 Alpha  occ. eigenvalues --   -0.21487  -0.20688
 Alpha virt. eigenvalues --   -0.09205  -0.08343  -0.02600  -0.01285  -0.00890
 Alpha virt. eigenvalues --    0.00513   0.01749   0.02622   0.02835   0.03643
 Alpha virt. eigenvalues --    0.04103   0.04497   0.05081   0.05468   0.05525

 Mulliken charges:
               1
     1  Mg   0.822179
     2  C   -0.003972
     3  C   -0.095374
     4  C   -0.005324
     5  C   -0.059783
     6  N   -0.256098
     7  C   -0.055092
     8  C   -0.012176
     9  C   -0.086383
    10  C    0.041428
    11  C    0.104356
    12  C    0.048400
    13  C   -0.071304
    14  H    0.034809
    15  N   -0.451771
    16  C    0.159813
    17  C   -0.165814
    18  C   -0.018476
    19  C    0.093904
    20  C    0.114141
    21  C   -0.008161
    22  O   -0.243368
    23  C    0.096742
    24  N   -0.338471
    25  C    0.034425
    26  C   -0.029035
    27  C   -0.024726
    28  C    0.077024
    29  C    0.075772
    30  C    0.037385
    31  C   -0.014538
    32  N   -0.307078
    33  C    0.078582
    34  C   -0.168353
    35  C    0.008181
    36  C    0.083418
    37  C    0.127038
    38  C    0.046509
    39  O   -0.187705
    40  C   -0.006177
    41  C    0.213794
    42  O   -0.259266
    43  O   -0.303963
    44  C    0.156808
    45  H   -0.017772
    46  H   -0.014893
    47  H   -0.040080
    48  H    0.002282
    49  H   -0.004141
    50  H    0.026729
    51  H    0.017868
    52  H    0.017848
    53  H    0.009966
    54  H    0.042448
    55  H    0.020428
    56  H    0.018504
    57  H    0.006490
    58  H    0.029667
    59  H    0.035966
    60  H    0.038881
    61  H    0.041282
    62  H    0.019928
    63  H    0.026827
    64  H    0.009202
    65  H    0.025343
    66  H    0.011447
    67  H    0.005001
    68  H    0.006181
    69  H    0.002164
    70  H    0.020734
    71  H    0.019188
    72  H    0.031907
    73  H    0.048222
    74  H    0.010162
    75  H    0.046468
    76  H    0.036040
    77  H    0.044977
    78  H    0.045910
    79  H    0.053122
    80  Mg   0.837990
    81  C   -0.017001
    82  C   -0.089423
    83  C   -0.048377
    84  C   -0.065200
    85  N   -0.254894
    86  C   -0.048886
    87  C   -0.015168
    88  C   -0.090770
    89  C    0.045951
    90  C    0.114804
    91  C    0.062986
    92  C   -0.076477
    93  H    0.032511
    94  N   -0.423544
    95  C    0.166834
    96  C   -0.197689
    97  C    0.001963
    98  C    0.150238
    99  C    0.118589
   100  C    0.037072
   101  O   -0.253557
   102  C    0.013026
   103  N   -0.349825
   104  C    0.037420
   105  C   -0.018991
   106  C   -0.034740
   107  C    0.088503
   108  C    0.069721
   109  C    0.035097
   110  C   -0.007482
   111  N   -0.323849
   112  C    0.077841
   113  C   -0.163905
   114  C    0.002018
   115  C    0.095833
   116  C    0.131584
   117  C    0.041795
   118  O   -0.189417
   119  C    0.001088
   120  C    0.211052
   121  O   -0.251768
   122  O   -0.305335
   123  C    0.152464
   124  H   -0.014721
   125  H   -0.015413
   126  H   -0.041696
   127  H   -0.001058
   128  H   -0.007637
   129  H    0.019703
   130  H    0.024409
   131  H    0.021093
   132  H    0.012520
   133  H    0.036730
   134  H    0.020766
   135  H    0.017887
   136  H    0.001545
   137  H    0.061337
   138  H    0.027153
   139  H    0.058266
   140  H    0.069493
   141  H    0.016887
   142  H    0.013852
   143  H    0.011549
   144  H    0.023385
   145  H    0.016653
   146  H    0.004069
   147  H    0.004966
   148  H    0.003212
   149  H    0.010634
   150  H    0.017087
   151  H    0.030703
   152  H    0.044967
   153  H    0.007538
   154  H    0.046638
   155  H    0.035621
   156  H    0.043237
   157  H    0.049053
   158  H    0.052893
 Sum of Mulliken charges =  -0.00000

 Dipole moment (field-independent basis, Debye):
    X=             -7.3585    Y=              2.3469    Z=             -3.9129  Tot=              8.6584
 Quadrupole moment (field-independent basis, Debye-Ang):
   XX=           -550.8547   YY=           -483.9990   ZZ=           -498.0231
   XY=            -14.3925   XZ=             14.5799   YZ=            -53.6195

 Normal termination of Gaussian 16 at Thu Sep  9 09:43:36 2021.
