 Gaussian 16, Revision A.03,
 Gaussian 16:  ES64L-G16RevA.03 25-Dec-2016

 -----------------------------------
 #p cam-b3lyp/Def2SVP td=(nstates=5)
 -----------------------------------

 --------------------------------
 TDDFT excited states in gaussian
 --------------------------------
 Symbolic Z-matrix:
 Charge =  0 Multiplicity = 1

                         Standard orientation:
 ---------------------------------------------------------------------
 Center     Atomic      Atomic             Coordinates (Angstroms)
 Number     Number       Type             X           Y           Z
 ---------------------------------------------------------------------
      1         12           0       -4.330731    0.462655   -0.957772
      2          6           0       -4.818432   -2.579999    0.863387
      3          6           0       -5.840920    2.083592    1.637408
      4          6           0       -4.322228    3.088757   -2.735449
      5          6           0       -3.915191   -1.487674   -3.815954
      6          7           0       -5.177787   -0.265256    0.953586
      7          6           0       -5.247990   -1.447104    1.558134
      8          6           0       -5.751453   -1.359259    3.029930
      9          6           0       -6.552344    0.016439    2.940328
     10          6           0       -5.790487    0.667153    1.799245
     11          6           0       -8.009918   -0.153118    2.524120
     12          6           0       -4.573002   -1.270252    4.057093
     13          6           0       -4.961129   -1.509314    5.519133
     14          1           0       -4.021796   -2.201022    6.388927
     15          7           0       -4.529937    2.359353   -0.442309
     16          6           0       -5.160714    2.837873    0.656975
     17          6           0       -5.036129    4.309835    0.590002
     18          6           0       -4.447414    4.656913   -0.733269
     19          6           0       -4.433752    3.367334   -1.375279
     20          6           0       -5.407898    5.219352    1.720629
     21          6           0       -3.982224    5.947939   -1.329074
     22          8           0       -3.720185    6.066805   -2.574779
     23          6           0       -3.925386    7.107777   -0.421006
     24          7           0       -4.363969    0.781211   -3.020549
     25          6           0       -4.293995    2.016238   -3.529270
     26          6           0       -4.049028    1.984268   -5.008766
     27          6           0       -3.722272    0.463577   -5.369987
     28          6           0       -3.928493   -0.161509   -3.968198
     29          6           0       -5.203972    2.481122   -5.889250
     30          6           0       -2.390453    0.187612   -6.111957
     31          6           0       -1.222648    0.490430   -5.200019
     32          7           0       -4.179936   -1.657057   -1.399503
     33          6           0       -4.031755   -2.246477   -2.663347
     34          6           0       -4.086628   -3.706923   -2.468012
     35          6           0       -4.280782   -3.866340   -1.097342
     36          6           0       -4.369493   -2.586225   -0.479500
     37          6           0       -4.020562   -4.688281   -3.496119
     38          6           0       -4.458569   -4.820085   -0.014467
     39          8           0       -4.384563   -6.045912    0.082314
     40          6           0       -4.935471   -4.025019    1.280238
     41          6           0       -4.094891   -4.493558    2.436613
     42          8           0       -2.872442   -4.246442    2.480417
     43          8           0       -4.895608   -4.946033    3.413681
     44          6           0       -4.125685   -5.399098    4.602843
     45          1           0       -6.505747    2.664851    2.279346
     46          1           0       -4.205087    3.967918   -3.372468
     47          1           0       -3.708369   -2.160730   -4.650024
     48          1           0       -6.424493   -2.163075    3.328794
     49          1           0       -6.449380    0.607282    3.850286
     50          1           0       -8.223837   -1.181153    2.232051
     51          1           0       -8.151341    0.520180    1.678447
     52          1           0       -8.680195    0.203683    3.306551
     53          1           0       -4.230491   -0.237555    4.122543
     54          1           0       -3.768514   -1.952974    3.781384
     55          1           0       -5.954252   -1.952007    5.600599
     56          1           0       -5.055166   -0.540751    6.010297
     57          1           0       -5.964579    4.690726    2.493421
     58          1           0       -6.116601    5.946392    1.324572
     59          1           0       -4.541608    5.737172    2.132618
     60          1           0       -4.917470    7.289889   -0.007301
     61          1           0       -3.486247    7.920532   -0.998445
     62          1           0       -3.280997    6.863404    0.423976
     63          1           0       -3.196291    2.606407   -5.277484
     64          1           0       -4.482608    0.024206   -6.016141
     65          1           0       -4.927272    3.300493   -6.553158
     66          1           0       -6.026782    2.768514   -5.235277
     67          1           0       -5.673449    1.713252   -6.503564
     68          1           0       -2.297509    0.840018   -6.979525
     69          1           0       -2.296469   -0.841384   -6.459209
     70          1           0       -1.096873    1.566469   -5.314702
     71          1           0       -0.332123   -0.044314   -5.532022
     72          1           0       -1.473242    0.301086   -4.156066
     73          1           0       -3.356245   -5.470476   -3.128938
     74          1           0       -3.651983   -4.260903   -4.428375
     75          1           0       -5.067068   -4.986287   -3.558365
     76          1           0       -5.990579   -4.257997    1.420208
     77          1           0       -4.417486   -6.430667    4.800205
     78          1           0       -4.305487   -4.663530    5.387072
     79          1           0       -3.049667   -5.512198    4.465981
     80         12           0        4.466698    0.773177    0.930941
     81          6           0        4.879834   -1.786055   -1.550743
     82          6           0        3.214158   -1.637644    2.993378
     83          6           0        3.673379    3.070384    2.970775
     84          6           0        4.661273    3.110334   -1.646956
     85          7           0        4.139865   -1.395552    0.644479
     86          6           0        4.391963   -2.269148   -0.318659
     87          6           0        4.180939   -3.752525    0.087056
     88          6           0        3.138141   -3.527509    1.287400
     89          6           0        3.539154   -2.111976    1.697438
     90          6           0        1.689586   -3.499672    0.828889
     91          6           0        5.503568   -4.427472    0.594136
     92          6           0        5.442719   -5.951852    0.713765
     93          1           0        6.643675   -6.722800    0.404245
     94          7           0        4.038759    0.680412    2.866615
     95          6           0        3.560714   -0.384315    3.544183
     96          6           0        3.394512    0.065431    4.934969
     97          6           0        3.657347    1.529225    4.989183
     98          6           0        3.782413    1.827089    3.576482
     99          6           0        3.098603   -0.877215    6.065131
    100          6           0        3.764117    2.502481    6.123898
    101          8           0        3.761508    3.769014    5.927178
    102          6           0        3.777725    1.931206    7.478509
    103          7           0        3.992761    2.781586    0.677970
    104          6           0        3.737732    3.570383    1.736600
    105          6           0        3.695200    5.025471    1.334981
    106          6           0        4.216386    5.069445   -0.176304
    107          6           0        4.393197    3.555765   -0.427161
    108          6           0        2.325976    5.699467    1.420662
    109          6           0        5.411286    6.013780   -0.481488
    110          6           0        6.659733    5.503747    0.201613
    111          7           0        4.905860    0.723207   -1.183940
    112          6           0        4.907584    1.813982   -2.080758
    113          6           0        5.151000    1.266868   -3.431254
    114          6           0        5.251907   -0.117690   -3.227978
    115          6           0        5.063183   -0.414584   -1.851124
    116          6           0        5.203016    2.020980   -4.637378
    117          6           0        5.464585   -1.396578   -3.866644
    118          8           0        5.764158   -1.760965   -5.002964
    119          6           0        5.107384   -2.545659   -2.828179
    120          6           0        6.220663   -3.556859   -2.853211
    121          8           0        7.362191   -3.249828   -2.466902
    122          8           0        5.706982   -4.771189   -3.121339
    123          6           0        6.771214   -5.809768   -3.145915
    124          1           0        2.599003   -2.267042    3.637070
    125          1           0        3.510189    3.912047    3.647854
    126          1           0        4.833455    3.783495   -2.489502
    127          1           0        3.735956   -4.374473   -0.680369
    128          1           0        3.316416   -4.225235    2.101498
    129          1           0        1.607345   -3.517786   -0.247707
    130          1           0        1.273306   -2.582580    1.224752
    131          1           0        1.129494   -4.312709    1.299622
    132          1           0        5.659662   -4.162406    1.647766
    133          1           0        6.335309   -4.146281   -0.022099
    134          1           0        4.572274   -6.371605    0.195038
    135          1           0        5.280470   -6.211411    1.762727
    136          1           0        2.795653   -1.864921    5.696284
    137          1           0        2.209171   -0.493800    6.576768
    138          1           0        3.918378   -0.943914    6.783604
    139          1           0        2.869383    1.354622    7.636412
    140          1           0        3.949144    2.774936    8.149782
    141          1           0        4.614203    1.227366    7.552987
    142          1           0        4.359470    5.616843    1.953144
    143          1           0        3.432968    5.413147   -0.867651
    144          1           0        2.320371    6.595424    2.069751
    145          1           0        1.608107    4.970496    1.772533
    146          1           0        1.899355    6.001517    0.465696
    147          1           0        5.220066    7.009978   -0.075070
    148          1           0        5.609303    6.131050   -1.541688
    149          1           0        6.562241    5.895574    1.218499
    150          1           0        7.550318    5.892984   -0.287657
    151          1           0        6.653016    4.409569    0.267910
    152          1           0        6.045166    1.645433   -5.203290
    153          1           0        5.301036    3.085796   -4.436595
    154          1           0        4.228245    1.771970   -5.065275
    155          1           0        4.154112   -2.978636   -3.133747
    156          1           0        6.706962   -6.310127   -4.117110
    157          1           0        6.602541   -6.431680   -2.246737
    158          1           0        7.800996   -5.472161   -3.149657
 ---------------------------------------------------------------------

 SCF Done:  E(RCAM-B3LYP) =  -4069.81298081     A.U. after   19 cycles

 Excitation energies and oscillator strengths:

 Excited State   1:      Singlet-A      1.6667 eV  743.90 nm  f=0.2538  <S**2>=0.000
     310 -> 316        0.14248
     311 -> 313       -0.37469
     312 -> 314        0.57509
 This state for optimization and/or second-order correction.
 Total Energy, E(TD-HF/TD-DFT) =  -4069.75173159
 Copying the excited state density for this state as the 1-particle RhoCI density.

 Excited State   2:      Singlet-A      1.6796 eV  738.16 nm  f=0.4216  <S**2>=0.000
     309 -> 315        0.14733
     311 -> 313        0.57414
     312 -> 314        0.37407

 Excited State   3:      Singlet-A      2.1826 eV  568.05 nm  f=0.0903  <S**2>=0.000
     309 -> 313       -0.15887
     310 -> 314        0.62358
     312 -> 316       -0.26000

 Excited State   4:      Singlet-A      2.1936 eV  565.20 nm  f=0.1054  <S**2>=0.000
     309 -> 313        0.62070
     310 -> 314        0.15732
     311 -> 315       -0.27006

 Excited State   5:      Singlet-A      2.3294 eV  532.27 nm  f=0.0000  <S**2>=0.000
     312 -> 313        0.70707

 The electronic state is 1-A.
 Alpha  occ. eigenvalues --  -46.87935 -46.87407 -19.26654 -19.26105 -19.19422
 Alpha  occ. eigenvalues --  -19.18943 -19.18923 -19.18574 -19.18380 -19.17841
 Alpha  occ. eigenvalues --  -14.42595 -14.42193 -14.41575 -14.41119 -14.39539
 Alpha  occ. eigenvalues --  -14.39108 -14.38737 -14.38356 -10.39454 -10.38850
 Alpha  occ. eigenvalues --  -10.35573 -10.35256 -10.34606 -10.34013 -10.32077
 Alpha  occ. eigenvalues --  -10.31564 -10.31520 -10.31068 -10.30966 -10.30721
 Alpha  occ. eigenvalues --  -10.30716 -10.30649 -10.30308 -10.30181 -10.30104
 Alpha  occ. eigenvalues --  -10.30049 -10.29912 -10.29775 -10.29686 -10.29380
 Alpha  occ. eigenvalues --  -10.29195 -10.29187 -10.28947 -10.28813 -10.28522
 Alpha  occ. eigenvalues --  -10.28286 -10.28276 -10.28270 -10.28152 -10.27940
 Alpha  occ. eigenvalues --  -10.27864 -10.27767 -10.27723 -10.27575 -10.27568
 Alpha  occ. eigenvalues --  -10.27561 -10.27554 -10.27521 -10.27399 -10.27340
 Alpha  occ. eigenvalues --  -10.27337 -10.27261 -10.27258 -10.27232 -10.27218
 Alpha  occ. eigenvalues --  -10.26957 -10.26805 -10.26517 -10.26384 -10.26321
 Alpha  occ. eigenvalues --  -10.26317 -10.26178 -10.26134 -10.25987 -10.25977
 Alpha  occ. eigenvalues --  -10.25697 -10.25676 -10.25499 -10.25322 -10.25068
 Alpha  occ. eigenvalues --  -10.24993 -10.24921 -10.24660 -10.24642 -10.24590
 Alpha  occ. eigenvalues --  -10.24471  -3.16677  -3.16157  -1.91559  -1.91145
 Alpha  occ. eigenvalues --   -1.91040  -1.90988  -1.90628  -1.90465  -1.17003
 Alpha  occ. eigenvalues --   -1.16400  -1.08854  -1.08450  -1.07343  -1.07027
 Alpha  occ. eigenvalues --   -1.06833  -1.06709  -1.04732  -1.04195  -1.03893
 Alpha  occ. eigenvalues --   -1.03405  -1.03373  -1.02805  -1.02550  -1.01867
 Alpha  occ. eigenvalues --   -0.92150  -0.91728  -0.89617  -0.89368  -0.89285
 Alpha  occ. eigenvalues --   -0.88673  -0.88377  -0.88031  -0.88017  -0.87820
 Alpha  occ. eigenvalues --   -0.87570  -0.87398  -0.87389  -0.86928  -0.85161
 Alpha  occ. eigenvalues --   -0.84625  -0.84029  -0.83705  -0.83074  -0.82824
 Alpha  occ. eigenvalues --   -0.82775  -0.82318  -0.81820  -0.81342  -0.80777
 Alpha  occ. eigenvalues --   -0.80192  -0.78928  -0.78414  -0.77357  -0.77121
 Alpha  occ. eigenvalues --   -0.76878  -0.76565  -0.76112  -0.75446  -0.75011
 Alpha  occ. eigenvalues --   -0.74597  -0.72911  -0.72444  -0.71820  -0.71273
 Alpha  occ. eigenvalues --   -0.69961  -0.69572  -0.69043  -0.68479  -0.67800
 Alpha  occ. eigenvalues --   -0.67406  -0.67373  -0.66897  -0.65473  -0.65035
 Alpha  occ. eigenvalues --   -0.64925  -0.64785  -0.64511  -0.64372  -0.64358
 Alpha  occ. eigenvalues --   -0.63990  -0.62546  -0.62039  -0.60561  -0.60145
 Alpha  occ. eigenvalues --   -0.59973  -0.59410  -0.59139  -0.58739  -0.58665
 Alpha  occ. eigenvalues --   -0.58182  -0.57832  -0.57446  -0.57314  -0.57035
 Alpha  occ. eigenvalues --   -0.56479  -0.56243  -0.55959  -0.55676  -0.55627
 Alpha  occ. eigenvalues --   -0.55496  -0.55218  -0.55047  -0.54710  -0.54280
 Alpha  occ. eigenvalues --   -0.54083  -0.53470  -0.53438  -0.53399  -0.53127
 Alpha  occ. eigenvalues --   -0.53006  -0.52898  -0.52879  -0.52636  -0.52486
 Alpha  occ. eigenvalues --   -0.52364  -0.52226  -0.52069  -0.51802  -0.51685
 Alpha  occ. eigenvalues --   -0.51361  -0.51331  -0.50947  -0.50676  -0.50293
 Alpha  occ. eigenvalues --   -0.50125  -0.50041  -0.49752  -0.49686  -0.49621
 Alpha  occ. eigenvalues --   -0.49392  -0.49275  -0.49183  -0.48931  -0.48799
 Alpha  occ. eigenvalues --   -0.48680  -0.48619  -0.48568  -0.48243  -0.48201
 Alpha  occ. eigenvalues --   -0.48115  -0.47845  -0.47438  -0.47310  -0.46933
 Alpha  occ. eigenvalues --   -0.46894  -0.46744  -0.46510  -0.46440  -0.46313
 Alpha  occ. eigenvalues --   -0.46158  -0.46039  -0.46028  -0.45878  -0.45555
 Alpha  occ. eigenvalues --   -0.45303  -0.45021  -0.44772  -0.44644  -0.44303
 Alpha  occ. eigenvalues --   -0.44284  -0.44231  -0.44183  -0.44168  -0.43884
 Alpha  occ. eigenvalues --   -0.43742  -0.43718  -0.43671  -0.43534  -0.43300
 Alpha  occ. eigenvalues --   -0.43184  -0.43069  -0.43000  -0.42742  -0.42691
 Alpha  occ. eigenvalues --   -0.42640  -0.42359  -0.42133  -0.41867  -0.41724
 Alpha  occ. eigenvalues --   -0.41705  -0.41411  -0.41291  -0.41128  -0.41024
 Alpha  occ. eigenvalues --   -0.40963  -0.40666  -0.40661  -0.40516  -0.40443
 Alpha  occ. eigenvalues --   -0.40386  -0.40165  -0.39864  -0.39485  -0.39246
 Alpha  occ. eigenvalues --   -0.38572  -0.38129  -0.37959  -0.37448  -0.37429
 Alpha  occ. eigenvalues --   -0.37324  -0.37022  -0.37012  -0.36859  -0.36541
 Alpha  occ. eigenvalues --   -0.36370  -0.35969  -0.34436  -0.34127  -0.33993
 Alpha  occ. eigenvalues --   -0.33624  -0.33340  -0.32925  -0.31473  -0.31186
 Alpha  occ. eigenvalues --   -0.31130  -0.30709  -0.30246  -0.29743  -0.29591
 Alpha  occ. eigenvalues --   -0.29476  -0.29117  -0.28988  -0.24226  -0.23778
 Alpha  occ. eigenvalues --   -0.21265  -0.20859
 Alpha virt. eigenvalues --   -0.08917  -0.08555  -0.01882  -0.01443  -0.00204
 Alpha virt. eigenvalues --    0.00204   0.02029   0.02412   0.02842   0.03515
 Alpha virt. eigenvalues --    0.04549   0.04753   0.05070   0.05408   0.05938

 Mulliken charges:
               1
     1  Mg   0.838960
     2  C   -0.004102
     3  C   -0.093871
     4  C   -0.045629
     5  C   -0.063414
     6  N   -0.256869
     7  C   -0.052655
     8  C   -0.014103
     9  C   -0.087114
    10  C    0.046377
    11  C    0.104701
    12  C    0.053512
    13  C   -0.071278
    14  H    0.033383
    15  N   -0.433240
    16  C    0.168837
    17  C   -0.176617
    18  C   -0.003708
    19  C    0.148935
    20  C    0.109962
    21  C    0.012097
    22  O   -0.249517
    23  C    0.062260
    24  N   -0.341213
    25  C    0.041645
    26  C   -0.028275
    27  C   -0.024081
    28  C    0.074876
    29  C    0.076081
    30  C    0.034981
    31  C   -0.005116
    32  N   -0.310201
    33  C    0.079904
    34  C   -0.170158
    35  C    0.007728
    36  C    0.082377
    37  C    0.127494
    38  C    0.044809
    39  O   -0.189528
    40  C   -0.005006
    41  C    0.213570
    42  O   -0.260884
    43  O   -0.303697
    44  C    0.158391
    45  H   -0.017263
    46  H   -0.016499
    47  H   -0.040714
    48  H    0.000802
    49  H   -0.003780
    50  H    0.025484
    51  H    0.016859
    52  H    0.017000
    53  H    0.012076
    54  H    0.041856
    55  H    0.018549
    56  H    0.018917
    57  H    0.006129
    58  H    0.027109
    59  H    0.040668
    60  H    0.037785
    61  H    0.035550
    62  H    0.031953
    63  H    0.016787
    64  H    0.009747
    65  H    0.023533
    66  H    0.012389
    67  H    0.005167
    68  H    0.006961
    69  H    0.005618
    70  H    0.008076
    71  H    0.021006
    72  H    0.028209
    73  H    0.046547
    74  H    0.010154
    75  H    0.046283
    76  H    0.035676
    77  H    0.043627
    78  H    0.046921
    79  H    0.050607
    80  Mg   0.837222
    81  C   -0.016981
    82  C   -0.086967
    83  C   -0.046638
    84  C   -0.065095
    85  N   -0.255104
    86  C   -0.048667
    87  C   -0.015319
    88  C   -0.090350
    89  C    0.045372
    90  C    0.113678
    91  C    0.062355
    92  C   -0.077504
    93  H    0.032834
    94  N   -0.423547
    95  C    0.162728
    96  C   -0.174213
    97  C   -0.008954
    98  C    0.152597
    99  C    0.099528
   100  C    0.014842
   101  O   -0.254469
   102  C    0.061482
   103  N   -0.350230
   104  C    0.037596
   105  C   -0.019617
   106  C   -0.035069
   107  C    0.088842
   108  C    0.073640
   109  C    0.034949
   110  C   -0.007534
   111  N   -0.323982
   112  C    0.078277
   113  C   -0.163671
   114  C    0.001866
   115  C    0.096147
   116  C    0.131624
   117  C    0.041472
   118  O   -0.189135
   119  C    0.001422
   120  C    0.211269
   121  O   -0.251403
   122  O   -0.305268
   123  C    0.152268
   124  H   -0.015467
   125  H   -0.017118
   126  H   -0.040945
   127  H    0.000234
   128  H   -0.004712
   129  H    0.020666
   130  H    0.016377
   131  H    0.029321
   132  H    0.013120
   133  H    0.036399
   134  H    0.022608
   135  H    0.019722
   136  H    0.010264
   137  H    0.024898
   138  H    0.038928
   139  H    0.037525
   140  H    0.035319
   141  H    0.034097
   142  H    0.013746
   143  H    0.013220
   144  H    0.023299
   145  H    0.010379
   146  H    0.006445
   147  H    0.005487
   148  H    0.003691
   149  H    0.010399
   150  H    0.017487
   151  H    0.030502
   152  H    0.045394
   153  H    0.008344
   154  H    0.045948
   155  H    0.035255
   156  H    0.043250
   157  H    0.050247
   158  H    0.052981
 Sum of Mulliken charges =  -0.00000

 Dipole moment (field-independent basis, Debye):
    X=             -5.5788    Y=              1.3650    Z=              4.9848  Tot=              7.6049
 Quadrupole moment (field-independent basis, Debye-Ang):
   XX=           -518.5793   YY=           -511.8844   ZZ=           -489.0140
   XY=            -17.1659   XZ=              0.4717   YZ=            -14.5057

 Normal termination of Gaussian 16 at Sat Sep  4 00:41:32 2021.
