 Gaussian 16, Revision A.03,
 Gaussian 16:  ES64L-G16RevA.03 25-Dec-2016

 -----------------------------------
 #p cam-b3lyp/Def2SVP td=(nstates=5)
 -----------------------------------

 --------------------------------
 TDDFT excited states in gaussian
 --------------------------------
 Symbolic Z-matrix:
 Charge =  0 Multiplicity = 1

                         Standard orientation:
 ---------------------------------------------------------------------
 Center     Atomic      Atomic             Coordinates (Angstroms)
 Number     Number       Type             X           Y           Z
 ---------------------------------------------------------------------
      1         12           0        8.043160    0.425566    0.040995
      2          6           0        8.098229   -3.147659   -0.162081
      3          6           0        8.875451    0.477886   -3.267724
      4          6           0        8.445424    3.560201    0.303421
      5          6           0        8.338695    0.086419    3.496903
      6          7           0        8.410812   -1.195257   -1.421336
      7          6           0        8.341168   -2.522339   -1.387071
      8          6           0        8.475755   -3.184522   -2.790913
      9          6           0        9.266041   -2.021820   -3.542957
     10          6           0        8.796535   -0.836270   -2.718361
     11          6           0       10.781955   -2.136683   -3.419213
     12          6           0        7.084523   -3.455012   -3.456526
     13          6           0        7.111556   -4.387253   -4.671248
     14          1           0        5.995155   -5.296633   -4.881069
     15          7           0        8.100758    1.830484   -1.346715
     16          6           0        8.445958    1.670803   -2.646956
     17          6           0        8.331846    3.008775   -3.266221
     18          6           0        8.076087    3.993334   -2.178413
     19          6           0        8.225174    3.160351   -1.012526
     20          6           0        8.415385    3.241506   -4.743586
     21          6           0        7.759530    5.455468   -2.187750
     22          8           0        7.803677    6.167737   -1.126949
     23          6           0        7.478911    6.058474   -3.503302
     24          7           0        8.568959    1.660873    1.639491
     25          6           0        8.615470    2.990096    1.498122
     26          6           0        8.733301    3.676680    2.826526
     27          6           0        8.512469    2.544343    3.930519
     28          6           0        8.379832    1.320864    2.990425
     29          6           0       10.062790    4.396257    3.092379
     30          6           0        7.399659    2.792521    4.979556
     31          6           0        6.045095    2.762285    4.307737
     32          7           0        8.016246   -1.214858    1.462026
     33          6           0        8.179730   -1.128879    2.852190
     34          6           0        8.195264   -2.508790    3.371492
     35          6           0        8.055457   -3.307363    2.238098
     36          6           0        7.985086   -2.479667    1.081267
     37          6           0        8.384294   -2.885737    4.730393
     38          6           0        7.973900   -4.668203    1.732808
     39          8           0        7.886530   -5.782069    2.251616
     40          6           0        8.120796   -4.623808    0.147791
     41          6           0        7.030002   -5.481164   -0.433947
     42          8           0        5.831298   -5.150729   -0.327710
     43          8           0        7.575382   -6.420541   -1.221775
     44          6           0        6.545203   -7.287273   -1.853961
     45          1           0        9.362924    0.617384   -4.234601
     46          1           0        8.479212    4.641585    0.451429
     47          1           0        8.342539   -0.094489    4.573337
     48          1           0        9.062337   -4.103286   -2.805708
     49          1           0        8.943777   -1.914545   -4.578505
     50          1           0       11.066241   -2.927475   -2.725130
     51          1           0       11.118150   -1.167429   -3.050415
     52          1           0       11.242381   -2.260303   -4.399776
     53          1           0        6.729825   -2.540696   -3.932212
     54          1           0        6.374142   -3.838652   -2.723380
     55          1           0        8.058793   -4.922677   -4.741754
     56          1           0        7.078748   -3.774959   -5.572481
     57          1           0        8.773434    2.356892   -5.268756
     58          1           0        9.193888    3.986890   -4.904973
     59          1           0        7.472249    3.599634   -5.156587
     60          1           0        8.341393    5.917621   -4.155096
     61          1           0        7.186243    7.089031   -3.305447
     62          1           0        6.651955    5.521385   -3.968736
     63          1           0        7.966190    4.441466    2.940853
     64          1           0        9.408516    2.375599    4.528264
     65          1           0        9.948530    5.455064    3.325998
     66          1           0       10.702576    4.254701    2.221789
     67          1           0       10.670920    3.955911    3.882119
     68          1           0        7.513747    3.779232    5.427139
     69          1           0        7.398327    2.060216    5.787008
     70          1           0        5.943782    3.774727    3.918470
     71          1           0        5.263790    2.544237    5.036592
     72          1           0        6.038749    2.083151    3.454964
     73          1           0        7.656161   -3.671007    4.933229
     74          1           0        8.247781   -2.036505    5.399550
     75          1           0        9.416962   -3.233065    4.701825
     76          1           0        9.112826   -5.008965   -0.085988
     77          1           0        6.787535   -8.317244   -1.591913
     78          1           0        6.526710   -7.025317   -2.911998
     79          1           0        5.534306   -7.205325   -1.453073
     80         12           0       -7.827260    1.069710    0.256586
     81          6           0       -9.036659   -2.309032    0.234043
     82          6           0       -8.256149    1.087754   -3.127246
     83          6           0       -6.349258    3.876432    0.183944
     84          6           0       -6.444420    0.406885    3.386140
     85          7           0       -8.559559   -0.471913   -1.150310
     86          6           0       -9.049302   -1.697318   -1.036823
     87          6           0       -9.656472   -2.271047   -2.345160
     88          6           0       -8.842248   -1.375852   -3.400882
     89          6           0       -8.560790   -0.158128   -2.523035
     90          6           0       -7.512575   -1.987634   -3.809569
     91          6           0      -11.201546   -2.017816   -2.448329
     92          6           0      -11.912200   -2.815473   -3.543991
     93          1           0      -13.270026   -3.289287   -3.290485
     94          7           0       -7.812587    2.477607   -1.142056
     95          6           0       -8.029458    2.313707   -2.463939
     96          6           0       -7.888175    3.649645   -3.063497
     97          6           0       -7.408058    4.587217   -2.012234
     98          6           0       -7.145725    3.658799   -0.930877
     99          6           0       -8.273651    3.949381   -4.483011
    100          6           0       -7.204939    6.071928   -1.988750
    101          8           0       -6.553410    6.647602   -1.046970
    102          6           0       -7.710486    6.821202   -3.148276
    103          7           0       -6.400232    1.944113    1.490024
    104          6           0       -5.964523    3.195872    1.263822
    105          6           0       -5.154178    3.710413    2.429570
    106          6           0       -5.340083    2.628727    3.592751
    107          6           0       -6.190651    1.585845    2.834924
    108          6           0       -3.663702    3.919556    2.162920
    109          6           0       -5.856368    3.149421    4.962056
    110          6           0       -7.285254    3.624527    4.828106
    111          7           0       -7.892754   -0.561200    1.672167
    112          6           0       -7.219541   -0.643160    2.910774
    113          6           0       -7.481010   -1.989345    3.460166
    114          6           0       -8.275535   -2.610199    2.484588
    115          6           0       -8.477072   -1.721302    1.394302
    116          6           0       -6.966137   -2.502860    4.683826
    117          6           0       -8.980750   -3.819172    2.124375
    118          8           0       -9.235243   -4.879143    2.694847
    119          6           0       -9.399795   -3.722907    0.594173
    120          6           0      -10.844782   -4.125385    0.482085
    121          8           0      -11.736058   -3.433121    1.004585
    122          8           0      -10.953904   -5.134358   -0.401335
    123          6           0      -12.370221   -5.561219   -0.555122
    124          1           0       -8.137519    1.123789   -4.210537
    125          1           0       -5.905975    4.872050    0.259617
    126          1           0       -6.129920    0.157514    4.401807
    127          1           0       -9.456205   -3.321951   -2.516223
    128          1           0       -9.465005   -1.099625   -4.247769
    129          1           0       -7.279890   -2.869207   -3.230923
    130          1           0       -6.770619   -1.218022   -3.641485
    131          1           0       -7.503362   -2.185355   -4.885270
    132          1           0      -11.373478   -0.998246   -2.816652
    133          1           0      -11.680363   -2.194065   -1.504766
    134          1           0      -11.287575   -3.628974   -3.932586
    135          1           0      -12.066171   -2.160916   -4.405311
    136          1           0       -8.437050    3.029695   -5.058218
    137          1           0       -7.404398    4.416377   -4.958599
    138          1           0       -9.123881    4.631140   -4.553600
    139          1           0       -7.237310    6.448191   -4.053494
    140          1           0       -7.552466    7.874208   -2.907263
    141          1           0       -8.783707    6.625347   -3.250516
    142          1           0       -5.533888    4.664779    2.773235
    143          1           0       -4.390178    2.135378    3.845982
    144          1           0       -3.324748    4.952950    2.366101
    145          1           0       -3.459161    3.647260    1.136007
    146          1           0       -2.998509    3.257309    2.714407
    147          1           0       -5.270652    4.014087    5.283691
    148          1           0       -5.800747    2.410128    5.754114
    149          1           0       -7.171833    4.642114    4.442433
    150          1           0       -7.781994    3.622440    5.796233
    151          1           0       -7.823954    3.043140    4.070846
    152          1           0       -7.782343   -3.017059    5.173637
    153          1           0       -6.562537   -1.709460    5.309446
    154          1           0       -6.183076   -3.164326    4.303640
    155          1           0       -8.744377   -4.389600    0.032453
    156          1           0      -12.405036   -6.634633   -0.344751
    157          1           0      -12.671718   -5.236540   -1.568745
    158          1           0      -13.088736   -5.181761    0.161954
 ---------------------------------------------------------------------

 SCF Done:  E(RCAM-B3LYP) =  -4069.81171189     A.U. after   19 cycles

 Excitation energies and oscillator strengths:

 Excited State   1:      Singlet-A      1.6698 eV  742.51 nm  f=0.0172  <S**2>=0.000
     309 -> 315       -0.10303
     310 -> 316        0.13829
     311 -> 313       -0.40869
     312 -> 314        0.55142
 This state for optimization and/or second-order correction.
 Total Energy, E(TD-HF/TD-DFT) =  -4069.75034826
 Copying the excited state density for this state as the 1-particle RhoCI density.

 Excited State   2:      Singlet-A      1.6853 eV  735.67 nm  f=0.7395  <S**2>=0.000
     309 -> 315        0.14219
     310 -> 316        0.10484
     311 -> 313        0.55060
     312 -> 314        0.40816

 Excited State   3:      Singlet-A      2.1854 eV  567.33 nm  f=0.0673  <S**2>=0.000
     309 -> 313       -0.12645
     310 -> 314        0.63017
     312 -> 316       -0.26737

 Excited State   4:      Singlet-A      2.1930 eV  565.37 nm  f=0.1277  <S**2>=0.000
     309 -> 313        0.62819
     310 -> 314        0.12541
     311 -> 315       -0.27312

 Excited State   5:      Singlet-A      2.7713 eV  447.39 nm  f=0.0000  <S**2>=0.000
     312 -> 313        0.70707

 The electronic state is 1-A.
 Alpha  occ. eigenvalues --  -46.87813 -46.87588 -19.26294 -19.26289 -19.19098
 Alpha  occ. eigenvalues --  -19.19031 -19.18824 -19.18656 -19.18179 -19.17975
 Alpha  occ. eigenvalues --  -14.42467 -14.42427 -14.41466 -14.41285 -14.39419
 Alpha  occ. eigenvalues --  -14.39282 -14.38603 -14.38525 -10.39090 -10.39027
 Alpha  occ. eigenvalues --  -10.35458 -10.35335 -10.34400 -10.34153 -10.31702
 Alpha  occ. eigenvalues --  -10.31687 -10.31422 -10.31237 -10.30958 -10.30925
 Alpha  occ. eigenvalues --  -10.30586 -10.30522 -10.30323 -10.30287 -10.30224
 Alpha  occ. eigenvalues --  -10.30068 -10.29936 -10.29815 -10.29645 -10.29366
 Alpha  occ. eigenvalues --  -10.29330 -10.29270 -10.28768 -10.28659 -10.28610
 Alpha  occ. eigenvalues --  -10.28565 -10.28380 -10.28335 -10.28135 -10.28079
 Alpha  occ. eigenvalues --  -10.27928 -10.27807 -10.27744 -10.27601 -10.27599
 Alpha  occ. eigenvalues --  -10.27520 -10.27499 -10.27466 -10.27436 -10.27420
 Alpha  occ. eigenvalues --  -10.27419 -10.27413 -10.27398 -10.27293 -10.27170
 Alpha  occ. eigenvalues --  -10.26978 -10.26728 -10.26641 -10.26417 -10.26373
 Alpha  occ. eigenvalues --  -10.26250 -10.26210 -10.26064 -10.26036 -10.25962
 Alpha  occ. eigenvalues --  -10.25858 -10.25855 -10.25752 -10.25448 -10.25302
 Alpha  occ. eigenvalues --  -10.24846 -10.24803 -10.24798 -10.24722 -10.24665
 Alpha  occ. eigenvalues --  -10.24616  -3.16556  -3.16338  -1.91438  -1.91220
 Alpha  occ. eigenvalues --   -1.91024  -1.90866  -1.90809  -1.90646  -1.16643
 Alpha  occ. eigenvalues --   -1.16582  -1.08637  -1.08582  -1.07225  -1.06909
 Alpha  occ. eigenvalues --   -1.06882  -1.06653  -1.04597  -1.04425  -1.03777
 Alpha  occ. eigenvalues --   -1.03591  -1.03249  -1.02965  -1.02427  -1.02038
 Alpha  occ. eigenvalues --   -0.91987  -0.91915  -0.89538  -0.89420  -0.89206
 Alpha  occ. eigenvalues --   -0.89089  -0.88305  -0.88143  -0.87884  -0.87713
 Alpha  occ. eigenvalues --   -0.87690  -0.87614  -0.87288  -0.87060  -0.85000
 Alpha  occ. eigenvalues --   -0.84937  -0.83955  -0.83800  -0.82980  -0.82873
 Alpha  occ. eigenvalues --   -0.82664  -0.82591  -0.81599  -0.81529  -0.80611
 Alpha  occ. eigenvalues --   -0.80376  -0.78812  -0.78569  -0.77236  -0.77078
 Alpha  occ. eigenvalues --   -0.76951  -0.76831  -0.75938  -0.75773  -0.74914
 Alpha  occ. eigenvalues --   -0.74726  -0.72790  -0.72625  -0.71687  -0.71508
 Alpha  occ. eigenvalues --   -0.69929  -0.69683  -0.68890  -0.68764  -0.67655
 Alpha  occ. eigenvalues --   -0.67532  -0.67238  -0.67143  -0.65304  -0.65208
 Alpha  occ. eigenvalues --   -0.64869  -0.64700  -0.64637  -0.64587  -0.64287
 Alpha  occ. eigenvalues --   -0.64130  -0.62310  -0.62211  -0.60457  -0.60274
 Alpha  occ. eigenvalues --   -0.59821  -0.59731  -0.59003  -0.58920  -0.58519
 Alpha  occ. eigenvalues --   -0.58354  -0.57597  -0.57483  -0.57324  -0.57165
 Alpha  occ. eigenvalues --   -0.56324  -0.56134  -0.55991  -0.55824  -0.55533
 Alpha  occ. eigenvalues --   -0.55389  -0.55355  -0.55173  -0.54539  -0.54417
 Alpha  occ. eigenvalues --   -0.53913  -0.53851  -0.53313  -0.53237  -0.53159
 Alpha  occ. eigenvalues --   -0.53078  -0.52929  -0.52837  -0.52771  -0.52614
 Alpha  occ. eigenvalues --   -0.52461  -0.52329  -0.51928  -0.51797  -0.51633
 Alpha  occ. eigenvalues --   -0.51600  -0.51211  -0.51130  -0.50586  -0.50421
 Alpha  occ. eigenvalues --   -0.50050  -0.49932  -0.49917  -0.49794  -0.49529
 Alpha  occ. eigenvalues --   -0.49427  -0.49228  -0.49137  -0.49112  -0.49036
 Alpha  occ. eigenvalues --   -0.48607  -0.48490  -0.48476  -0.48457  -0.48298
 Alpha  occ. eigenvalues --   -0.48278  -0.47711  -0.47530  -0.47311  -0.47051
 Alpha  occ. eigenvalues --   -0.46815  -0.46638  -0.46573  -0.46492  -0.46375
 Alpha  occ. eigenvalues --   -0.46199  -0.46177  -0.46008  -0.45835  -0.45748
 Alpha  occ. eigenvalues --   -0.45218  -0.45131  -0.44591  -0.44524  -0.44446
 Alpha  occ. eigenvalues --   -0.44410  -0.44162  -0.44105  -0.44061  -0.44032
 Alpha  occ. eigenvalues --   -0.44010  -0.43877  -0.43508  -0.43486  -0.43403
 Alpha  occ. eigenvalues --   -0.43317  -0.43042  -0.42865  -0.42829  -0.42713
 Alpha  occ. eigenvalues --   -0.42672  -0.42482  -0.42029  -0.41896  -0.41719
 Alpha  occ. eigenvalues --   -0.41597  -0.41552  -0.41395  -0.41157  -0.40919
 Alpha  occ. eigenvalues --   -0.40888  -0.40836  -0.40665  -0.40637  -0.40590
 Alpha  occ. eigenvalues --   -0.40419  -0.40254  -0.40173  -0.39465  -0.39352
 Alpha  occ. eigenvalues --   -0.38488  -0.38275  -0.37768  -0.37595  -0.37338
 Alpha  occ. eigenvalues --   -0.37281  -0.37193  -0.37134  -0.36726  -0.36706
 Alpha  occ. eigenvalues --   -0.36208  -0.36146  -0.34302  -0.34181  -0.33798
 Alpha  occ. eigenvalues --   -0.33782  -0.33202  -0.33103  -0.31354  -0.31215
 Alpha  occ. eigenvalues --   -0.31051  -0.30902  -0.30039  -0.29879  -0.29463
 Alpha  occ. eigenvalues --   -0.29336  -0.29259  -0.29136  -0.24096  -0.23963
 Alpha  occ. eigenvalues --   -0.21144  -0.21045
 Alpha virt. eigenvalues --   -0.08789  -0.08721  -0.01765  -0.01612  -0.00071
 Alpha virt. eigenvalues --    0.00035   0.02187   0.02283   0.03099   0.03293
 Alpha virt. eigenvalues --    0.04700   0.04797   0.05087   0.05230   0.06156

 Mulliken charges:
               1
     1  Mg   0.838634
     2  C   -0.002974
     3  C   -0.094171
     4  C   -0.045860
     5  C   -0.063992
     6  N   -0.256777
     7  C   -0.052478
     8  C   -0.014003
     9  C   -0.086986
    10  C    0.046305
    11  C    0.104801
    12  C    0.053492
    13  C   -0.071755
    14  H    0.036013
    15  N   -0.433159
    16  C    0.168421
    17  C   -0.177177
    18  C   -0.003955
    19  C    0.148702
    20  C    0.110198
    21  C    0.012344
    22  O   -0.249509
    23  C    0.062447
    24  N   -0.341142
    25  C    0.041226
    26  C   -0.028208
    27  C   -0.023948
    28  C    0.074775
    29  C    0.076149
    30  C    0.035138
    31  C   -0.004487
    32  N   -0.310481
    33  C    0.080370
    34  C   -0.169738
    35  C    0.008405
    36  C    0.082957
    37  C    0.127314
    38  C    0.046126
    39  O   -0.188278
    40  C   -0.005344
    41  C    0.212929
    42  O   -0.257141
    43  O   -0.304792
    44  C    0.157637
    45  H   -0.017619
    46  H   -0.016769
    47  H   -0.041502
    48  H    0.000989
    49  H   -0.004116
    50  H    0.025525
    51  H    0.016483
    52  H    0.016648
    53  H    0.011089
    54  H    0.044128
    55  H    0.017954
    56  H    0.017832
    57  H    0.005802
    58  H    0.026866
    59  H    0.039479
    60  H    0.037297
    61  H    0.035835
    62  H    0.031478
    63  H    0.016566
    64  H    0.009527
    65  H    0.023281
    66  H    0.012585
    67  H    0.004785
    68  H    0.006416
    69  H    0.004719
    70  H    0.008858
    71  H    0.017747
    72  H    0.028971
    73  H    0.047633
    74  H    0.009057
    75  H    0.046085
    76  H    0.035194
    77  H    0.043083
    78  H    0.046297
    79  H    0.053768
    80  Mg   0.837979
    81  C   -0.016874
    82  C   -0.087908
    83  C   -0.045536
    84  C   -0.064497
    85  N   -0.254557
    86  C   -0.049725
    87  C   -0.015090
    88  C   -0.090530
    89  C    0.045785
    90  C    0.114407
    91  C    0.062566
    92  C   -0.077799
    93  H    0.034743
    94  N   -0.423458
    95  C    0.162887
    96  C   -0.174832
    97  C   -0.007910
    98  C    0.152081
    99  C    0.099476
   100  C    0.015436
   101  O   -0.253219
   102  C    0.061252
   103  N   -0.350032
   104  C    0.037604
   105  C   -0.019913
   106  C   -0.034854
   107  C    0.088973
   108  C    0.073548
   109  C    0.034681
   110  C   -0.007627
   111  N   -0.324194
   112  C    0.078520
   113  C   -0.162840
   114  C    0.002369
   115  C    0.096279
   116  C    0.131460
   117  C    0.042568
   118  O   -0.187703
   119  C    0.000852
   120  C    0.211233
   121  O   -0.251120
   122  O   -0.305569
   123  C    0.152061
   124  H   -0.019969
   125  H   -0.015601
   126  H   -0.040191
   127  H   -0.000623
   128  H   -0.004575
   129  H    0.022729
   130  H    0.014539
   131  H    0.015929
   132  H    0.013844
   133  H    0.037670
   134  H    0.020763
   135  H    0.019438
   136  H    0.008566
   137  H    0.025798
   138  H    0.039578
   139  H    0.038028
   140  H    0.036240
   141  H    0.033814
   142  H    0.014234
   143  H    0.012914
   144  H    0.025062
   145  H    0.011767
   146  H    0.006155
   147  H    0.006201
   148  H    0.003735
   149  H    0.010839
   150  H    0.017802
   151  H    0.030054
   152  H    0.045906
   153  H    0.008545
   154  H    0.047774
   155  H    0.035269
   156  H    0.043913
   157  H    0.049367
   158  H    0.053511
 Sum of Mulliken charges =  -0.00000

 Dipole moment (field-independent basis, Debye):
    X=              3.0121    Y=              2.6542    Z=             -7.9463  Tot=              8.9028
 Quadrupole moment (field-independent basis, Debye-Ang):
   XX=           -495.1861   YY=           -559.0843   ZZ=           -445.6035
   XY=             -3.6016   XZ=             24.3781   YZ=             32.0912

 Normal termination of Gaussian 16 at Sun Sep 12 03:39:07 2021.
