 Gaussian 16, Revision A.03,
 Gaussian 16:  ES64L-G16RevA.03 25-Dec-2016

 -----------------------------------
 #p cam-b3lyp/Def2SVP td=(nstates=5)
 -----------------------------------

 --------------------------------
 TDDFT excited states in gaussian
 --------------------------------
 Symbolic Z-matrix:
 Charge =  0 Multiplicity = 1

                         Standard orientation:
 ---------------------------------------------------------------------
 Center     Atomic      Atomic             Coordinates (Angstroms)
 Number     Number       Type             X           Y           Z
 ---------------------------------------------------------------------
      1         12           0        4.264713    0.048117    0.315842
      2          6           0        4.096658   -3.156859   -1.269119
      3          6           0        5.341617    1.302231   -2.669211
      4          6           0        4.854224    2.786407    1.802739
      5          6           0        4.280015   -1.627954    3.371363
      6          7           0        4.631022   -0.906010   -1.647855
      7          6           0        4.470829   -2.130669   -2.139507
      8          6           0        4.664723   -2.206804   -3.683522
      9          6           0        5.584237   -0.920066   -3.885507
     10          6           0        5.134875   -0.109188   -2.682812
     11          6           0        7.075787   -1.210179   -3.752785
     12          6           0        3.311747   -2.071701   -4.460009
     13          6           0        3.366622   -2.459156   -5.940625
     14          1           0        2.210784   -3.111569   -6.537068
     15          7           0        4.518432    1.869368   -0.406322
     16          6           0        4.947668    2.195185   -1.649256
     17          6           0        4.969111    3.672945   -1.698713
     18          6           0        4.699538    4.178189   -0.323884
     19          6           0        4.705998    2.948965    0.427344
     20          6           0        5.177245    4.451022   -2.961656
     21          6           0        4.482597    5.551965    0.227303
     22          8           0        4.495311    5.790761    1.483245
     23          6           0        4.341043    6.639997   -0.757172
     24          7           0        4.751646    0.515155    2.291292
     25          6           0        4.896905    1.785339    2.684378
     26          6           0        4.961389    1.890295    4.179291
     27          6           0        4.584428    0.443745    4.740672
     28          6           0        4.440680   -0.302870    3.391535
     29          6           0        6.312464    2.327625    4.761828
     30          6           0        3.415915    0.365674    5.755019
     31          6           0        2.115880    0.720318    5.068554
     32          7           0        4.023375   -2.004897    0.977608
     33          6           0        4.088719   -2.479066    2.295776
     34          6           0        3.973806   -3.947703    2.232763
     35          6           0        3.865544   -4.228945    0.872239
     36          6           0        3.936385   -3.015182    0.130584
     37          6           0        4.036065   -4.836833    3.341820
     38          6           0        3.731244   -5.274574   -0.129001
     39          8           0        3.531690   -6.489622   -0.092527
     40          6           0        3.997861   -4.633338   -1.562025
     41          6           0        2.898536   -5.096311   -2.478787
     42          8           0        1.719922   -4.726079   -2.302257
     43          8           0        3.437060   -5.702395   -3.547990
     44          6           0        2.401164   -6.159906   -4.512229
     45          1           0        5.907625    1.760636   -3.482501
     46          1           0        4.948870    3.718278    2.364074
     47          1           0        4.192000   -2.211116    4.289856
     48          1           0        5.188312   -3.097029   -4.032487
     49          1           0        5.347482   -0.391562   -4.808737
     50          1           0        7.254555   -2.230197   -3.412895
     51          1           0        7.447502   -0.493979   -3.019724
     52          1           0        7.598378   -0.985459   -4.682933
     53          1           0        3.054950   -1.016557   -4.553745
     54          1           0        2.525010   -2.643498   -3.966633
     55          1           0        4.278724   -3.008620   -6.175291
     56          1           0        3.441551   -1.545401   -6.530232
     57          1           0        5.513545    3.810384   -3.775923
     58          1           0        6.013464    5.127193   -2.784908
     59          1           0        4.293261    5.024662   -3.240657
     60          1           0        5.238172    6.685313   -1.374955
     61          1           0        4.103778    7.535390   -0.183739
     62          1           0        3.516945    6.402042   -1.430365
     63          1           0        4.240540    2.616987    4.551744
     64          1           0        5.420471   -0.023412    5.261700
     65          1           0        6.251949    3.218990    5.386737
     66          1           0        7.004177    2.477116    3.933289
     67          1           0        6.829707    1.562895    5.340675
     68          1           0        3.561951    1.087428    6.557946
     69          1           0        3.305978   -0.618803    6.209957
     70          1           0        2.111335    1.809169    5.103403
     71          1           0        1.269916    0.308523    5.619900
     72          1           0        2.127565    0.427961    4.018374
     73          1           0        3.244236   -5.570197    3.189657
     74          1           0        3.907168   -4.304408    4.283898
     75          1           0        5.042586   -5.237657    3.223033
     76          1           0        4.976640   -4.985741   -1.885945
     77          1           0        2.554289   -7.228305   -4.664906
     78          1           0        2.478634   -5.508179   -5.382662
     79          1           0        1.371036   -6.148721   -4.154386
     80         12           0       -3.620665    1.022335    0.211626
     81          6           0       -6.375047   -1.277870    0.250046
     82          6           0       -5.459343    2.956435   -1.912767
     83          6           0       -1.051407    2.838046   -0.200167
     84          6           0       -1.613642   -1.577408    1.377369
     85          7           0       -5.642892    0.766227   -0.646989
     86          6           0       -6.620805   -0.116886   -0.512297
     87          6           0       -7.962750    0.304276   -1.169084
     88          6           0       -7.384059    1.325703   -2.264825
     89          6           0       -6.096840    1.741455   -1.555677
     90          6           0       -7.011454    0.654105   -3.576100
     91          6           0       -8.921386    1.027640   -0.159228
     92          6           0      -10.363315    1.190133   -0.645206
     93          1           0      -11.442848    1.091743    0.333265
     94          7           0       -3.454498    2.873799   -0.483372
     95          6           0       -4.303503    3.508777   -1.318397
     96          6           0       -3.724282    4.842180   -1.543587
     97          6           0       -2.380727    4.883918   -0.904968
     98          6           0       -2.231441    3.496472   -0.514069
     99          6           0       -4.470071    5.947405   -2.233275
    100          6           0       -1.388302    5.986975   -0.693862
    101          8           0       -0.183527    5.747815   -0.327598
    102          6           0       -1.841301    7.347431   -1.018571
    103          7           0       -1.582672    0.630785    0.336609
    104          6           0       -0.678510    1.610778    0.163294
    105          6           0        0.702983    1.156578    0.570164
    106          6           0        0.496834   -0.259874    1.283443
    107          6           0       -1.024508   -0.428102    1.077051
    108          6           0        1.716788    1.011911   -0.564588
    109          6           0        1.069640   -0.414997    2.718882
    110          6           0        0.302148    0.465347    3.678753
    111          7           0       -3.940359   -0.999499    0.903024
    112          6           0       -2.957640   -1.923576    1.320699
    113          6           0       -3.647816   -3.202157    1.587742
    114          6           0       -4.991426   -2.937611    1.282414
    115          6           0       -5.125741   -1.595184    0.835948
    116          6           0       -3.025103   -4.412465    2.004295
    117          6           0       -6.324967   -3.491856    1.226131
    118          8           0       -6.838190   -4.556790    1.567080
    119          6           0       -7.260110   -2.479192    0.434670
    120          6           0       -8.526768   -2.301244    1.226146
    121          8           0       -8.502022   -1.758842    2.344977
    122          8           0       -9.580371   -2.600757    0.444742
    123          6           0      -10.860475   -2.428764    1.182000
    124          1           0       -5.856049    3.522078   -2.756311
    125          1           0       -0.148688    3.452996   -0.220023
    126          1           0       -1.073422   -2.407602    1.837387
    127          1           0       -8.501319   -0.499008   -1.657396
    128          1           0       -8.041891    2.181301   -2.393551
    129          1           0       -7.086992   -0.421325   -3.513663
    130          1           0       -5.990625    0.950539   -3.778767
    131          1           0       -7.612095    1.063556   -4.393359
    132          1           0       -8.629301    2.082805   -0.081433
    133          1           0       -8.914467    0.533864    0.793011
    134          1           0      -10.577391    0.561556   -1.518146
    135          1           0      -10.492907    2.211263   -1.011968
    136          1           0       -5.368307    5.572084   -2.738946
    137          1           0       -3.830138    6.305864   -3.046822
    138          1           0       -4.695997    6.782766   -1.567085
    139          1           0       -2.146274    7.387206   -2.061574
    140          1           0       -1.024738    8.006839   -0.718102
    141          1           0       -2.732295    7.571353   -0.421396
    142          1           0        1.143599    1.846399    1.279470
    143          1           0        0.981764   -1.072679    0.723055
    144          1           0        2.628354    1.620985   -0.415767
    145          1           0        1.229605    1.277284   -1.493446
    146          1           0        2.048586   -0.006298   -0.760419
    147          1           0        2.108371   -0.077091    2.750702
    148          1           0        1.052113   -1.436872    3.082833
    149          1           0        0.779968    1.441682    3.554020
    150          1           0        0.406992    0.102079    4.699083
    151          1           0       -0.743975    0.568198    3.367801
    152          1           0       -3.649096   -4.831923    2.782239
    153          1           0       -2.011395   -4.236681    2.358196
    154          1           0       -3.040821   -4.972948    1.065738
    155          1           0       -7.449422   -2.909141   -0.549654
    156          1           0      -11.396937   -3.380440    1.117050
    157          1           0      -11.348125   -1.543884    0.731511
    158          1           0      -10.805879   -2.289594    2.255359
 ---------------------------------------------------------------------

 SCF Done:  E(RCAM-B3LYP) =  -4069.71297513     A.U. after   19 cycles

 Excitation energies and oscillator strengths:

 Excited State   1:      Singlet-A      1.6204 eV  765.17 nm  f=0.0012  <S**2>=0.000
     309 -> 315        0.11918
     310 -> 316       -0.10745
     311 -> 313        0.50712
     312 -> 314       -0.46476
 This state for optimization and/or second-order correction.
 Total Energy, E(TD-HF/TD-DFT) =  -4069.65342805
 Copying the excited state density for this state as the 1-particle RhoCI density.

 Excited State   2:      Singlet-A      1.7075 eV  726.11 nm  f=0.6586  <S**2>=0.000
     309 -> 315        0.12418
     310 -> 316        0.13165
     311 -> 313        0.45907
     312 -> 314        0.50310

 Excited State   3:      Singlet-A      2.1475 eV  577.35 nm  f=0.0599  <S**2>=0.000
     309 -> 313        0.53707
     311 -> 315       -0.22639
     312 -> 313        0.37676

 Excited State   4:      Singlet-A      2.1814 eV  568.36 nm  f=0.1201  <S**2>=0.000
     310 -> 314        0.63825
     312 -> 316       -0.26549

 Excited State   5:      Singlet-A      2.2063 eV  561.95 nm  f=0.0244  <S**2>=0.000
     309 -> 313       -0.34833
     311 -> 315        0.14595
     312 -> 313        0.59111

 The electronic state is 1-A.
 Alpha  occ. eigenvalues --  -46.87904 -46.87401 -19.26391 -19.26177 -19.19158
 Alpha  occ. eigenvalues --  -19.18979 -19.18608 -19.18545 -19.18292 -19.17828
 Alpha  occ. eigenvalues --  -14.42504 -14.42246 -14.41557 -14.41094 -14.39273
 Alpha  occ. eigenvalues --  -14.39106 -14.38700 -14.38329 -10.39209 -10.38902
 Alpha  occ. eigenvalues --  -10.35285 -10.35172 -10.34514 -10.34000 -10.31757
 Alpha  occ. eigenvalues --  -10.31607 -10.31564 -10.31024 -10.31016 -10.30837
 Alpha  occ. eigenvalues --  -10.30704 -10.30611 -10.30236 -10.30112 -10.30093
 Alpha  occ. eigenvalues --  -10.30047 -10.29910 -10.29699 -10.29669 -10.29352
 Alpha  occ. eigenvalues --  -10.29214 -10.29107 -10.28852 -10.28628 -10.28535
 Alpha  occ. eigenvalues --  -10.28519 -10.28488 -10.28220 -10.28194 -10.27938
 Alpha  occ. eigenvalues --  -10.27916 -10.27886 -10.27767 -10.27624 -10.27524
 Alpha  occ. eigenvalues --  -10.27447 -10.27443 -10.27415 -10.27394 -10.27371
 Alpha  occ. eigenvalues --  -10.27305 -10.27273 -10.27251 -10.27242 -10.27210
 Alpha  occ. eigenvalues --  -10.26832 -10.26817 -10.26532 -10.26363 -10.26323
 Alpha  occ. eigenvalues --  -10.26083 -10.25993 -10.25865 -10.25839 -10.25777
 Alpha  occ. eigenvalues --  -10.25577 -10.25437 -10.25405 -10.25365 -10.25363
 Alpha  occ. eigenvalues --  -10.24968 -10.24920 -10.24629 -10.24476 -10.23318
 Alpha  occ. eigenvalues --  -10.22893  -3.16625  -3.16149  -1.91508  -1.91094
 Alpha  occ. eigenvalues --   -1.91031  -1.90944  -1.90620  -1.90457  -1.16744
 Alpha  occ. eigenvalues --   -1.16468  -1.08752  -1.08432  -1.06924  -1.06862
 Alpha  occ. eigenvalues --   -1.06774  -1.06763  -1.04721  -1.04253  -1.03928
 Alpha  occ. eigenvalues --   -1.03413  -1.03410  -1.02785  -1.02559  -1.01869
 Alpha  occ. eigenvalues --   -0.92107  -0.91750  -0.90249  -0.89357  -0.89221
 Alpha  occ. eigenvalues --   -0.88964  -0.88540  -0.88136  -0.88005  -0.87788
 Alpha  occ. eigenvalues --   -0.87513  -0.87430  -0.87224  -0.86930  -0.85540
 Alpha  occ. eigenvalues --   -0.85015  -0.84734  -0.83605  -0.82995  -0.82633
 Alpha  occ. eigenvalues --   -0.82556  -0.82406  -0.81703  -0.81396  -0.80654
 Alpha  occ. eigenvalues --   -0.80258  -0.78923  -0.78447  -0.77925  -0.77196
 Alpha  occ. eigenvalues --   -0.76847  -0.76642  -0.76000  -0.75678  -0.75272
 Alpha  occ. eigenvalues --   -0.74541  -0.72909  -0.72503  -0.71769  -0.71557
 Alpha  occ. eigenvalues --   -0.70759  -0.69182  -0.68790  -0.68626  -0.67711
 Alpha  occ. eigenvalues --   -0.67422  -0.67215  -0.67027  -0.65391  -0.65203
 Alpha  occ. eigenvalues --   -0.64964  -0.64800  -0.64703  -0.64484  -0.64404
 Alpha  occ. eigenvalues --   -0.64240  -0.62425  -0.62142  -0.60501  -0.60180
 Alpha  occ. eigenvalues --   -0.59921  -0.59586  -0.59103  -0.58817  -0.58615
 Alpha  occ. eigenvalues --   -0.58268  -0.57731  -0.57502  -0.57332  -0.57215
 Alpha  occ. eigenvalues --   -0.56702  -0.56524  -0.56118  -0.56012  -0.55743
 Alpha  occ. eigenvalues --   -0.55591  -0.55396  -0.55259  -0.55021  -0.54737
 Alpha  occ. eigenvalues --   -0.54185  -0.53879  -0.53722  -0.53688  -0.53215
 Alpha  occ. eigenvalues --   -0.53079  -0.53001  -0.52911  -0.52782  -0.52705
 Alpha  occ. eigenvalues --   -0.52520  -0.52371  -0.52059  -0.51628  -0.51550
 Alpha  occ. eigenvalues --   -0.51458  -0.51364  -0.51013  -0.50610  -0.50279
 Alpha  occ. eigenvalues --   -0.50237  -0.49783  -0.49757  -0.49683  -0.49517
 Alpha  occ. eigenvalues --   -0.49364  -0.49327  -0.49122  -0.48989  -0.48921
 Alpha  occ. eigenvalues --   -0.48781  -0.48594  -0.48444  -0.48324  -0.48283
 Alpha  occ. eigenvalues --   -0.48073  -0.47550  -0.47453  -0.47397  -0.47125
 Alpha  occ. eigenvalues --   -0.47030  -0.46885  -0.46585  -0.46421  -0.46370
 Alpha  occ. eigenvalues --   -0.46218  -0.46070  -0.45880  -0.45808  -0.45598
 Alpha  occ. eigenvalues --   -0.45374  -0.45035  -0.44747  -0.44641  -0.44463
 Alpha  occ. eigenvalues --   -0.44331  -0.44277  -0.44149  -0.43976  -0.43949
 Alpha  occ. eigenvalues --   -0.43828  -0.43753  -0.43587  -0.43512  -0.43245
 Alpha  occ. eigenvalues --   -0.43118  -0.43022  -0.42801  -0.42768  -0.42680
 Alpha  occ. eigenvalues --   -0.42448  -0.42228  -0.41837  -0.41805  -0.41541
 Alpha  occ. eigenvalues --   -0.41447  -0.41384  -0.41191  -0.41020  -0.40877
 Alpha  occ. eigenvalues --   -0.40658  -0.40611  -0.40583  -0.40438  -0.40363
 Alpha  occ. eigenvalues --   -0.40197  -0.40074  -0.39703  -0.38958  -0.38493
 Alpha  occ. eigenvalues --   -0.37994  -0.37827  -0.37552  -0.37447  -0.37137
 Alpha  occ. eigenvalues --   -0.36993  -0.36958  -0.36721  -0.36533  -0.36307
 Alpha  occ. eigenvalues --   -0.36130  -0.34757  -0.34320  -0.33954  -0.33886
 Alpha  occ. eigenvalues --   -0.33664  -0.33235  -0.32908  -0.31168  -0.31156
 Alpha  occ. eigenvalues --   -0.30961  -0.30726  -0.30149  -0.29727  -0.29503
 Alpha  occ. eigenvalues --   -0.29250  -0.29091  -0.28940  -0.24127  -0.23767
 Alpha  occ. eigenvalues --   -0.21260  -0.20848
 Alpha virt. eigenvalues --   -0.08889  -0.08541  -0.01902  -0.01440  -0.00008
 Alpha virt. eigenvalues --    0.00153   0.02023   0.02487   0.03499   0.04452
 Alpha virt. eigenvalues --    0.04944   0.04986   0.05353   0.05495   0.06350

 Mulliken charges:
               1
     1  Mg   0.627748
     2  C    0.000665
     3  C   -0.083528
     4  C   -0.038599
     5  C   -0.065108
     6  N   -0.243344
     7  C   -0.054010
     8  C   -0.013039
     9  C   -0.086399
    10  C    0.043262
    11  C    0.104875
    12  C    0.051659
    13  C   -0.071755
    14  H    0.036425
    15  N   -0.452349
    16  C    0.173316
    17  C   -0.172428
    18  C    0.000222
    19  C    0.145060
    20  C    0.111467
    21  C    0.024247
    22  O   -0.248467
    23  C    0.060269
    24  N   -0.324003
    25  C    0.035603
    26  C   -0.026658
    27  C   -0.020945
    28  C    0.052400
    29  C    0.078339
    30  C    0.110231
    31  C   -0.046470
    32  N   -0.303461
    33  C    0.083476
    34  C   -0.175420
    35  C    0.010441
    36  C    0.075530
    37  C    0.127508
    38  C    0.044331
    39  O   -0.187652
    40  C   -0.008029
    41  C    0.212799
    42  O   -0.258201
    43  O   -0.304550
    44  C    0.157414
    45  H   -0.018251
    46  H   -0.016890
    47  H   -0.045156
    48  H    0.000862
    49  H   -0.003922
    50  H    0.025842
    51  H    0.017491
    52  H    0.016834
    53  H    0.012590
    54  H    0.044031
    55  H    0.018179
    56  H    0.018133
    57  H    0.004800
    58  H    0.027060
    59  H    0.043072
    60  H    0.032648
    61  H    0.036697
    62  H    0.041452
    63  H    0.016666
    64  H    0.008925
    65  H    0.023535
    66  H    0.012680
    67  H    0.005034
    68  H   -0.007601
    69  H   -0.006303
    70  H    0.009816
    71  H    0.025478
    72  H   -0.023635
    73  H    0.046190
    74  H    0.008809
    75  H    0.046989
    76  H    0.035867
    77  H    0.043515
    78  H    0.046542
    79  H    0.053921
    80  Mg   0.839723
    81  C   -0.017568
    82  C   -0.088294
    83  C   -0.048433
    84  C   -0.064982
    85  N   -0.254544
    86  C   -0.049133
    87  C   -0.015197
    88  C   -0.090391
    89  C    0.045320
    90  C    0.114682
    91  C    0.062614
    92  C   -0.077556
    93  H    0.034354
    94  N   -0.422753
    95  C    0.161944
    96  C   -0.176110
    97  C   -0.009638
    98  C    0.150440
    99  C    0.100013
   100  C    0.014713
   101  O   -0.255908
   102  C    0.061132
   103  N   -0.351847
   104  C    0.044671
   105  C   -0.016668
   106  C   -0.033358
   107  C    0.104661
   108  C    0.013289
   109  C   -0.037754
   110  C    0.079251
   111  N   -0.324791
   112  C    0.078428
   113  C   -0.160698
   114  C    0.001912
   115  C    0.097364
   116  C    0.133012
   117  C    0.043021
   118  O   -0.187458
   119  C    0.000818
   120  C    0.211142
   121  O   -0.251316
   122  O   -0.305592
   123  C    0.152177
   124  H   -0.021055
   125  H   -0.016976
   126  H   -0.034850
   127  H   -0.000865
   128  H   -0.005052
   129  H    0.022504
   130  H    0.014191
   131  H    0.015202
   132  H    0.013916
   133  H    0.037596
   134  H    0.020604
   135  H    0.019263
   136  H    0.008185
   137  H    0.023787
   138  H    0.038855
   139  H    0.036840
   140  H    0.034949
   141  H    0.034883
   142  H    0.024167
   143  H    0.039265
   144  H    0.138571
   145  H    0.014609
   146  H    0.066977
   147  H    0.081004
   148  H    0.011266
   149  H   -0.002900
   150  H    0.007380
   151  H   -0.000279
   152  H    0.044246
   153  H    0.010668
   154  H    0.052275
   155  H    0.035084
   156  H    0.043685
   157  H    0.049190
   158  H    0.053348
 Sum of Mulliken charges =  -0.00000

 Dipole moment (field-independent basis, Debye):
    X=              1.6294    Y=              5.6368    Z=             -6.3951  Tot=              8.6791
 Quadrupole moment (field-independent basis, Debye-Ang):
   XX=           -475.0682   YY=           -545.8212   ZZ=           -471.2235
   XY=            -31.6102   XZ=             13.7109   YZ=            -12.2725

 Normal termination of Gaussian 16 at Thu Sep  9 10:48:15 2021.
