 Gaussian 16, Revision A.03,
 Gaussian 16:  ES64L-G16RevA.03 25-Dec-2016

 -----------------------------------
 #p cam-b3lyp/Def2SVP td=(nstates=5)
 -----------------------------------

 --------------------------------
 TDDFT excited states in gaussian
 --------------------------------
 Symbolic Z-matrix:
 Charge =  0 Multiplicity = 1

                         Standard orientation:
 ---------------------------------------------------------------------
 Center     Atomic      Atomic             Coordinates (Angstroms)
 Number     Number       Type             X           Y           Z
 ---------------------------------------------------------------------
      1         12           0       15.898608   -0.635751    0.472036
      2          6           0       16.171240    1.994482   -1.940383
      3          6           0       16.701872    1.669454    2.856122
      4          6           0       16.109769   -3.020474    2.551729
      5          6           0       16.239685   -2.889199   -2.164495
      6          7           0       16.354259    1.527119    0.349460
      7          6           0       16.366393    2.428694   -0.627364
      8          6           0       16.531056    3.891228   -0.116231
      9          6           0       17.243015    3.591771    1.278559
     10          6           0       16.707731    2.192982    1.529127
     11          6           0       18.763986    3.526113    1.184540
     12          6           0       15.154197    4.608981    0.085808
     13          6           0       15.229460    6.127859    0.266640
     14          1           0       14.169429    6.953049   -0.292594
     15          7           0       15.859767   -0.620427    2.447158
     16          6           0       16.204580    0.410211    3.255969
     17          6           0       16.004090   -0.072522    4.639245
     18          6           0       15.696399   -1.528215    4.573065
     19          6           0       15.904827   -1.790229    3.171893
     20          6           0       16.062378    0.821867    5.839420
     21          6           0       15.290702   -2.527169    5.610192
     22          8           0       15.298846   -3.785250    5.382730
     23          6           0       14.964002   -1.992845    6.944661
     24          7           0       16.359342   -2.661490    0.267734
     25          6           0       16.323205   -3.486879    1.319594
     26          6           0       16.408428   -4.921759    0.890880
     27          6           0       16.265551   -4.917189   -0.699503
     28          6           0       16.201323   -3.386594   -0.926273
     29          6           0       17.693191   -5.663038    1.285720
     30          6           0       15.147326   -5.800477   -1.307609
     31          6           0       13.792283   -5.246845   -0.927543
     32          7           0       15.982762   -0.512229   -1.693306
     33          6           0       16.150840   -1.575141   -2.592551
     34          6           0       16.254781   -0.987837   -3.941009
     35          6           0       16.155920    0.385951   -3.729403
     36          6           0       16.026448    0.642199   -2.334460
     37          6           0       16.476520   -1.707131   -5.148437
     38          6           0       16.154283    1.698406   -4.354957
     39          8           0       16.139195    2.104778   -5.517766
     40          6           0       16.286569    2.798686   -3.211405
     41          6           0       15.246182    3.853431   -3.472974
     42          8           0       14.030278    3.592244   -3.369416
     43          8           0       15.842367    5.051691   -3.569305
     44          6           0       14.862684    6.146866   -3.799451
     45          1           0       17.172779    2.247483    3.653662
     46          1           0       16.078252   -3.880436    3.223972
     47          1           0       16.262500   -3.535405   -3.043898
     48          1           0       17.172761    4.519221   -0.734506
     49          1           0       16.907204    4.271840    2.061157
     50          1           0       19.101312    3.568018    0.148984
     51          1           0       19.042792    2.574505    1.637532
     52          1           0       19.223933    4.298080    1.802029
     53          1           0       14.740615    4.327132    1.054091
     54          1           0       14.474070    4.376831   -0.734472
     55          1           0       16.207212    6.515507   -0.020831
     56          1           0       15.152562    6.349298    1.331183
     57          1           0       16.470153    1.800679    5.590036
     58          1           0       16.792495    0.389685    6.523419
     59          1           0       15.096053    0.904192    6.337186
     60          1           0       15.828703   -1.459740    7.340438
     61          1           0       14.610134   -2.840941    7.529777
     62          1           0       14.168158   -1.254281    6.844141
     63          1           0       15.596713   -5.507205    1.320762
     64          1           0       17.174614   -5.262030   -1.192822
     65          1           0       17.515921   -6.563132    1.874882
     66          1           0       18.334063   -4.964183    1.822540
     67          1           0       18.332951   -5.945759    0.450141
     68          1           0       15.203956   -6.812404   -0.907932
     69          1           0       15.196824   -5.869864   -2.394341
     70          1           0       13.626218   -5.668458    0.063161
     71          1           0       13.031181   -5.588494   -1.629832
     72          1           0       13.821359   -4.162426   -0.819488
     73          1           0       15.799425   -1.278805   -5.887388
     74          1           0       16.293081   -2.772887   -5.013838
     75          1           0       17.528309   -1.483660   -5.326358
     76          1           0       17.298615    3.197173   -3.275378
     77          1           0       15.169643    6.666624   -4.707119
     78          1           0       14.820412    6.724025   -2.875597
     79          1           0       13.851627    5.840254   -4.069806
     80         12           0      -15.830142   -0.648993   -0.473320
     81          6           0      -16.499332    1.893043    1.969893
     82          6           0      -16.261356    1.745383   -2.864063
     83          6           0      -15.691460   -2.946056   -2.657743
     84          6           0      -16.575885   -3.008551    1.980655
     85          7           0      -16.314242    1.505085   -0.339711
     86          6           0      -16.485511    2.374926    0.644366
     87          6           0      -16.571172    3.855620    0.186347
     88          6           0      -17.057182    3.612166   -1.324746
     89          6           0      -16.481674    2.214603   -1.544450
     90          6           0      -18.568260    3.534050   -1.465732
     91          6           0      -15.178589    4.577128    0.232659
     92          6           0      -15.238568    6.100164    0.096561
     93          1           0      -14.278677    6.904427    0.847715
     94          7           0      -15.474667   -0.547250   -2.423156
     95          6           0      -15.686624    0.509854   -3.234868
     96          6           0      -15.284043    0.071238   -4.580121
     97          6           0      -14.972502   -1.382958   -4.525701
     98          6           0      -15.396740   -1.693077   -3.175173
     99          6           0      -15.148300    1.017209   -5.737767
    100          6           0      -14.400804   -2.339274   -5.528115
    101          8           0      -14.437772   -3.607473   -5.346053
    102          6           0      -13.880539   -1.752273   -6.771592
    103          7           0      -16.298380   -2.673940   -0.421686
    104          6           0      -16.095495   -3.458008   -1.494997
    105          6           0      -16.242634   -4.918254   -1.139430
    106          6           0      -16.348869   -4.963443    0.455644
    107          6           0      -16.333723   -3.448008    0.753299
    108          6           0      -17.447691   -5.633434   -1.749949
    109          6           0      -15.336085   -5.873662    1.202921
    110          6           0      -13.937898   -5.317241    1.058477
    111          7           0      -16.249689   -0.609799    1.645752
    112          6           0      -16.560673   -1.710259    2.474213
    113          6           0      -16.879730   -1.171458    3.812242
    114          6           0      -16.753624    0.217813    3.662201
    115          6           0      -16.401907    0.524568    2.319932
    116          6           0      -17.275795   -1.937454    4.944720
    117          6           0      -16.848444    1.495247    4.331442
    118          8           0      -17.026469    1.855625    5.494263
    119          6           0      -16.811627    2.644566    3.234133
    120          6           0      -15.829809    3.689504    3.688744
    121          8           0      -14.618403    3.422557    3.777311
    122          8           0      -16.447212    4.884124    3.734183
    123          6           0      -15.511282    5.954911    4.169249
    124          1           0      -16.598317    2.362745   -3.697250
    125          1           0      -15.550615   -3.784515   -3.343757
    126          1           0      -16.722634   -3.685708    2.824814
    127          1           0      -17.299838    4.454551    0.719356
    128          1           0      -16.599624    4.324439   -2.006419
    129          1           0      -19.063143    3.537185   -0.505924
    130          1           0      -18.767265    2.609103   -1.990991
    131          1           0      -18.927846    4.334679   -2.118429
    132          1           0      -14.616451    4.329213   -0.676887
    133          1           0      -14.643047    4.314818    1.124295
    134          1           0      -16.255588    6.486657    0.235268
    135          1           0      -14.988723    6.366641   -0.933281
    136          1           0      -15.603342    1.990705   -5.517239
    137          1           0      -15.755622    0.612267   -6.554500
    138          1           0      -14.116392    1.117629   -6.080905
    139          1           0      -14.674569   -1.202397   -7.271213
    140          1           0      -13.433798   -2.582473   -7.322098
    141          1           0      -13.104720   -1.021977   -6.515879
    142          1           0      -15.371104   -5.481536   -1.449678
    143          1           0      -17.327597   -5.339274    0.788325
    144          1           0      -17.170829   -6.521584   -2.348804
    145          1           0      -17.995980   -4.923110   -2.354398
    146          1           0      -18.201774   -5.959585   -1.035680
    147          1           0      -15.321149   -6.870567    0.755590
    148          1           0      -15.562073   -5.996952    2.256829
    149          1           0      -13.619343   -5.700163    0.084317
    150          1           0      -13.295243   -5.684245    1.856184
    151          1           0      -13.954528   -4.223117    0.993191
    152          1           0      -16.732856   -1.542488    5.793083
    153          1           0      -17.072228   -2.996326    4.799428
    154          1           0      -18.347904   -1.723803    4.959423
    155          1           0      -17.822468    3.044171    3.144220
    156          1           0      -15.964593    6.441794    5.038240
    157          1           0      -15.337581    6.581616    3.274358
    158          1           0      -14.553406    5.649444    4.573729
 ---------------------------------------------------------------------

 SCF Done:  E(RCAM-B3LYP) =  -4069.81178372     A.U. after   19 cycles

 Excitation energies and oscillator strengths:

 Excited State   1:      Singlet-A      1.6753 eV  740.05 nm  f=0.2168  <S**2>=0.000
     310 -> 316        0.16871
     311 -> 313        0.66685
     312 -> 314        0.16120
     310 <- 316        0.10171
 This state for optimization and/or second-order correction.
 Total Energy, E(TD-HF/TD-DFT) =  -4069.75021598
 Copying the excited state density for this state as the 1-particle RhoCI density.

 Excited State   2:      Singlet-A      1.6802 eV  737.93 nm  f=0.5607  <S**2>=0.000
     309 -> 315        0.17072
     311 -> 313       -0.16115
     312 -> 314        0.66648
     309 <- 315        0.10221

 Excited State   3:      Singlet-A      2.1862 eV  567.13 nm  f=0.0956  <S**2>=0.000
     310 -> 313        0.64213
     311 -> 316       -0.27302

 Excited State   4:      Singlet-A      2.1926 eV  565.47 nm  f=0.1045  <S**2>=0.000
     309 -> 314        0.64036
     312 -> 315       -0.27819

 Excited State   5:      Singlet-A      3.0611 eV  405.03 nm  f=0.0000  <S**2>=0.000
     312 -> 313        0.70711

 The electronic state is 1-A.
 Alpha  occ. eigenvalues --  -46.87762 -46.87661 -19.26354 -19.26255 -19.19164
 Alpha  occ. eigenvalues --  -19.18989 -19.18777 -19.18710 -19.18138 -19.18054
 Alpha  occ. eigenvalues --  -14.42498 -14.42416 -14.41415 -14.41361 -14.39368
 Alpha  occ. eigenvalues --  -14.39352 -14.38600 -14.38553 -10.39094 -10.39049
 Alpha  occ. eigenvalues --  -10.35410 -10.35387 -10.34358 -10.34232 -10.31761
 Alpha  occ. eigenvalues --  -10.31651 -10.31372 -10.31311 -10.31023 -10.30874
 Alpha  occ. eigenvalues --  -10.30536 -10.30473 -10.30398 -10.30362 -10.30172
 Alpha  occ. eigenvalues --  -10.30141 -10.29896 -10.29887 -10.29596 -10.29437
 Alpha  occ. eigenvalues --  -10.29401 -10.29219 -10.28720 -10.28716 -10.28654
 Alpha  occ. eigenvalues --  -10.28505 -10.28405 -10.28331 -10.28142 -10.28084
 Alpha  occ. eigenvalues --  -10.28002 -10.27759 -10.27693 -10.27670 -10.27549
 Alpha  occ. eigenvalues --  -10.27519 -10.27485 -10.27467 -10.27466 -10.27461
 Alpha  occ. eigenvalues --  -10.27444 -10.27415 -10.27377 -10.27370 -10.27127
 Alpha  occ. eigenvalues --  -10.27053 -10.26692 -10.26671 -10.26406 -10.26369
 Alpha  occ. eigenvalues --  -10.26203 -10.26149 -10.26138 -10.26028 -10.25985
 Alpha  occ. eigenvalues --  -10.25935 -10.25856 -10.25813 -10.25402 -10.25400
 Alpha  occ. eigenvalues --  -10.24874 -10.24799 -10.24753 -10.24729 -10.24690
 Alpha  occ. eigenvalues --  -10.24650  -3.16505  -3.16411  -1.91386  -1.91293
 Alpha  occ. eigenvalues --   -1.90973  -1.90882  -1.90815  -1.90718  -1.16647
 Alpha  occ. eigenvalues --   -1.16603  -1.08662  -1.08596  -1.07178  -1.06962
 Alpha  occ. eigenvalues --   -1.06949  -1.06612  -1.04547  -1.04496  -1.03726
 Alpha  occ. eigenvalues --   -1.03664  -1.03199  -1.03040  -1.02377  -1.02112
 Alpha  occ. eigenvalues --   -0.91989  -0.91939  -0.89495  -0.89485  -0.89155
 Alpha  occ. eigenvalues --   -0.89152  -0.88252  -0.88221  -0.87837  -0.87796
 Alpha  occ. eigenvalues --   -0.87685  -0.87639  -0.87237  -0.87118  -0.85000
 Alpha  occ. eigenvalues --   -0.84948  -0.83902  -0.83877  -0.82930  -0.82928
 Alpha  occ. eigenvalues --   -0.82652  -0.82614  -0.81599  -0.81554  -0.80563
 Alpha  occ. eigenvalues --   -0.80444  -0.78762  -0.78635  -0.77184  -0.77145
 Alpha  occ. eigenvalues --   -0.76901  -0.76900  -0.75891  -0.75840  -0.74864
 Alpha  occ. eigenvalues --   -0.74804  -0.72740  -0.72700  -0.71639  -0.71582
 Alpha  occ. eigenvalues --   -0.69872  -0.69758  -0.68839  -0.68828  -0.67607
 Alpha  occ. eigenvalues --   -0.67602  -0.67199  -0.67185  -0.65273  -0.65253
 Alpha  occ. eigenvalues --   -0.64820  -0.64772  -0.64655  -0.64587  -0.64235
 Alpha  occ. eigenvalues --   -0.64205  -0.62281  -0.62266  -0.60406  -0.60338
 Alpha  occ. eigenvalues --   -0.59798  -0.59771  -0.58994  -0.58954  -0.58470
 Alpha  occ. eigenvalues --   -0.58427  -0.57557  -0.57552  -0.57275  -0.57237
 Alpha  occ. eigenvalues --   -0.56276  -0.56205  -0.55947  -0.55888  -0.55485
 Alpha  occ. eigenvalues --   -0.55452  -0.55306  -0.55250  -0.54491  -0.54490
 Alpha  occ. eigenvalues --   -0.53913  -0.53861  -0.53264  -0.53228  -0.53187
 Alpha  occ. eigenvalues --   -0.53142  -0.52903  -0.52881  -0.52720  -0.52665
 Alpha  occ. eigenvalues --   -0.52403  -0.52401  -0.51888  -0.51883  -0.51658
 Alpha  occ. eigenvalues --   -0.51582  -0.51203  -0.51163  -0.50534  -0.50471
 Alpha  occ. eigenvalues --   -0.49996  -0.49979  -0.49883  -0.49867  -0.49486
 Alpha  occ. eigenvalues --   -0.49480  -0.49203  -0.49181  -0.49106  -0.49063
 Alpha  occ. eigenvalues --   -0.48560  -0.48560  -0.48427  -0.48410  -0.48378
 Alpha  occ. eigenvalues --   -0.48336  -0.47660  -0.47595  -0.47262  -0.47118
 Alpha  occ. eigenvalues --   -0.46763  -0.46710  -0.46554  -0.46521  -0.46325
 Alpha  occ. eigenvalues --   -0.46271  -0.46130  -0.46088  -0.45825  -0.45790
 Alpha  occ. eigenvalues --   -0.45210  -0.45167  -0.44545  -0.44516  -0.44477
 Alpha  occ. eigenvalues --   -0.44471  -0.44128  -0.44110  -0.44078  -0.44055
 Alpha  occ. eigenvalues --   -0.43985  -0.43938  -0.43556  -0.43463  -0.43387
 Alpha  occ. eigenvalues --   -0.43352  -0.42994  -0.42933  -0.42904  -0.42667
 Alpha  occ. eigenvalues --   -0.42621  -0.42553  -0.41975  -0.41965  -0.41671
 Alpha  occ. eigenvalues --   -0.41671  -0.41500  -0.41459  -0.41107  -0.40991
 Alpha  occ. eigenvalues --   -0.40835  -0.40786  -0.40721  -0.40697  -0.40537
 Alpha  occ. eigenvalues --   -0.40494  -0.40226  -0.40200  -0.39426  -0.39406
 Alpha  occ. eigenvalues --   -0.38435  -0.38351  -0.37714  -0.37654  -0.37286
 Alpha  occ. eigenvalues --   -0.37267  -0.37230  -0.37200  -0.36774  -0.36682
 Alpha  occ. eigenvalues --   -0.36219  -0.36160  -0.34254  -0.34252  -0.33865
 Alpha  occ. eigenvalues --   -0.33739  -0.33176  -0.33152  -0.31307  -0.31269
 Alpha  occ. eigenvalues --   -0.31001  -0.30974  -0.29997  -0.29959  -0.29414
 Alpha  occ. eigenvalues --   -0.29327  -0.29288  -0.29213  -0.24046  -0.24037
 Alpha  occ. eigenvalues --   -0.21118  -0.21093
 Alpha virt. eigenvalues --   -0.08792  -0.08740  -0.01715  -0.01684  -0.00027
 Alpha virt. eigenvalues --   -0.00022   0.02205   0.02233   0.03160   0.03227
 Alpha virt. eigenvalues --    0.04728   0.04752   0.05129   0.05162   0.06181

 Mulliken charges:
               1
     1  Mg   0.838845
     2  C   -0.002962
     3  C   -0.094098
     4  C   -0.045868
     5  C   -0.063978
     6  N   -0.256791
     7  C   -0.052480
     8  C   -0.014010
     9  C   -0.087025
    10  C    0.046341
    11  C    0.104821
    12  C    0.053476
    13  C   -0.071814
    14  H    0.036129
    15  N   -0.433159
    16  C    0.168436
    17  C   -0.177125
    18  C   -0.003978
    19  C    0.148740
    20  C    0.110168
    21  C    0.012318
    22  O   -0.249599
    23  C    0.062460
    24  N   -0.341150
    25  C    0.041243
    26  C   -0.028162
    27  C   -0.023971
    28  C    0.074846
    29  C    0.076172
    30  C    0.035130
    31  C   -0.004506
    32  N   -0.310465
    33  C    0.080419
    34  C   -0.169735
    35  C    0.008324
    36  C    0.082975
    37  C    0.127316
    38  C    0.046092
    39  O   -0.188524
    40  C   -0.005342
    41  C    0.212856
    42  O   -0.257074
    43  O   -0.304804
    44  C    0.157703
    45  H   -0.017601
    46  H   -0.016819
    47  H   -0.041524
    48  H    0.000898
    49  H   -0.004011
    50  H    0.025441
    51  H    0.016441
    52  H    0.016643
    53  H    0.011260
    54  H    0.044127
    55  H    0.017825
    56  H    0.017984
    57  H    0.005873
    58  H    0.026825
    59  H    0.039646
    60  H    0.037325
    61  H    0.035709
    62  H    0.031579
    63  H    0.016592
    64  H    0.009417
    65  H    0.023222
    66  H    0.012530
    67  H    0.004717
    68  H    0.006358
    69  H    0.004693
    70  H    0.008821
    71  H    0.018161
    72  H    0.028998
    73  H    0.047531
    74  H    0.009099
    75  H    0.045955
    76  H    0.035108
    77  H    0.042881
    78  H    0.046417
    79  H    0.053685
    80  Mg   0.837801
    81  C   -0.016819
    82  C   -0.087764
    83  C   -0.045485
    84  C   -0.064881
    85  N   -0.254548
    86  C   -0.049860
    87  C   -0.015108
    88  C   -0.090494
    89  C    0.045753
    90  C    0.114381
    91  C    0.062527
    92  C   -0.077913
    93  H    0.034914
    94  N   -0.423489
    95  C    0.162947
    96  C   -0.174599
    97  C   -0.007754
    98  C    0.152134
    99  C    0.099369
   100  C    0.015619
   101  O   -0.253142
   102  C    0.061171
   103  N   -0.350051
   104  C    0.037529
   105  C   -0.019853
   106  C   -0.034814
   107  C    0.088911
   108  C    0.073658
   109  C    0.034741
   110  C   -0.007689
   111  N   -0.324074
   112  C    0.078410
   113  C   -0.163161
   114  C    0.002215
   115  C    0.096208
   116  C    0.131491
   117  C    0.042366
   118  O   -0.187934
   119  C    0.000933
   120  C    0.211238
   121  O   -0.250994
   122  O   -0.305643
   123  C    0.152038
   124  H   -0.019636
   125  H   -0.015535
   126  H   -0.040481
   127  H   -0.000680
   128  H   -0.004282
   129  H    0.022430
   130  H    0.014419
   131  H    0.016294
   132  H    0.013970
   133  H    0.037679
   134  H    0.020754
   135  H    0.019638
   136  H    0.008773
   137  H    0.026172
   138  H    0.039915
   139  H    0.038252
   140  H    0.036494
   141  H    0.033983
   142  H    0.014457
   143  H    0.012382
   144  H    0.025177
   145  H    0.011626
   146  H    0.005645
   147  H    0.006274
   148  H    0.003621
   149  H    0.010985
   150  H    0.017955
   151  H    0.030110
   152  H    0.045981
   153  H    0.008506
   154  H    0.046894
   155  H    0.034986
   156  H    0.043868
   157  H    0.049513
   158  H    0.053580
 Sum of Mulliken charges =  -0.00000

 Dipole moment (field-independent basis, Debye):
    X=              0.6706    Y=              3.1490    Z=             -0.0100  Tot=              3.2196
 Quadrupole moment (field-independent basis, Debye-Ang):
   XX=           -417.0779   YY=           -460.1093   ZZ=           -538.6500
   XY=              1.7485   XZ=            125.1253   YZ=              1.6582

 Normal termination of Gaussian 16 at Sun Sep 12 12:23:31 2021.
