 Gaussian 16, Revision A.03,
 Gaussian 16:  ES64L-G16RevA.03 25-Dec-2016

 -----------------------------------
 #p cam-b3lyp/Def2SVP td=(nstates=5)
 -----------------------------------

 --------------------------------
 TDDFT excited states in gaussian
 --------------------------------
 Symbolic Z-matrix:
 Charge =  0 Multiplicity = 1

                         Standard orientation:
 ---------------------------------------------------------------------
 Center     Atomic      Atomic             Coordinates (Angstroms)
 Number     Number       Type             X           Y           Z
 ---------------------------------------------------------------------
      1         12           0        4.750227    0.275696    0.715170
      2          6           0        5.002141   -2.800079   -1.098213
      3          6           0        6.018014    1.833314   -2.043381
      4          6           0        4.963795    2.925844    2.443674
      5          6           0        4.592439   -1.627195    3.630607
      6          7           0        5.388568   -0.493610   -1.260009
      7          6           0        5.378156   -1.684766   -1.850101
      8          6           0        5.732328   -1.626297   -3.366187
      9          6           0        6.560660   -0.264055   -3.378831
     10          6           0        5.928292    0.415904   -2.177294
     11          6           0        8.049736   -0.453916   -3.108449
     12          6           0        4.458117   -1.530406   -4.271130
     13          6           0        4.693167   -1.796561   -5.760851
     14          1           0        3.659839   -2.483293   -6.521102
     15          7           0        4.927678    2.161219    0.152886
     16          6           0        5.452405    2.613130   -1.011470
     17          6           0        5.359388    4.087873   -0.955224
     18          6           0        4.912606    4.463690    0.414900
     19          6           0        4.942438    3.183557    1.075012
     20          6           0        5.630383    4.974875   -2.131463
     21          6           0        4.531002    5.770948    1.034244
     22          8           0        4.397639    5.911690    2.297961
     23          6           0        4.402132    6.918958    0.118544
     24          7           0        4.996104    0.622081    2.758990
     25          6           0        4.997975    1.865075    3.252899
     26          6           0        4.902643    1.857946    4.749829
     27          6           0        4.588961    0.348486    5.165627
     28          6           0        4.642776   -0.299504    3.760108
     29          6           0        6.148333    2.346159    5.502102
     30          6           0        3.334216    0.106692    6.041737
     31          6           0        2.085702    0.417741    5.247029
     32          7           0        4.609851   -1.834669    1.202713
     33          6           0        4.579943   -2.403820    2.484059
     34          6           0        4.590883   -3.867574    2.306935
     35          6           0        4.643475   -4.049368    0.926344
     36          6           0        4.690576   -2.779708    0.282889
     37          6           0        4.612502   -4.833291    3.351615
     38          6           0        4.695697   -5.021018   -0.153946
     39          8           0        4.592202   -6.246542   -0.223738
     40          6           0        5.052886   -4.252585   -1.502188
     41          6           0        4.092622   -4.721934   -2.560920
     42          8           0        2.876196   -4.453597   -2.485633
     43          8           0        4.783410   -5.202132   -3.606274
     44          6           0        3.890391   -5.657729   -4.704957
     45          1           0        6.624325    2.393649   -2.757771
     46          1           0        4.925810    3.815681    3.075486
     47          1           0        4.459573   -2.284850    4.491589
     48          1           0        6.358583   -2.446089   -3.718566
     49          1           0        6.376368    0.315907   -4.282935
     50          1           0        8.275045   -1.481482   -2.823379
     51          1           0        8.286582    0.228364   -2.291815
     52          1           0        8.643643   -0.120020   -3.959663
     53          1           0        4.127768   -0.492745   -4.317918
     54          1           0        3.674353   -2.194738   -3.905478
     55          1           0        5.665645   -2.258049   -5.934700
     56          1           0        4.753197   -0.836717   -6.273974
     57          1           0        6.097712    4.425738   -2.947917
     58          1           0        6.387191    5.694512   -1.819898
     59          1           0        4.735654    5.502381   -2.462416
     60          1           0        5.350406    7.077543   -0.395437
     61          1           0        4.036741    7.747349    0.724439
     62          1           0        3.672057    6.674510   -0.653585
     63          1           0        4.091612    2.498908    5.093081
     64          1           0        5.403141   -0.095458    5.738950
     65          1           0        5.953345    3.179450    6.177611
     66          1           0        6.905766    2.609707    4.764451
     67          1           0        6.664570    1.578568    6.078053
     68          1           0        3.339778    0.772585    6.904003
     69          1           0        3.258764   -0.915559    6.412627
     70          1           0        1.989798    1.497342    5.357013
     71          1           0        1.224445   -0.096332    5.675020
     72          1           0        2.226825    0.209532    4.186266
     73          1           0        3.901848   -5.608465    3.065179
     74          1           0        4.346678   -4.386539    4.309401
     75          1           0        5.654922   -5.149099    3.313126
     76          1           0        6.084582   -4.506331   -1.743722
     77          1           0        4.143865   -6.696986   -4.914549
     78          1           0        4.002420   -4.936405   -5.514615
     79          1           0        2.831895   -5.749641   -4.459035
     80         12           0       -4.185353    0.729996   -0.275005
     81          6           0       -6.949558   -1.502999    0.226958
     82          6           0       -6.404478    2.930733   -1.641319
     83          6           0       -1.718055    2.528100   -1.139112
     84          6           0       -2.078290   -2.026026    0.057138
     85          7           0       -6.368933    0.614688   -0.608077
     86          6           0       -7.322984   -0.257911   -0.320528
     87          6           0       -8.765128    0.262624   -0.563064
     88          6           0       -8.432928    1.390320   -1.657065
     89          6           0       -6.989582    1.696193   -1.262272
     90          6           0       -8.436991    0.865127   -3.083068
     91          6           0       -9.400986    0.885512    0.729105
     92          6           0      -10.909212    1.131692    0.649161
     93          1           0      -11.709948    0.944402    1.855899
     94          7           0       -4.110010    2.644855   -0.790954
     95          6           0       -5.110416    3.388049   -1.308763
     96          6           0       -4.542510    4.726351   -1.533696
     97          6           0       -3.080808    4.667640   -1.260399
     98          6           0       -2.905512    3.241926   -1.068830
     99          6           0       -5.383504    5.917963   -1.888953
    100          6           0       -2.014625    5.718991   -1.196329
    101          8           0       -0.769556    5.415137   -1.178618
    102          6           0       -2.468000    7.116539   -1.249213
    103          7           0       -2.203536    0.285327   -0.718878
    104          6           0       -1.325795    1.260071   -1.014441
    105          6           0        0.089809    0.734390   -1.025634
    106          6           0        0.001679   -0.749639   -0.436183
    107          6           0       -1.528787   -0.862224   -0.261852
    108          6           0        0.775670    0.699421   -2.391194
    109          6           0        0.910331   -1.079040    0.779776
    110          6           0        0.454208   -0.298410    1.991366
    111          7           0       -4.418280   -1.350543    0.258980
    112          6           0       -3.408246   -2.336036    0.311132
    113          6           0       -4.070109   -3.622396    0.610492
    114          6           0       -5.432702   -3.297460    0.689605
    115          6           0       -5.609775   -1.910425    0.436082
    116          6           0       -3.422208   -4.884735    0.723866
    117          6           0       -6.762608   -3.814391    0.919449
    118          8           0       -7.224384   -4.900579    1.266859
    119          6           0       -7.816802   -2.699266    0.505249
    120          6           0       -8.832121   -2.586946    1.609348
    121          8           0       -8.499015   -2.176246    2.734956
    122          8           0      -10.062297   -2.773899    1.097419
    123          6           0      -11.104604   -2.661044    2.152253
    124          1           0       -6.973355    3.596815   -2.290634
    125          1           0       -0.820737    3.122803   -1.325188
    126          1           0       -1.480555   -2.914083    0.273349
    127          1           0       -9.448159   -0.468619   -0.978441
    128          1           0       -9.059361    2.268231   -1.522131
    129          1           0       -8.546709   -0.208640   -3.116645
    130          1           0       -7.487283    1.161884   -3.508557
    131          1           0       -9.203918    1.377241   -3.671206
    132          1           0       -9.047570    1.918766    0.839728
    133          1           0       -9.177794    0.286362    1.590404
    134          1           0      -11.367334    0.611223   -0.200656
    135          1           0      -11.077264    2.190400    0.437265
    136          1           0       -6.397581    5.621120   -2.183786
    137          1           0       -4.953184    6.353717   -2.797146
    138          1           0       -5.392699    6.676361   -1.103185
    139          1           0       -3.024305    7.281167   -2.168938
    140          1           0       -1.570828    7.720622   -1.100765
    141          1           0       -3.167152    7.289020   -0.423351
    142          1           0        0.728483    1.329728   -0.384721
    143          1           0        0.288996   -1.502970   -1.184364
    144          1           0        1.723879    1.268864   -2.418092
    145          1           0        0.083149    1.078821   -3.130797
    146          1           0        0.997102   -0.296375   -2.771399
    147          1           0        1.938612   -0.768193    0.579351
    148          1           0        0.935469   -2.135174    1.026634
    149          1           0        0.932074    0.675829    1.851473
    150          1           0        0.795604   -0.777696    2.906667
    151          1           0       -0.630229   -0.139494    1.971790
    152          1           0       -3.849080   -5.377356    1.587347
    153          1           0       -2.344628   -4.771131    0.822301
    154          1           0       -3.701908   -5.334121   -0.232740
    155          1           0       -8.269445   -3.010241   -0.437076
    156          1           0      -11.685861   -3.587976    2.127526
    157          1           0      -11.646455   -1.720825    1.937450
    158          1           0      -10.773830   -2.646283    3.184151
 ---------------------------------------------------------------------

 SCF Done:  E(RCAM-B3LYP) =  -4069.81340912     A.U. after   19 cycles

 Excitation energies and oscillator strengths:

 Excited State   1:      Singlet-A      1.6397 eV  756.15 nm  f=0.0017  <S**2>=0.000
     309 -> 315       -0.11433
     310 -> 316        0.11774
     311 -> 313       -0.47656
     312 -> 314        0.49617
 This state for optimization and/or second-order correction.
 Total Energy, E(TD-HF/TD-DFT) =  -4069.75315224
 Copying the excited state density for this state as the 1-particle RhoCI density.

 Excited State   2:      Singlet-A      1.7044 eV  727.45 nm  f=0.6841  <S**2>=0.000
     309 -> 315        0.13177
     310 -> 316        0.12446
     311 -> 313        0.49352
     312 -> 314        0.47384

 Excited State   3:      Singlet-A      2.1821 eV  568.19 nm  f=0.1134  <S**2>=0.000
     310 -> 314        0.64245
     312 -> 316       -0.26905

 Excited State   4:      Singlet-A      2.1973 eV  564.27 nm  f=0.0894  <S**2>=0.000
     309 -> 313        0.63850
     311 -> 315       -0.27920

 Excited State   5:      Singlet-A      2.3373 eV  530.46 nm  f=0.0002  <S**2>=0.000
     312 -> 313        0.70478

 The electronic state is 1-A.
 Alpha  occ. eigenvalues --  -46.87936 -46.87420 -19.26478 -19.26191 -19.19280
 Alpha  occ. eigenvalues --  -19.18992 -19.18642 -19.18598 -19.18257 -19.17837
 Alpha  occ. eigenvalues --  -14.42539 -14.42262 -14.41513 -14.41097 -14.39474
 Alpha  occ. eigenvalues --  -14.39123 -14.38682 -14.38350 -10.39311 -10.38917
 Alpha  occ. eigenvalues --  -10.35280 -10.35264 -10.34488 -10.34013 -10.31838
 Alpha  occ. eigenvalues --  -10.31618 -10.31525 -10.31066 -10.30969 -10.30828
 Alpha  occ. eigenvalues --  -10.30675 -10.30572 -10.30218 -10.30144 -10.30102
 Alpha  occ. eigenvalues --  -10.29995 -10.29858 -10.29660 -10.29618 -10.29286
 Alpha  occ. eigenvalues --  -10.29193 -10.29159 -10.28856 -10.28659 -10.28544
 Alpha  occ. eigenvalues --  -10.28523 -10.28425 -10.28209 -10.28191 -10.27955
 Alpha  occ. eigenvalues --  -10.27838 -10.27806 -10.27762 -10.27581 -10.27495
 Alpha  occ. eigenvalues --  -10.27476 -10.27436 -10.27435 -10.27348 -10.27311
 Alpha  occ. eigenvalues --  -10.27282 -10.27251 -10.27245 -10.27105 -10.27033
 Alpha  occ. eigenvalues --  -10.26869 -10.26848 -10.26538 -10.26351 -10.26305
 Alpha  occ. eigenvalues --  -10.26098 -10.26079 -10.26028 -10.25905 -10.25858
 Alpha  occ. eigenvalues --  -10.25845 -10.25593 -10.25432 -10.25413 -10.25088
 Alpha  occ. eigenvalues --  -10.24903 -10.24831 -10.24633 -10.24523 -10.24454
 Alpha  occ. eigenvalues --  -10.24445  -3.16645  -3.16170  -1.91533  -1.91111
 Alpha  occ. eigenvalues --   -1.91052  -1.90954  -1.90640  -1.90477  -1.16833
 Alpha  occ. eigenvalues --   -1.16482  -1.08731  -1.08446  -1.07030  -1.06879
 Alpha  occ. eigenvalues --   -1.06856  -1.06775  -1.04664  -1.04268  -1.03819
 Alpha  occ. eigenvalues --   -1.03420  -1.03297  -1.02780  -1.02476  -1.01863
 Alpha  occ. eigenvalues --   -0.92061  -0.91755  -0.89536  -0.89286  -0.89201
 Alpha  occ. eigenvalues --   -0.88956  -0.88295  -0.87953  -0.87922  -0.87743
 Alpha  occ. eigenvalues --   -0.87507  -0.87434  -0.87192  -0.86938  -0.85052
 Alpha  occ. eigenvalues --   -0.84800  -0.83940  -0.83613  -0.82866  -0.82770
 Alpha  occ. eigenvalues --   -0.82615  -0.82462  -0.81684  -0.81383  -0.80640
 Alpha  occ. eigenvalues --   -0.80231  -0.78777  -0.78412  -0.77250  -0.77014
 Alpha  occ. eigenvalues --   -0.76914  -0.76671  -0.75999  -0.75631  -0.74920
 Alpha  occ. eigenvalues --   -0.74537  -0.72824  -0.72435  -0.71730  -0.71341
 Alpha  occ. eigenvalues --   -0.69929  -0.69428  -0.68916  -0.68627  -0.67681
 Alpha  occ. eigenvalues --   -0.67375  -0.67243  -0.67032  -0.65379  -0.65073
 Alpha  occ. eigenvalues --   -0.64934  -0.64683  -0.64522  -0.64433  -0.64291
 Alpha  occ. eigenvalues --   -0.63927  -0.62413  -0.62059  -0.60404  -0.60130
 Alpha  occ. eigenvalues --   -0.59889  -0.59588  -0.59050  -0.58746  -0.58561
 Alpha  occ. eigenvalues --   -0.58189  -0.57710  -0.57339  -0.57324  -0.56995
 Alpha  occ. eigenvalues --   -0.56354  -0.56094  -0.55960  -0.55696  -0.55483
 Alpha  occ. eigenvalues --   -0.55396  -0.55266  -0.54997  -0.54602  -0.54259
 Alpha  occ. eigenvalues --   -0.53990  -0.53723  -0.53335  -0.53199  -0.53029
 Alpha  occ. eigenvalues --   -0.52994  -0.52931  -0.52701  -0.52646  -0.52523
 Alpha  occ. eigenvalues --   -0.52400  -0.52232  -0.51976  -0.51642  -0.51565
 Alpha  occ. eigenvalues --   -0.51478  -0.51270  -0.50980  -0.50401  -0.50320
 Alpha  occ. eigenvalues --   -0.50012  -0.49915  -0.49784  -0.49602  -0.49509
 Alpha  occ. eigenvalues --   -0.49316  -0.49239  -0.49153  -0.49003  -0.48885
 Alpha  occ. eigenvalues --   -0.48670  -0.48486  -0.48357  -0.48347  -0.48189
 Alpha  occ. eigenvalues --   -0.48095  -0.47700  -0.47377  -0.47296  -0.46897
 Alpha  occ. eigenvalues --   -0.46853  -0.46638  -0.46445  -0.46428  -0.46347
 Alpha  occ. eigenvalues --   -0.46242  -0.46004  -0.45927  -0.45806  -0.45567
 Alpha  occ. eigenvalues --   -0.45213  -0.45017  -0.44675  -0.44478  -0.44334
 Alpha  occ. eigenvalues --   -0.44234  -0.44171  -0.44107  -0.43967  -0.43938
 Alpha  occ. eigenvalues --   -0.43834  -0.43753  -0.43575  -0.43433  -0.43355
 Alpha  occ. eigenvalues --   -0.43174  -0.43057  -0.42851  -0.42765  -0.42682
 Alpha  occ. eigenvalues --   -0.42606  -0.42326  -0.42032  -0.41787  -0.41749
 Alpha  occ. eigenvalues --   -0.41543  -0.41441  -0.41276  -0.41178  -0.40888
 Alpha  occ. eigenvalues --   -0.40788  -0.40695  -0.40601  -0.40575  -0.40479
 Alpha  occ. eigenvalues --   -0.40289  -0.40165  -0.40074  -0.39426  -0.38964
 Alpha  occ. eigenvalues --   -0.38490  -0.38068  -0.37847  -0.37464  -0.37354
 Alpha  occ. eigenvalues --   -0.37344  -0.37004  -0.36975  -0.36868  -0.36574
 Alpha  occ. eigenvalues --   -0.36278  -0.35936  -0.34349  -0.34002  -0.33992
 Alpha  occ. eigenvalues --   -0.33679  -0.33261  -0.32925  -0.31220  -0.31157
 Alpha  occ. eigenvalues --   -0.31059  -0.30735  -0.30125  -0.29739  -0.29461
 Alpha  occ. eigenvalues --   -0.29361  -0.29117  -0.28966  -0.24161  -0.23784
 Alpha  occ. eigenvalues --   -0.21185  -0.20870
 Alpha virt. eigenvalues --   -0.08810  -0.08557  -0.01809  -0.01462  -0.00016
 Alpha virt. eigenvalues --    0.00148   0.02130   0.02409   0.02895   0.03556
 Alpha virt. eigenvalues --    0.04623   0.04848   0.04946   0.05347   0.05949

 Mulliken charges:
               1
     1  Mg   0.795666
     2  C   -0.001576
     3  C   -0.093191
     4  C   -0.044798
     5  C   -0.063134
     6  N   -0.249880
     7  C   -0.057066
     8  C   -0.012305
     9  C   -0.087041
    10  C    0.047940
    11  C    0.104603
    12  C    0.048159
    13  C   -0.071661
    14  H    0.036020
    15  N   -0.436077
    16  C    0.169366
    17  C   -0.174650
    18  C   -0.000730
    19  C    0.150752
    20  C    0.109679
    21  C    0.017804
    22  O   -0.249332
    23  C    0.059148
    24  N   -0.333791
    25  C    0.045071
    26  C   -0.028370
    27  C   -0.024095
    28  C    0.071406
    29  C    0.076473
    30  C    0.037283
    31  C   -0.008841
    32  N   -0.312658
    33  C    0.077603
    34  C   -0.172898
    35  C    0.008054
    36  C    0.077753
    37  C    0.127709
    38  C    0.044334
    39  O   -0.188646
    40  C   -0.007167
    41  C    0.214202
    42  O   -0.261319
    43  O   -0.303989
    44  C    0.157353
    45  H   -0.017404
    46  H   -0.016278
    47  H   -0.043128
    48  H    0.000671
    49  H   -0.003441
    50  H    0.025734
    51  H    0.017240
    52  H    0.017109
    53  H    0.013214
    54  H    0.044172
    55  H    0.018347
    56  H    0.018738
    57  H    0.005096
    58  H    0.026765
    59  H    0.044945
    60  H    0.034835
    61  H    0.035584
    62  H    0.041867
    63  H    0.017765
    64  H    0.009356
    65  H    0.023706
    66  H    0.012603
    67  H    0.004882
    68  H    0.006040
    69  H    0.003800
    70  H    0.008003
    71  H    0.019930
    72  H    0.029116
    73  H    0.046370
    74  H    0.009405
    75  H    0.046395
    76  H    0.035913
    77  H    0.043849
    78  H    0.046890
    79  H    0.053158
    80  Mg   0.837551
    81  C   -0.017513
    82  C   -0.088433
    83  C   -0.045053
    84  C   -0.064775
    85  N   -0.254641
    86  C   -0.049665
    87  C   -0.015120
    88  C   -0.090403
    89  C    0.045559
    90  C    0.114587
    91  C    0.062617
    92  C   -0.077584
    93  H    0.034368
    94  N   -0.423219
    95  C    0.162502
    96  C   -0.175478
    97  C   -0.008936
    98  C    0.152100
    99  C    0.099661
   100  C    0.015703
   101  O   -0.256236
   102  C    0.061562
   103  N   -0.349932
   104  C    0.036083
   105  C   -0.025730
   106  C   -0.039109
   107  C    0.089106
   108  C    0.065238
   109  C    0.018868
   110  C   -0.015896
   111  N   -0.324273
   112  C    0.078046
   113  C   -0.162057
   114  C    0.001933
   115  C    0.096604
   116  C    0.131282
   117  C    0.042601
   118  O   -0.187914
   119  C    0.000912
   120  C    0.211199
   121  O   -0.251283
   122  O   -0.305638
   123  C    0.152176
   124  H   -0.020694
   125  H   -0.017012
   126  H   -0.032077
   127  H   -0.000934
   128  H   -0.004887
   129  H    0.022318
   130  H    0.014286
   131  H    0.015528
   132  H    0.013879
   133  H    0.037594
   134  H    0.020605
   135  H    0.019314
   136  H    0.008376
   137  H    0.024746
   138  H    0.039096
   139  H    0.037612
   140  H    0.034131
   141  H    0.034739
   142  H    0.014683
   143  H    0.029068
   144  H    0.031022
   145  H    0.008216
   146  H    0.014737
   147  H    0.023204
   148  H    0.016550
   149  H    0.012869
   150  H    0.033065
   151  H    0.026637
   152  H    0.045056
   153  H    0.013531
   154  H    0.047961
   155  H    0.034728
   156  H    0.043663
   157  H    0.049245
   158  H    0.053367
 Sum of Mulliken charges =  -0.00000

 Dipole moment (field-independent basis, Debye):
    X=              1.2163    Y=              6.3612    Z=             -5.0386  Tot=              8.2056
 Quadrupole moment (field-independent basis, Debye-Ang):
   XX=           -456.6081   YY=           -543.0676   ZZ=           -479.2867
   XY=            -30.3011   XZ=              4.6491   YZ=            -10.4361

 Normal termination of Gaussian 16 at Fri Sep 10 08:51:02 2021.
