 Gaussian 16, Revision A.03,
 Gaussian 16:  ES64L-G16RevA.03 25-Dec-2016

 -----------------------------------
 #p cam-b3lyp/Def2SVP td=(nstates=5)
 -----------------------------------

 --------------------------------
 TDDFT excited states in gaussian
 --------------------------------
 Symbolic Z-matrix:
 Charge =  0 Multiplicity = 1

                         Standard orientation:
 ---------------------------------------------------------------------
 Center     Atomic      Atomic             Coordinates (Angstroms)
 Number     Number       Type             X           Y           Z
 ---------------------------------------------------------------------
      1         12           0       -6.420596   -0.970299    0.253081
      2          6           0       -6.735634    2.593586    0.361180
      3          6           0       -7.384974   -0.807453   -3.015943
      4          6           0       -6.589755   -4.136998    0.258262
      5          6           0       -6.594286   -0.943547    3.733710
      6          7           0       -6.962403    0.735405   -1.049864
      7          6           0       -6.985021    2.056504   -0.903729
      8          6           0       -7.224584    2.821835   -2.239488
      9          6           0       -7.961824    1.670877   -3.060324
     10          6           0       -7.375868    0.458485   -2.358409
     11          6           0       -9.475547    1.662924   -2.873030
     12          6           0       -5.884956    3.248785   -2.928576
     13          6           0       -6.028426    4.274637   -4.056583
     14          1           0       -4.988610    5.278189   -4.226921
     15          7           0       -6.437174   -2.254878   -1.247729
     16          6           0       -6.846914   -2.013101   -2.516171
     17          6           0       -6.664892   -3.282639   -3.252256
     18          6           0       -6.295096   -4.333023   -2.263297
     19          6           0       -6.453517   -3.613543   -1.025303
     20          6           0       -6.793633   -3.396753   -4.740259
     21          6           0       -5.877022   -5.761940   -2.410069
     22          8           0       -5.826430   -6.561587   -1.413786
     23          6           0       -5.609975   -6.230682   -3.781932
     24          7           0       -6.790682   -2.370128    1.756793
     25          6           0       -6.749344   -3.682710    1.503011
     26          6           0       -6.762791   -4.484603    2.770578
     27          6           0       -6.576213   -3.435189    3.959557
     28          6           0       -6.569559   -2.131065    3.124401
     29          6           0       -8.025998   -5.319923    3.020696
     30          6           0       -5.405732   -3.687345    4.942822
     31          6           0       -4.085988   -3.501339    4.228136
     32          7           0       -6.449788    0.543277    1.808485
     33          6           0       -6.548446    0.329730    3.190996
     34          6           0       -6.639362    1.656559    3.827651
     35          6           0       -6.603733    2.555086    2.763120
     36          6           0       -6.523755    1.834299    1.537411
     37          6           0       -6.797391    1.903784    5.219894
     38          6           0       -6.639451    3.955653    2.374544
     39          8           0       -6.609093    5.025721    2.984074
     40          6           0       -6.849108    4.033018    0.797875
     41          6           0       -5.846726    5.014029    0.253672
     42          8           0       -4.624332    4.765166    0.288089
     43          8           0       -6.489424    5.973117   -0.430165
     44          6           0       -5.550226    6.963188   -1.021621
     45          1           0       -7.901477   -0.901312   -3.973208
     46          1           0       -6.541072   -5.226500    0.313523
     47          1           0       -6.565777   -0.853908    4.821186
     48          1           0       -7.874519    3.692867   -2.153977
     49          1           0       -7.676457    1.674477   -4.112120
     50          1           0       -9.785501    2.369893   -2.103585
     51          1           0       -9.726905    0.644125   -2.577461
     52          1           0       -9.984197    1.833682   -3.822184
     53          1           0       -5.486981    2.406021   -3.493752
     54          1           0       -5.173277    3.621214   -2.190921
     55          1           0       -7.013139    4.742773   -4.046725
     56          1           0       -5.990351    3.743805   -5.007881
     57          1           0       -7.234772   -2.500202   -5.174008
     58          1           0       -7.523782   -4.181428   -4.937432
     59          1           0       -5.845743   -3.648636   -5.216065
     60          1           0       -6.506774   -6.099888   -4.387897
     61          1           0       -5.237425   -7.249765   -3.684324
     62          1           0       -4.843118   -5.597108   -4.228544
     63          1           0       -5.939611   -5.197613    2.790997
     64          1           0       -7.456097   -3.383461    4.601276
     65          1           0       -7.827771   -6.383219    3.157851
     66          1           0       -8.710063   -5.153745    2.188993
     67          1           0       -8.630021   -4.993082    3.866716
     68          1           0       -5.431201   -4.713692    5.307387
     69          1           0       -5.422162   -3.026903    5.809885
     70          1           0       -3.930016   -4.467516    3.749589
     71          1           0       -3.292142   -3.287883    4.944694
     72          1           0       -4.163208   -2.754774    3.437462
     73          1           0       -6.118516    2.720922    5.463577
     74          1           0       -6.573504    1.014040    5.807970
     75          1           0       -7.852244    2.175195    5.258328
     76          1           0       -7.874718    4.362149    0.633807
     77          1           0       -5.853306    7.947007   -0.663185
     78          1           0       -5.557658    6.792549   -2.098297
     79          1           0       -4.520168    6.922820   -0.665686
     80         12           0        6.802594   -0.539388   -0.091735
     81          6           0        5.849864    2.913968    0.122016
     82          6           0        5.283669   -0.614812   -3.144897
     83          6           0        7.229260   -3.683402   -0.115800
     84          6           0        7.215319   -0.495910    3.368530
     85          7           0        5.739451    1.013224   -1.254224
     86          6           0        5.493242    2.305416   -1.099433
     87          6           0        4.900055    3.001891   -2.353469
     88          6           0        4.253803    1.713296   -3.061102
     89          6           0        5.166517    0.633620   -2.483232
     90          6           0        2.831235    1.428404   -2.608894
     91          6           0        6.006424    3.656815   -3.252940
     92          6           0        5.480478    4.614479   -4.324395
     93          1           0        6.277171    5.792299   -4.656812
     94          7           0        6.771014   -1.828188   -1.600571
     95          6           0        6.122142   -1.689532   -2.775732
     96          6           0        6.397345   -2.919257   -3.534806
     97          6           0        7.125630   -3.865617   -2.646709
     98          6           0        7.050269   -3.155024   -1.385977
     99          6           0        6.048395   -3.074670   -4.986533
    100          6           0        7.770596   -5.196617   -2.888914
    101          8           0        8.138652   -5.952512   -1.921450
    102          6           0        7.873628   -5.629934   -4.290019
    103          7           0        6.964206   -1.951999    1.425080
    104          6           0        7.199645   -3.245420    1.143005
    105          6           0        7.550246   -4.020733    2.390552
    106          6           0        7.738506   -2.924070    3.539229
    107          6           0        7.360222   -1.655964    2.742872
    108          6           0        6.521135   -5.057381    2.840742
    109          6           0        9.086423   -2.937544    4.310997
    110          6           0       10.213526   -2.533034    3.388282
    111          7           0        6.761816    0.962647    1.460767
    112          6           0        6.934458    0.760759    2.847688
    113          6           0        6.707230    2.062242    3.508702
    114          6           0        6.393072    2.932894    2.454298
    115          6           0        6.402640    2.219613    1.225217
    116          6           0        6.754299    2.302557    4.910895
    117          6           0        6.045119    4.290830    2.102703
    118          8           0        5.972573    5.355372    2.715264
    119          6           0        5.553975    4.311451    0.591167
    120          6           0        6.249668    5.447208   -0.107824
    121          8           0        7.482425    5.428811   -0.270866
    122          8           0        5.326959    6.257811   -0.657277
    123          6           0        5.968561    7.393673   -1.371409
    124          1           0        4.642324   -0.808229   -4.005218
    125          1           0        7.489044   -4.743870   -0.078587
    126          1           0        7.421146   -0.377894    4.434545
    127          1           0        4.131217    3.736015   -2.144360
    128          1           0        4.358012    1.762311   -4.141887
    129          1           0        2.530334    2.072330   -1.795897
    130          1           0        2.824436    0.393124   -2.293970
    131          1           0        2.146046    1.489257   -3.459272
    132          1           0        6.450925    2.884173   -3.893386
    133          1           0        6.740606    4.156073   -2.650993
    134          1           0        4.434700    4.894841   -4.149177
    135          1           0        5.459890    4.087167   -5.281223
    136          1           0        5.373326   -2.279133   -5.325375
    137          1           0        5.455037   -3.991016   -5.076453
    138          1           0        6.930332   -3.160647   -5.624867
    139          1           0        6.879697   -5.671819   -4.729101
    140          1           0        8.442044   -6.561725   -4.266687
    141          1           0        8.433466   -4.872667   -4.850153
    142          1           0        8.481401   -4.558927    2.262501
    143          1           0        6.985458   -3.032616    4.333557
    144          1           0        6.938411   -6.078577    2.925064
    145          1           0        5.693237   -5.041204    2.144416
    146          1           0        6.030577   -4.839959    3.787996
    147          1           0        9.315334   -3.948936    4.655736
    148          1           0        9.091657   -2.291367    5.182445
    149          1           0       10.457352   -3.466650    2.872528
    150          1           0       11.062924   -2.164388    3.959826
    151          1           0        9.866172   -1.819629    2.631948
    152          1           0        7.295479    3.228978    5.050011
    153          1           0        7.230829    1.479614    5.439537
    154          1           0        5.685964    2.369461    5.133271
    155          1           0        4.470762    4.438457    0.600380
    156          1           0        5.549432    8.313064   -0.950997
    157          1           0        5.794121    7.206698   -2.447683
    158          1           0        7.028620    7.551898   -1.211122
 ---------------------------------------------------------------------

 SCF Done:  E(RCAM-B3LYP) =  -4069.81158857     A.U. after   19 cycles

 Excitation energies and oscillator strengths:

 Excited State   1:      Singlet-A      1.6652 eV  744.57 nm  f=0.0060  <S**2>=0.000
     309 -> 315       -0.11092
     310 -> 316        0.13048
     311 -> 313       -0.44295
     312 -> 314        0.52467
 This state for optimization and/or second-order correction.
 Total Energy, E(TD-HF/TD-DFT) =  -4069.75039433
 Copying the excited state density for this state as the 1-particle RhoCI density.

 Excited State   2:      Singlet-A      1.6893 eV  733.92 nm  f=0.7367  <S**2>=0.000
     309 -> 315        0.13610
     310 -> 316        0.11411
     311 -> 313        0.52344
     312 -> 314        0.44201

 Excited State   3:      Singlet-A      2.1845 eV  567.55 nm  f=0.0439  <S**2>=0.000
     309 -> 313       -0.19628
     310 -> 314        0.61242
     312 -> 316       -0.25896

 Excited State   4:      Singlet-A      2.1933 eV  565.29 nm  f=0.1460  <S**2>=0.000
     309 -> 313        0.60997
     310 -> 314        0.19457
     311 -> 315       -0.26582

 Excited State   5:      Singlet-A      2.6364 eV  470.29 nm  f=0.0000  <S**2>=0.000
     312 -> 313        0.70707

 The electronic state is 1-A.
 Alpha  occ. eigenvalues --  -46.87882 -46.87542 -19.26354 -19.26202 -19.19093
 Alpha  occ. eigenvalues --  -19.19022 -19.18903 -19.18622 -19.18232 -19.17904
 Alpha  occ. eigenvalues --  -14.42538 -14.42378 -14.41531 -14.41243 -14.39489
 Alpha  occ. eigenvalues --  -14.39237 -14.38668 -14.38478 -10.39152 -10.38948
 Alpha  occ. eigenvalues --  -10.35538 -10.35302 -10.34453 -10.34079 -10.31746
 Alpha  occ. eigenvalues --  -10.31623 -10.31490 -10.31181 -10.31003 -10.30905
 Alpha  occ. eigenvalues --  -10.30651 -10.30586 -10.30290 -10.30279 -10.30238
 Alpha  occ. eigenvalues --  -10.30037 -10.29994 -10.29776 -10.29711 -10.29340
 Alpha  occ. eigenvalues --  -10.29327 -10.29286 -10.28855 -10.28683 -10.28586
 Alpha  occ. eigenvalues --  -10.28565 -10.28450 -10.28283 -10.28215 -10.28006
 Alpha  occ. eigenvalues --  -10.27881 -10.27871 -10.27815 -10.27669 -10.27590
 Alpha  occ. eigenvalues --  -10.27567 -10.27555 -10.27514 -10.27488 -10.27422
 Alpha  occ. eigenvalues --  -10.27395 -10.27360 -10.27355 -10.27277 -10.27230
 Alpha  occ. eigenvalues --  -10.26890 -10.26841 -10.26586 -10.26515 -10.26349
 Alpha  occ. eigenvalues --  -10.26321 -10.26243 -10.26098 -10.26053 -10.25890
 Alpha  occ. eigenvalues --  -10.25850 -10.25822 -10.25717 -10.25493 -10.25301
 Alpha  occ. eigenvalues --  -10.24909 -10.24867 -10.24748 -10.24748 -10.24650
 Alpha  occ. eigenvalues --  -10.24574  -3.16626  -3.16292  -1.91507  -1.91174
 Alpha  occ. eigenvalues --   -1.91094  -1.90936  -1.90763  -1.90600  -1.16703
 Alpha  occ. eigenvalues --   -1.16498  -1.08688  -1.08507  -1.07304  -1.06876
 Alpha  occ. eigenvalues --   -1.06805  -1.06714  -1.04669  -1.04374  -1.03843
 Alpha  occ. eigenvalues --   -1.03546  -1.03316  -1.02923  -1.02493  -1.01993
 Alpha  occ. eigenvalues --   -0.92052  -0.91856  -0.89593  -0.89385  -0.89289
 Alpha  occ. eigenvalues --   -0.89022  -0.88359  -0.88116  -0.87940  -0.87763
 Alpha  occ. eigenvalues --   -0.87669  -0.87569  -0.87366  -0.87024  -0.85081
 Alpha  occ. eigenvalues --   -0.84881  -0.84004  -0.83773  -0.83057  -0.82844
 Alpha  occ. eigenvalues --   -0.82740  -0.82537  -0.81662  -0.81468  -0.80679
 Alpha  occ. eigenvalues --   -0.80323  -0.78883  -0.78529  -0.77303  -0.77031
 Alpha  occ. eigenvalues --   -0.77021  -0.76779  -0.76007  -0.75709  -0.74969
 Alpha  occ. eigenvalues --   -0.74693  -0.72852  -0.72581  -0.71752  -0.71458
 Alpha  occ. eigenvalues --   -0.69975  -0.69660  -0.68967  -0.68710  -0.67723
 Alpha  occ. eigenvalues --   -0.67487  -0.67328  -0.67096  -0.65381  -0.65148
 Alpha  occ. eigenvalues --   -0.64933  -0.64704  -0.64652  -0.64533  -0.64343
 Alpha  occ. eigenvalues --   -0.64096  -0.62371  -0.62149  -0.60528  -0.60238
 Alpha  occ. eigenvalues --   -0.59898  -0.59670  -0.59067  -0.58874  -0.58582
 Alpha  occ. eigenvalues --   -0.58305  -0.57657  -0.57413  -0.57385  -0.57123
 Alpha  occ. eigenvalues --   -0.56390  -0.56088  -0.56059  -0.55760  -0.55605
 Alpha  occ. eigenvalues --   -0.55408  -0.55340  -0.55132  -0.54593  -0.54370
 Alpha  occ. eigenvalues --   -0.53996  -0.53788  -0.53382  -0.53314  -0.53117
 Alpha  occ. eigenvalues --   -0.53026  -0.52995  -0.52854  -0.52783  -0.52571
 Alpha  occ. eigenvalues --   -0.52504  -0.52306  -0.51976  -0.51754  -0.51716
 Alpha  occ. eigenvalues --   -0.51546  -0.51271  -0.51078  -0.50673  -0.50391
 Alpha  occ. eigenvalues --   -0.50107  -0.50009  -0.49868  -0.49765  -0.49607
 Alpha  occ. eigenvalues --   -0.49378  -0.49295  -0.49184  -0.49079  -0.48971
 Alpha  occ. eigenvalues --   -0.48670  -0.48541  -0.48520  -0.48432  -0.48268
 Alpha  occ. eigenvalues --   -0.48233  -0.47781  -0.47483  -0.47379  -0.47014
 Alpha  occ. eigenvalues --   -0.46878  -0.46655  -0.46596  -0.46437  -0.46437
 Alpha  occ. eigenvalues --   -0.46234  -0.46160  -0.45966  -0.45892  -0.45691
 Alpha  occ. eigenvalues --   -0.45273  -0.45101  -0.44652  -0.44598  -0.44390
 Alpha  occ. eigenvalues --   -0.44361  -0.44223  -0.44182  -0.44099  -0.44002
 Alpha  occ. eigenvalues --   -0.43974  -0.43827  -0.43568  -0.43474  -0.43429
 Alpha  occ. eigenvalues --   -0.43265  -0.43105  -0.42804  -0.42771  -0.42770
 Alpha  occ. eigenvalues --   -0.42724  -0.42453  -0.42088  -0.41857  -0.41782
 Alpha  occ. eigenvalues --   -0.41632  -0.41540  -0.41345  -0.41224  -0.40963
 Alpha  occ. eigenvalues --   -0.40919  -0.40866  -0.40645  -0.40624  -0.40590
 Alpha  occ. eigenvalues --   -0.40384  -0.40355  -0.40120  -0.39509  -0.39331
 Alpha  occ. eigenvalues --   -0.38547  -0.38245  -0.37859  -0.37545  -0.37398
 Alpha  occ. eigenvalues --   -0.37362  -0.37156  -0.37081  -0.36785  -0.36640
 Alpha  occ. eigenvalues --   -0.36270  -0.36100  -0.34368  -0.34134  -0.33845
 Alpha  occ. eigenvalues --   -0.33727  -0.33267  -0.33057  -0.31432  -0.31181
 Alpha  occ. eigenvalues --   -0.31118  -0.30853  -0.30091  -0.29806  -0.29534
 Alpha  occ. eigenvalues --   -0.29398  -0.29216  -0.29086  -0.24164  -0.23915
 Alpha  occ. eigenvalues --   -0.21210  -0.21000
 Alpha virt. eigenvalues --   -0.08857  -0.08675  -0.01833  -0.01570  -0.00146
 Alpha virt. eigenvalues --    0.00081   0.02129   0.02338   0.03015   0.03332
 Alpha virt. eigenvalues --    0.04622   0.04847   0.05025   0.05307   0.06061

 Mulliken charges:
               1
     1  Mg   0.838280
     2  C   -0.003137
     3  C   -0.094575
     4  C   -0.045780
     5  C   -0.063794
     6  N   -0.256736
     7  C   -0.052598
     8  C   -0.013900
     9  C   -0.086921
    10  C    0.046081
    11  C    0.104793
    12  C    0.053647
    13  C   -0.071558
    14  H    0.035443
    15  N   -0.433107
    16  C    0.168170
    17  C   -0.177510
    18  C   -0.004113
    19  C    0.148558
    20  C    0.110239
    21  C    0.012148
    22  O   -0.249393
    23  C    0.062626
    24  N   -0.341132
    25  C    0.041193
    26  C   -0.028203
    27  C   -0.024054
    28  C    0.074903
    29  C    0.076109
    30  C    0.035061
    31  C   -0.004513
    32  N   -0.310557
    33  C    0.080512
    34  C   -0.169345
    35  C    0.008600
    36  C    0.082996
    37  C    0.127210
    38  C    0.046405
    39  O   -0.187703
    40  C   -0.005429
    41  C    0.213083
    42  O   -0.257258
    43  O   -0.304767
    44  C    0.157526
    45  H   -0.017694
    46  H   -0.016706
    47  H   -0.041146
    48  H    0.001196
    49  H   -0.004418
    50  H    0.025655
    51  H    0.016599
    52  H    0.016664
    53  H    0.010389
    54  H    0.043908
    55  H    0.018386
    56  H    0.017551
    57  H    0.005695
    58  H    0.026989
    59  H    0.038718
    60  H    0.037433
    61  H    0.035778
    62  H    0.030745
    63  H    0.016627
    64  H    0.009667
    65  H    0.023347
    66  H    0.012550
    67  H    0.004906
    68  H    0.006534
    69  H    0.004951
    70  H    0.008801
    71  H    0.018294
    72  H    0.028790
    73  H    0.048168
    74  H    0.009296
    75  H    0.046196
    76  H    0.035310
    77  H    0.043452
    78  H    0.045956
    79  H    0.053912
    80  Mg   0.837875
    81  C   -0.016679
    82  C   -0.087818
    83  C   -0.045578
    84  C   -0.064925
    85  N   -0.254549
    86  C   -0.049341
    87  C   -0.015227
    88  C   -0.090667
    89  C    0.045909
    90  C    0.114315
    91  C    0.062586
    92  C   -0.077615
    93  H    0.034401
    94  N   -0.423433
    95  C    0.162837
    96  C   -0.174895
    97  C   -0.008009
    98  C    0.152044
    99  C    0.099554
   100  C    0.015424
   101  O   -0.253382
   102  C    0.061284
   103  N   -0.350031
   104  C    0.037489
   105  C   -0.019781
   106  C   -0.034826
   107  C    0.089056
   108  C    0.073700
   109  C    0.034759
   110  C   -0.007615
   111  N   -0.324230
   112  C    0.078699
   113  C   -0.162976
   114  C    0.002720
   115  C    0.096149
   116  C    0.131388
   117  C    0.042900
   118  O   -0.187193
   119  C    0.000670
   120  C    0.211099
   121  O   -0.251475
   122  O   -0.305059
   123  C    0.152203
   124  H   -0.020264
   125  H   -0.015814
   126  H   -0.040531
   127  H    0.000404
   128  H   -0.005126
   129  H    0.024833
   130  H    0.014248
   131  H    0.015474
   132  H    0.013562
   133  H    0.037627
   134  H    0.021067
   135  H    0.019011
   136  H    0.008273
   137  H    0.025624
   138  H    0.039367
   139  H    0.037987
   140  H    0.036114
   141  H    0.033702
   142  H    0.014163
   143  H    0.012400
   144  H    0.024867
   145  H    0.011869
   146  H    0.005535
   147  H    0.006047
   148  H    0.003604
   149  H    0.010805
   150  H    0.017752
   151  H    0.030205
   152  H    0.045956
   153  H    0.008184
   154  H    0.047830
   155  H    0.037011
   156  H    0.044126
   157  H    0.049100
   158  H    0.053231
 Sum of Mulliken charges =  -0.00000

 Dipole moment (field-independent basis, Debye):
    X=             -4.5344    Y=             -3.0495    Z=             -6.9537  Tot=              8.8439
 Quadrupole moment (field-independent basis, Debye-Ang):
   XX=           -518.2775   YY=           -556.2883   ZZ=           -446.9691
   XY=             -6.9889   XZ=             16.1152   YZ=            -43.0309

 Normal termination of Gaussian 16 at Sat Sep 11 14:44:10 2021.
