 Gaussian 16, Revision A.03,
 Gaussian 16:  ES64L-G16RevA.03 25-Dec-2016

 -----------------------------------
 #p cam-b3lyp/Def2SVP td=(nstates=5)
 -----------------------------------

 --------------------------------
 TDDFT excited states in gaussian
 --------------------------------
 Symbolic Z-matrix:
 Charge =  0 Multiplicity = 1

                         Standard orientation:
 ---------------------------------------------------------------------
 Center     Atomic      Atomic             Coordinates (Angstroms)
 Number     Number       Type             X           Y           Z
 ---------------------------------------------------------------------
      1         12           0        3.864677   -0.559885    1.124493
      2          6           0        4.648703    2.226913   -0.980566
      3          6           0        3.936595    1.603078    3.762576
      4          6           0        3.624058   -3.069289    3.048452
      5          6           0        4.960624   -2.629137   -1.456739
      6          7           0        4.252893    1.616060    1.247774
      7          6           0        4.481790    2.579212    0.360579
      8          6           0        4.452634    4.008792    0.979308
      9          6           0        4.791815    3.635445    2.491778
     10          6           0        4.264292    2.211676    2.514676
     11          6           0        6.286949    3.610186    2.792506
     12          6           0        3.043661    4.680825    0.857255
     13          6           0        3.011203    6.186059    1.137558
     14          1           0        2.100276    7.021824    0.370059
     15          7           0        3.317253   -0.673733    3.019280
     16          6           0        3.401882    0.309684    3.947188
     17          6           0        2.870202   -0.266239    5.201107
     18          6           0        2.646272   -1.721099    4.974544
     19          6           0        3.218908   -1.886824    3.663056
     20          6           0        2.582538    0.549407    6.424104
     21          6           0        2.025624   -2.794149    5.812095
     22          8           0        2.140587   -4.034303    5.523346
     23          6           0        1.345523   -2.355081    7.044054
     24          7           0        4.440162   -2.557228    0.931954
     25          6           0        4.165808   -3.449786    1.889584
     26          6           0        4.413889   -4.851522    1.416792
     27          6           0        4.685899   -4.746890   -0.153181
     28          6           0        4.623434   -3.206627   -0.301370
     29          6           0        5.580937   -5.587854    2.088971
     30          6           0        3.797180   -5.613698   -1.080133
     31          6           0        2.369680   -5.116469   -1.034242
     32          7           0        4.499552   -0.294150   -0.933992
     33          6           0        4.934639   -1.292380   -1.817683
     34          6           0        5.360104   -0.616563   -3.057166
     35          6           0        5.157196    0.738018   -2.800684
     36          6           0        4.662613    0.900167   -1.475019
     37          6           0        5.913235   -1.250769   -4.204450
     38          6           0        5.266392    2.087958   -3.329453
     39          8           0        5.536039    2.568544   -4.431188
     40          6           0        5.056842    3.114345   -2.130101
     41          6           0        4.079280    4.160233   -2.592488
     42          8           0        2.888786    3.865647   -2.823373
     43          8           0        4.633544    5.375297   -2.462294
     44          6           0        3.704927    6.460842   -2.876320
     45          1           0        4.163290    2.138519    4.686619
     46          1           0        3.453389   -3.971581    3.639366
     47          1           0        5.234309   -3.216195   -2.335324
     48          1           0        5.207399    4.689855    0.585724
     49          1           0        4.239620    4.255547    3.197664
     50          1           0        6.878039    3.726811    1.884248
     51          1           0        6.475939    2.637667    3.247459
     52          1           0        6.542027    4.350552    3.551169
     53          1           0        2.405541    4.327479    1.667199
     54          1           0        2.607528    4.487227   -0.123375
     55          1           0        4.014340    6.613405    1.136485
     56          1           0        2.653919    6.336118    2.156396
     57          1           0        3.002829    1.551252    6.345326
     58          1           0        3.127656    0.090214    7.248541
     59          1           0        1.518106    0.577523    6.657613
     60          1           0        2.057726   -1.829529    7.680538
     61          1           0        0.885664   -3.247112    7.467918
     62          1           0        0.574689   -1.629597    6.782448
     63          1           0        3.541938   -5.481719    1.587023
     64          1           0        5.704011   -5.038476   -0.412217
     65          1           0        5.292527   -6.528059    2.559650
     66          1           0        6.034298   -4.911126    2.812708
     67          1           0        6.424930   -5.801284    1.433578
     68          1           0        3.787750   -6.647918   -0.737721
     69          1           0        4.127879   -5.611238   -2.118826
     70          1           0        1.970114   -5.605150   -0.146340
     71          1           0        1.829162   -5.428787   -1.928395
     72          1           0        2.328129   -4.040977   -0.860816
     73          1           0        5.433625   -0.790666   -5.068307
     74          1           0        5.742470   -2.326865   -4.182997
     75          1           0        6.965921   -0.992665   -4.090029
     76          1           0        6.035035    3.538759   -1.906198
     77          1           0        4.215320    7.045204   -3.641991
     78          1           0        3.403654    6.975693   -1.963868
     79          1           0        2.810366    6.149818   -3.417027
     80         12           0       -3.726232   -0.720535   -1.163226
     81          6           0       -5.233338    1.642218    1.078441
     82          6           0       -3.462448    1.819310   -3.424685
     83          6           0       -2.813198   -2.865089   -3.316054
     84          6           0       -5.126222   -3.249905    0.783052
     85          7           0       -4.307754    1.411389   -1.068427
     86          6           0       -4.815953    2.211052   -0.142890
     87          6           0       -4.806474    3.717166   -0.518514
     88          6           0       -4.776317    3.566147   -2.117000
     89          6           0       -4.109034    2.196218   -2.220539
     90          6           0       -6.159719    3.471801   -2.738791
     91          6           0       -3.529166    4.457644    0.012696
     92          6           0       -3.599499    5.985113   -0.047884
     93          1           0       -2.959651    6.754072    1.015962
     94          7           0       -2.772165   -0.483759   -2.887252
     95          6           0       -2.753810    0.621052   -3.662067
     96          6           0       -1.927563    0.279462   -4.830305
     97          6           0       -1.595514   -1.169622   -4.762450
     98          6           0       -2.415996   -1.575734   -3.639072
     99          6           0       -1.465528    1.302247   -5.827234
    100          6           0       -0.698971   -2.047516   -5.582021
    101          8           0       -0.744619   -3.325432   -5.494425
    102          6           0        0.168024   -1.370616   -6.557523
    103          7           0       -4.110558   -2.752145   -1.380477
    104          6           0       -3.547183   -3.459789   -2.375356
    105          6           0       -3.745288   -4.942682   -2.169997
    106          6           0       -4.352372   -5.095287   -0.698342
    107          6           0       -4.489446   -3.602867   -0.325137
    108          6           0       -4.665471   -5.636266   -3.174280
    109          6           0       -3.597171   -6.035623    0.280482
    110          6           0       -2.247622   -5.447112    0.623634
    111          7           0       -4.800151   -0.829016    0.708397
    112          6           0       -5.317540   -1.987114    1.329069
    113          6           0       -6.066111   -1.543679    2.522985
    114          6           0       -5.950753   -0.145575    2.501150
    115          6           0       -5.201464    0.255413    1.362178
    116          6           0       -6.773424   -2.389675    3.423054
    117          6           0       -6.301463    1.082895    3.176842
    118          8           0       -6.853989    1.362345    4.240034
    119          6           0       -5.959938    2.302881    2.216949
    120          6           0       -5.213853    3.331976    3.021209
    121          8           0       -4.084703    3.080440    3.477668
    122          8           0       -5.857715    4.510266    2.934921
    123          6           0       -5.149833    5.565657    3.707481
    124          1           0       -3.539230    2.484693   -4.285059
    125          1           0       -2.429931   -3.653731   -3.967698
    126          1           0       -5.508863   -3.983920    1.495437
    127          1           0       -5.688808    4.266955   -0.213565
    128          1           0       -4.152373    4.329722   -2.574183
    129          1           0       -6.934343    3.402881   -1.989557
    130          1           0       -6.146338    2.580433   -3.352249
    131          1           0       -6.322277    4.307678   -3.425251
    132          1           0       -2.697718    4.280166   -0.681516
    133          1           0       -3.296182    4.145997    1.012303
    134          1           0       -4.621399    6.344172   -0.220315
    135          1           0       -3.044724    6.323467   -0.926374
    136          1           0       -2.003128    2.251094   -5.708639
    137          1           0       -1.765449    0.942042   -6.817267
    138          1           0       -0.382576    1.442761   -5.815414
    139          1           0       -0.445414   -0.802454   -7.252758
    140          1           0        0.797546   -2.154771   -6.982590
    141          1           0        0.794122   -0.645759   -6.025361
    142          1           0       -2.799934   -5.469233   -2.216495
    143          1           0       -5.371337   -5.508966   -0.718803
    144          1           0       -4.179292   -6.477932   -3.702775
    145          1           0       -5.018755   -4.896899   -3.880712
    146          1           0       -5.595079   -6.021835   -2.759104
    147          1           0       -3.403291   -7.000299   -0.194883
    148          1           0       -4.142365   -6.232318    1.197579
    149          1           0       -1.621259   -5.759138   -0.217436
    150          1           0       -1.879351   -5.855157    1.562728
    151          1           0       -2.283437   -4.351505    0.619312
    152          1           0       -6.544188   -2.042600    4.421797
    153          1           0       -6.494784   -3.432975    3.290152
    154          1           0       -7.801540   -2.195777    3.105799
    155          1           0       -6.903658    2.690265    1.831074
    156          1           0       -5.874209    5.986078    4.411908
    157          1           0       -4.723620    6.253155    2.952868
    158          1           0       -4.360015    5.250425    4.379244
 ---------------------------------------------------------------------

 SCF Done:  E(RCAM-B3LYP) =  -4069.81330447     A.U. after   18 cycles

 Excitation energies and oscillator strengths:

 Excited State   1:      Singlet-A      1.6384 eV  756.76 nm  f=0.0150  <S**2>=0.000
     309 -> 315        0.11381
     310 -> 316        0.11886
     311 -> 313       -0.47458
     312 -> 314        0.49851
 This state for optimization and/or second-order correction.
 Total Energy, E(TD-HF/TD-DFT) =  -4069.75309568
 Copying the excited state density for this state as the 1-particle RhoCI density.

 Excited State   2:      Singlet-A      1.7112 eV  724.54 nm  f=0.6697  <S**2>=0.000
     309 -> 315       -0.13305
     310 -> 316        0.12596
     311 -> 313        0.49519
     312 -> 314        0.47156

 Excited State   3:      Singlet-A      2.1837 eV  567.76 nm  f=0.0061  <S**2>=0.000
     309 -> 313        0.38491
     310 -> 314        0.51744
     311 -> 315        0.16014
     312 -> 316       -0.21607

 Excited State   4:      Singlet-A      2.1988 eV  563.88 nm  f=0.1645  <S**2>=0.000
     309 -> 313        0.51259
     310 -> 314       -0.38019
     311 -> 315        0.22721
     312 -> 316        0.16874

 Excited State   5:      Singlet-A      2.3628 eV  524.74 nm  f=0.0000  <S**2>=0.000
     312 -> 313        0.70706

 The electronic state is 1-A.
 Alpha  occ. eigenvalues --  -46.87665 -46.87412 -19.26434 -19.26328 -19.19176
 Alpha  occ. eigenvalues --  -19.19128 -19.18624 -19.18408 -19.18167 -19.17871
 Alpha  occ. eigenvalues --  -14.42324 -14.42247 -14.41310 -14.41116 -14.39261
 Alpha  occ. eigenvalues --  -14.39085 -14.38474 -14.38360 -10.39214 -10.39043
 Alpha  occ. eigenvalues --  -10.35249 -10.35074 -10.34391 -10.34057 -10.31881
 Alpha  occ. eigenvalues --  -10.31794 -10.31307 -10.31078 -10.30782 -10.30753
 Alpha  occ. eigenvalues --  -10.30458 -10.30389 -10.30167 -10.30111 -10.30026
 Alpha  occ. eigenvalues --  -10.29861 -10.29807 -10.29694 -10.29502 -10.29141
 Alpha  occ. eigenvalues --  -10.29130 -10.29094 -10.28672 -10.28550 -10.28536
 Alpha  occ. eigenvalues --  -10.28512 -10.28248 -10.28142 -10.28021 -10.27915
 Alpha  occ. eigenvalues --  -10.27734 -10.27678 -10.27590 -10.27433 -10.27394
 Alpha  occ. eigenvalues --  -10.27311 -10.27303 -10.27301 -10.27296 -10.27249
 Alpha  occ. eigenvalues --  -10.27204 -10.27193 -10.27167 -10.27166 -10.26901
 Alpha  occ. eigenvalues --  -10.26891 -10.26645 -10.26498 -10.26151 -10.26115
 Alpha  occ. eigenvalues --  -10.25950 -10.25929 -10.25923 -10.25861 -10.25831
 Alpha  occ. eigenvalues --  -10.25794 -10.25679 -10.25667 -10.25307 -10.25244
 Alpha  occ. eigenvalues --  -10.24742 -10.24661 -10.24626 -10.24484 -10.24460
 Alpha  occ. eigenvalues --  -10.24358  -3.16408  -3.16162  -1.91290  -1.91045
 Alpha  occ. eigenvalues --   -1.90876  -1.90718  -1.90633  -1.90470  -1.16781
 Alpha  occ. eigenvalues --   -1.16617  -1.08647  -1.08500  -1.07023  -1.06907
 Alpha  occ. eigenvalues --   -1.06792  -1.06664  -1.04461  -1.04245  -1.03626
 Alpha  occ. eigenvalues --   -1.03413  -1.03104  -1.02790  -1.02284  -1.01863
 Alpha  occ. eigenvalues --   -0.91894  -0.91769  -0.89357  -0.89263  -0.89098
 Alpha  occ. eigenvalues --   -0.88937  -0.88128  -0.88004  -0.87781  -0.87567
 Alpha  occ. eigenvalues --   -0.87547  -0.87435  -0.87079  -0.86744  -0.84887
 Alpha  occ. eigenvalues --   -0.84782  -0.83780  -0.83672  -0.82760  -0.82618
 Alpha  occ. eigenvalues --   -0.82535  -0.82374  -0.81580  -0.81452  -0.80509
 Alpha  occ. eigenvalues --   -0.80232  -0.78636  -0.78317  -0.77088  -0.76898
 Alpha  occ. eigenvalues --   -0.76871  -0.76723  -0.75858  -0.75632  -0.74769
 Alpha  occ. eigenvalues --   -0.74597  -0.72653  -0.72452  -0.71568  -0.71365
 Alpha  occ. eigenvalues --   -0.69703  -0.69533  -0.68770  -0.68601  -0.67534
 Alpha  occ. eigenvalues --   -0.67372  -0.67108  -0.66951  -0.65207  -0.65066
 Alpha  occ. eigenvalues --   -0.64780  -0.64565  -0.64521  -0.64450  -0.64117
 Alpha  occ. eigenvalues --   -0.63985  -0.62307  -0.62146  -0.60268  -0.60030
 Alpha  occ. eigenvalues --   -0.59705  -0.59567  -0.58883  -0.58771  -0.58407
 Alpha  occ. eigenvalues --   -0.58209  -0.57596  -0.57411  -0.57183  -0.56994
 Alpha  occ. eigenvalues --   -0.56225  -0.55994  -0.55973  -0.55734  -0.55388
 Alpha  occ. eigenvalues --   -0.55255  -0.55209  -0.55059  -0.54465  -0.54331
 Alpha  occ. eigenvalues --   -0.53811  -0.53701  -0.53177  -0.53106  -0.52996
 Alpha  occ. eigenvalues --   -0.52909  -0.52861  -0.52701  -0.52570  -0.52295
 Alpha  occ. eigenvalues --   -0.52221  -0.52176  -0.51855  -0.51691  -0.51511
 Alpha  occ. eigenvalues --   -0.51405  -0.51113  -0.51001  -0.50321  -0.50074
 Alpha  occ. eigenvalues --   -0.49849  -0.49757  -0.49681  -0.49609  -0.49402
 Alpha  occ. eigenvalues --   -0.49222  -0.49123  -0.49026  -0.48947  -0.48907
 Alpha  occ. eigenvalues --   -0.48554  -0.48375  -0.48370  -0.48279  -0.48194
 Alpha  occ. eigenvalues --   -0.48032  -0.47570  -0.47340  -0.47159  -0.46835
 Alpha  occ. eigenvalues --   -0.46672  -0.46488  -0.46475  -0.46331  -0.46247
 Alpha  occ. eigenvalues --   -0.46067  -0.46022  -0.45883  -0.45802  -0.45666
 Alpha  occ. eigenvalues --   -0.45056  -0.44998  -0.44538  -0.44353  -0.44330
 Alpha  occ. eigenvalues --   -0.44250  -0.44060  -0.43957  -0.43924  -0.43887
 Alpha  occ. eigenvalues --   -0.43847  -0.43631  -0.43479  -0.43420  -0.43271
 Alpha  occ. eigenvalues --   -0.43178  -0.42930  -0.42816  -0.42773  -0.42689
 Alpha  occ. eigenvalues --   -0.42477  -0.42302  -0.41872  -0.41751  -0.41614
 Alpha  occ. eigenvalues --   -0.41463  -0.41436  -0.41248  -0.41038  -0.40773
 Alpha  occ. eigenvalues --   -0.40754  -0.40644  -0.40500  -0.40418  -0.40416
 Alpha  occ. eigenvalues --   -0.40286  -0.40143  -0.39996  -0.39277  -0.39142
 Alpha  occ. eigenvalues --   -0.38320  -0.38144  -0.37683  -0.37474  -0.37179
 Alpha  occ. eigenvalues --   -0.37168  -0.37042  -0.36969  -0.36779  -0.36697
 Alpha  occ. eigenvalues --   -0.36116  -0.36029  -0.34174  -0.34026  -0.33881
 Alpha  occ. eigenvalues --   -0.33788  -0.33070  -0.32930  -0.31161  -0.30978
 Alpha  occ. eigenvalues --   -0.30917  -0.30733  -0.30034  -0.29787  -0.29320
 Alpha  occ. eigenvalues --   -0.29206  -0.29049  -0.28948  -0.23958  -0.23793
 Alpha  occ. eigenvalues --   -0.20995  -0.20855
 Alpha virt. eigenvalues --   -0.08641  -0.08522  -0.01609  -0.01433   0.00090
 Alpha virt. eigenvalues --    0.00266   0.02243   0.02345   0.02455   0.04415
 Alpha virt. eigenvalues --    0.04809   0.04948   0.04989   0.05233   0.06102

 Mulliken charges:
               1
     1  Mg   0.839030
     2  C   -0.003528
     3  C   -0.092307
     4  C   -0.045804
     5  C   -0.062667
     6  N   -0.256941
     7  C   -0.052773
     8  C   -0.014308
     9  C   -0.087324
    10  C    0.046848
    11  C    0.104796
    12  C    0.052887
    13  C   -0.071058
    14  H    0.033035
    15  N   -0.433551
    16  C    0.169775
    17  C   -0.175012
    18  C   -0.003020
    19  C    0.149072
    20  C    0.109817
    21  C    0.013164
    22  O   -0.250360
    23  C    0.061386
    24  N   -0.341268
    25  C    0.041846
    26  C   -0.028217
    27  C   -0.023962
    28  C    0.074526
    29  C    0.076340
    30  C    0.035196
    31  C   -0.007582
    32  N   -0.310021
    33  C    0.079929
    34  C   -0.171650
    35  C    0.006451
    36  C    0.082347
    37  C    0.127917
    38  C    0.043635
    39  O   -0.191287
    40  C   -0.004657
    41  C    0.212706
    42  O   -0.260031
    43  O   -0.303924
    44  C    0.158599
    45  H   -0.017362
    46  H   -0.016891
    47  H   -0.041122
    48  H    0.000106
    49  H   -0.003257
    50  H    0.025084
    51  H    0.016658
    52  H    0.016628
    53  H    0.014379
    54  H    0.042278
    55  H    0.017616
    56  H    0.019185
    57  H    0.005965
    58  H    0.026250
    59  H    0.044510
    60  H    0.036934
    61  H    0.035311
    62  H    0.035848
    63  H    0.016566
    64  H    0.008975
    65  H    0.022852
    66  H    0.012319
    67  H    0.004640
    68  H    0.005095
    69  H    0.005867
    70  H    0.008224
    71  H    0.024531
    72  H    0.028843
    73  H    0.044308
    74  H    0.010501
    75  H    0.045743
    76  H    0.035140
    77  H    0.042713
    78  H    0.047019
    79  H    0.050646
    80  Mg   0.837093
    81  C   -0.017251
    82  C   -0.083676
    83  C   -0.046084
    84  C   -0.064732
    85  N   -0.254601
    86  C   -0.050599
    87  C   -0.015181
    88  C   -0.090999
    89  C    0.045992
    90  C    0.114411
    91  C    0.061302
    92  C   -0.076838
    93  H    0.031172
    94  N   -0.424192
    95  C    0.164947
    96  C   -0.170721
    97  C   -0.006958
    98  C    0.152182
    99  C    0.098693
   100  C    0.016179
   101  O   -0.255901
   102  C    0.059117
   103  N   -0.350133
   104  C    0.038181
   105  C   -0.019786
   106  C   -0.034409
   107  C    0.088326
   108  C    0.074002
   109  C    0.034848
   110  C   -0.009218
   111  N   -0.323730
   112  C    0.077406
   113  C   -0.164306
   114  C    0.001362
   115  C    0.095251
   116  C    0.131829
   117  C    0.040987
   118  O   -0.190214
   119  C    0.001211
   120  C    0.211300
   121  O   -0.252860
   122  O   -0.305149
   123  C    0.152739
   124  H   -0.019266
   125  H   -0.016491
   126  H   -0.041151
   127  H   -0.001691
   128  H   -0.003101
   129  H    0.021900
   130  H    0.014506
   131  H    0.015981
   132  H    0.018355
   133  H    0.035972
   134  H    0.020297
   135  H    0.020473
   136  H    0.008829
   137  H    0.024188
   138  H    0.051333
   139  H    0.038218
   140  H    0.033996
   141  H    0.042051
   142  H    0.013430
   143  H    0.011745
   144  H    0.024219
   145  H    0.011678
   146  H    0.005382
   147  H    0.004893
   148  H    0.003623
   149  H    0.010873
   150  H    0.020509
   151  H    0.030143
   152  H    0.044353
   153  H    0.008360
   154  H    0.046175
   155  H    0.034595
   156  H    0.043372
   157  H    0.049578
   158  H    0.051524
 Sum of Mulliken charges =  -0.00000

 Dipole moment (field-independent basis, Debye):
    X=              1.0337    Y=              3.1122    Z=              0.2830  Tot=              3.2916
 Quadrupole moment (field-independent basis, Debye-Ang):
   XX=           -516.9207   YY=           -462.5258   ZZ=           -522.6249
   XY=              0.2327   XZ=             42.3008   YZ=              8.1202

 Normal termination of Gaussian 16 at Wed Sep  8 17:40:19 2021.
