 Gaussian 16, Revision A.03,
 Gaussian 16:  ES64L-G16RevA.03 25-Dec-2016

 -----------------------------------
 #p cam-b3lyp/Def2SVP td=(nstates=5)
 -----------------------------------

 --------------------------------
 TDDFT excited states in gaussian
 --------------------------------
 Symbolic Z-matrix:
 Charge =  0 Multiplicity = 1

                         Standard orientation:
 ---------------------------------------------------------------------
 Center     Atomic      Atomic             Coordinates (Angstroms)
 Number     Number       Type             X           Y           Z
 ---------------------------------------------------------------------
      1         12           0       -5.172137    0.514597   -0.740817
      2          6           0       -5.530128   -2.591033    1.002488
      3          6           0       -6.463872    2.043757    2.022542
      4          6           0       -5.290569    3.203496   -2.417844
      5          6           0       -4.994124   -1.331618   -3.691319
      6          7           0       -5.869152   -0.280257    1.204182
      7          6           0       -5.897482   -1.483112    1.769433
      8          6           0       -6.282497   -1.447592    3.278696
      9          6           0       -7.080785   -0.067675    3.302433
     10          6           0       -6.408182    0.622261    2.128756
     11          6           0       -8.567575   -0.218588    2.997177
     12          6           0       -5.026052   -1.398708    4.211803
     13          6           0       -5.298571   -1.689796    5.690436
     14          1           0       -4.297007   -2.414835    6.457597
     15          7           0       -5.320061    2.391788   -0.143218
     16          6           0       -5.859417    2.831548    1.019104
     17          6           0       -5.732848    4.304676    0.995528
     18          6           0       -5.248835    4.698198   -0.356865
     19          6           0       -5.292714    3.432756   -1.043965
     20          6           0       -6.009286    5.173402    2.184076
     21          6           0       -4.825500    6.008915   -0.940768
     22          8           0       -4.662189    6.172326   -2.198225
     23          6           0       -4.690976    7.134875    0.001124
     24          7           0       -5.366755    0.907930   -2.781662
     25          6           0       -5.330799    2.160449   -3.249516
     26          6           0       -5.203782    2.181655   -4.743958
     27          6           0       -4.914550    0.674322   -5.184465
     28          6           0       -5.012513   -0.000772   -3.794170
     29          6           0       -6.422140    2.712862   -5.511704
     30          6           0       -3.647042    0.422363   -6.039075
     31          6           0       -2.409207    0.689125   -5.212212
     32          7           0       -5.067802   -1.588023   -1.269162
     33          6           0       -5.023117   -2.131503   -2.561178
     34          6           0       -5.069981   -3.597946   -2.414836
     35          6           0       -5.155949   -3.806579   -1.039726
     36          6           0       -5.188843   -2.549541   -0.371096
     37          6           0       -5.090551   -4.541474   -3.479621
     38          6           0       -5.252503   -4.798600    0.018777
     39          8           0       -5.177465   -6.027303    0.065178
     40          6           0       -5.621362   -4.049959    1.374987
     41          6           0       -4.694411   -4.562153    2.443504
     42          8           0       -3.471055   -4.319657    2.399190
     43          8           0       -5.417690   -5.047933    3.464007
     44          6           0       -4.558501   -5.545688    4.571340
     45          1           0       -7.072807    2.602878    2.735650
     46          1           0       -5.219596    4.104933   -3.030063
     47          1           0       -4.857428   -1.974424   -4.562851
     48          1           0       -6.933973   -2.260151    3.600800
     49          1           0       -6.903097    0.489491    4.222060
     50          1           0       -8.809279   -1.234834    2.686139
     51          1           0       -8.771927    0.485306    2.190166
     52          1           0       -9.172001    0.111134    3.842594
     53          1           0       -4.674059   -0.369875    4.287061
     54          1           0       -4.249460   -2.072852    3.848814
     55          1           0       -6.284434   -2.132826    5.834331
     56          1           0       -5.348418   -0.739491    6.222070
     57          1           0       -6.505850    4.618369    2.979001
     58          1           0       -6.743294    5.916005    1.871854
     59          1           0       -5.110437    5.673887    2.544518
     60          1           0       -5.646270    7.304169    0.498418
     61          1           0       -4.294652    7.967032   -0.579644
     62          1           0       -3.983059    6.858468    0.783046
     63          1           0       -4.371739    2.811141   -5.056811
     64          1           0       -5.725889    0.260490   -5.783753
     65          1           0       -6.194548    3.555151   -6.165506
     66          1           0       -7.189141    2.978243   -4.784674
     67          1           0       -6.942729    1.968909   -6.114148
     68          1           0       -3.619606    1.105625   -6.887218
     69          1           0       -3.586181   -0.593562   -6.429515
     70          1           0       -2.287290    1.768321   -5.297671
     71          1           0       -1.550530    0.164705   -5.632769
     72          1           0       -2.577434    0.462583   -4.159186
     73          1           0       -4.403361   -5.338043   -3.194635
     74          1           0       -4.794636   -4.081388   -4.422148
     75          1           0       -6.140241   -4.834569   -3.469452
     76          1           0       -6.663294   -4.285393    1.589628
     77          1           0       -4.839151   -6.583057    4.753920
     78          1           0       -4.671878   -4.838664    5.393331
     79          1           0       -3.497281   -5.656265    4.345675
     80         12           0        5.321521    0.776386    0.666029
     81          6           0        5.487409   -2.001335   -1.600192
     82          6           0        4.177077   -1.407324    3.023203
     83          6           0        4.737126    3.265431    2.545014
     84          6           0        5.370356    2.872018   -2.118149
     85          7           0        4.925946   -1.398789    0.599977
     86          6           0        5.084433   -2.360338   -0.297054
     87          6           0        4.872275   -3.795751    0.254415
     88          6           0        3.929353   -3.436474    1.503685
     89          6           0        4.391667   -2.002578    1.754448
     90          6           0        2.450995   -3.407257    1.153068
     91          6           0        6.214509   -4.461433    0.720565
     92          6           0        6.129305   -5.967083    0.980431
     93          1           0        7.285817   -6.796434    0.653120
     94          7           0        5.040612    0.866015    2.628587
     95          6           0        4.592267   -0.121031    3.432342
     96          6           0        4.542672    0.453495    4.785719
     97          6           0        4.841150    1.908231    4.688988
     98          6           0        4.864572    2.077395    3.249925
     99          6           0        4.313125   -0.377555    6.014580
    100          6           0        5.055687    2.973722    5.720930
    101          8           0        5.066041    4.217693    5.412283
    102          6           0        5.160002    2.523228    7.116516
    103          7           0        4.874135    2.767703    0.269972
    104          6           0        4.718139    3.653265    1.269656
    105          6           0        4.677224    5.068171    0.743576
    106          6           0        5.082401    4.964484   -0.800007
    107          6           0        5.206070    3.430192   -0.926678
    108          6           0        3.333761    5.786208    0.869704
    109          6           0        6.271088    5.843661   -1.276195
    110          6           0        7.556457    5.359743   -0.644502
    111          7           0        5.596783    0.528621   -1.462561
    112          6           0        5.554142    1.536087   -2.451140
    113          6           0        5.681639    0.865919   -3.761500
    114          6           0        5.767154   -0.497809   -3.443057
    115          6           0        5.677553   -0.667337   -2.034959
    116          6           0        5.658105    1.509597   -5.030851
    117          6           0        5.902168   -1.833358   -3.978593
    118          8           0        6.106024   -2.304410   -5.096755
    119          6           0        5.599971   -2.876226   -2.817781
    120          6           0        6.685466   -3.917336   -2.834522
    121          8           0        7.859662   -3.610609   -2.562862
    122          8           0        6.126130   -5.135226   -2.954009
    123          6           0        7.162174   -6.202152   -2.964207
    124          1           0        3.599089   -1.959912    3.764463
    125          1           0        4.644717    4.167548    3.154212
    126          1           0        5.492574    3.463498   -3.028035
    127          1           0        4.356388   -4.469510   -0.419154
    128          1           0        4.153777   -4.064997    2.361565
    129          1           0        2.286455   -3.517287    0.091482
    130          1           0        2.086508   -2.447398    1.494923
    131          1           0        1.910640   -4.159453    1.734917
    132          1           0        6.456375   -4.109641    1.731737
    133          1           0        7.002805   -4.259393    0.021722
    134          1           0        5.212753   -6.405461    0.567269
    135          1           0        6.041898   -6.128914    2.057549
    136          1           0        3.961163   -1.384664    5.759137
    137          1           0        3.474017    0.074664    6.554266
    138          1           0        5.183656   -0.404593    6.673444
    139          1           0        4.253850    1.989090    7.392268
    140          1           0        5.400750    3.417274    7.694968
    141          1           0        5.983970    1.804854    7.191592
    142          1           0        5.399643    5.692092    1.255384
    143          1           0        4.256293    5.268673   -1.459433
    144          1           0        3.397514    6.735398    1.434558
    145          1           0        2.628918    5.111848    1.337648
    146          1           0        2.842283    6.015539   -0.074249
    147          1           0        6.133513    6.876742   -0.947611
    148          1           0        6.390159    5.861802   -2.354375
    149          1           0        7.545536    5.841847    0.337616
    150          1           0        8.415494    5.678807   -1.231270
    151          1           0        7.530649    4.276243   -0.480150
    152          1           0        6.446100    1.061817   -5.621661
    153          1           0        5.794665    2.584662   -4.934068
    154          1           0        4.648255    1.252202   -5.361360
    155          1           0        4.616816   -3.306709   -3.011898
    156          1           0        7.012951   -6.783653   -3.879241
    157          1           0        7.048917   -6.737742   -2.002923
    158          1           0        8.195879   -5.895947   -3.074425
 ---------------------------------------------------------------------

 SCF Done:  E(RCAM-B3LYP) =  -4069.81231512     A.U. after   19 cycles

 Excitation energies and oscillator strengths:

 Excited State   1:      Singlet-A      1.6684 eV  743.15 nm  f=0.2233  <S**2>=0.000
     310 -> 316        0.14083
     311 -> 313       -0.38937
     312 -> 314        0.56528
 This state for optimization and/or second-order correction.
 Total Energy, E(TD-HF/TD-DFT) =  -4069.75100382
 Copying the excited state density for this state as the 1-particle RhoCI density.

 Excited State   2:      Singlet-A      1.6826 eV  736.85 nm  f=0.4819  <S**2>=0.000
     309 -> 315        0.14544
     311 -> 313        0.56437
     312 -> 314        0.38876

 Excited State   3:      Singlet-A      2.1836 eV  567.80 nm  f=0.0848  <S**2>=0.000
     309 -> 313       -0.14881
     310 -> 314        0.62583
     312 -> 316       -0.26265

 Excited State   4:      Singlet-A      2.1936 eV  565.20 nm  f=0.1105  <S**2>=0.000
     309 -> 313        0.62311
     310 -> 314        0.14739
     311 -> 315       -0.27145

 Excited State   5:      Singlet-A      2.4751 eV  500.93 nm  f=0.0000  <S**2>=0.000
     312 -> 313        0.70709

 The electronic state is 1-A.
 Alpha  occ. eigenvalues --  -46.87896 -46.87474 -19.26527 -19.26146 -19.19269
 Alpha  occ. eigenvalues --  -19.18969 -19.18899 -19.18607 -19.18307 -19.17884
 Alpha  occ. eigenvalues --  -14.42555 -14.42281 -14.41541 -14.41181 -14.39500
 Alpha  occ. eigenvalues --  -14.39173 -14.38692 -14.38419 -10.39316 -10.38896
 Alpha  occ. eigenvalues --  -10.35531 -10.35288 -10.34531 -10.34056 -10.31953
 Alpha  occ. eigenvalues --  -10.31557 -10.31518 -10.31070 -10.31024 -10.30804
 Alpha  occ. eigenvalues --  -10.30675 -10.30606 -10.30283 -10.30234 -10.30173
 Alpha  occ. eigenvalues --  -10.30011 -10.29975 -10.29733 -10.29729 -10.29344
 Alpha  occ. eigenvalues --  -10.29263 -10.29240 -10.28895 -10.28749 -10.28474
 Alpha  occ. eigenvalues --  -10.28408 -10.28381 -10.28243 -10.28219 -10.27893
 Alpha  occ. eigenvalues --  -10.27829 -10.27827 -10.27764 -10.27680 -10.27552
 Alpha  occ. eigenvalues --  -10.27548 -10.27518 -10.27507 -10.27445 -10.27382
 Alpha  occ. eigenvalues --  -10.27326 -10.27317 -10.27311 -10.27288 -10.27254
 Alpha  occ. eigenvalues --  -10.26894 -10.26852 -10.26476 -10.26427 -10.26345
 Alpha  occ. eigenvalues --  -10.26344 -10.26198 -10.26103 -10.26022 -10.25925
 Alpha  occ. eigenvalues --  -10.25761 -10.25718 -10.25485 -10.25433 -10.25306
 Alpha  occ. eigenvalues --  -10.24941 -10.24882 -10.24701 -10.24694 -10.24623
 Alpha  occ. eigenvalues --  -10.24524  -3.16639  -3.16224  -1.91521  -1.91107
 Alpha  occ. eigenvalues --   -1.91106  -1.90950  -1.90694  -1.90532  -1.16875
 Alpha  occ. eigenvalues --   -1.16442  -1.08774  -1.08490  -1.07300  -1.06886
 Alpha  occ. eigenvalues --   -1.06863  -1.06753  -1.04690  -1.04281  -1.03856
 Alpha  occ. eigenvalues --   -1.03475  -1.03332  -1.02865  -1.02510  -1.01931
 Alpha  occ. eigenvalues --   -0.92094  -0.91793  -0.89593  -0.89337  -0.89321
 Alpha  occ. eigenvalues --   -0.88829  -0.88357  -0.88074  -0.87968  -0.87780
 Alpha  occ. eigenvalues --   -0.87628  -0.87475  -0.87360  -0.86979  -0.85112
 Alpha  occ. eigenvalues --   -0.84740  -0.84007  -0.83739  -0.83042  -0.82813
 Alpha  occ. eigenvalues --   -0.82774  -0.82421  -0.81747  -0.81403  -0.80723
 Alpha  occ. eigenvalues --   -0.80255  -0.78888  -0.78475  -0.77319  -0.77069
 Alpha  occ. eigenvalues --   -0.76943  -0.76665  -0.76057  -0.75571  -0.74982
 Alpha  occ. eigenvalues --   -0.74644  -0.72870  -0.72515  -0.71778  -0.71361
 Alpha  occ. eigenvalues --   -0.69957  -0.69616  -0.68996  -0.68586  -0.67751
 Alpha  occ. eigenvalues --   -0.67429  -0.67356  -0.66986  -0.65421  -0.65024
 Alpha  occ. eigenvalues --   -0.64978  -0.64740  -0.64579  -0.64442  -0.64348
 Alpha  occ. eigenvalues --   -0.64044  -0.62467  -0.62091  -0.60526  -0.60194
 Alpha  occ. eigenvalues --   -0.59926  -0.59529  -0.59094  -0.58807  -0.58615
 Alpha  occ. eigenvalues --   -0.58244  -0.57746  -0.57407  -0.57366  -0.57081
 Alpha  occ. eigenvalues --   -0.56421  -0.56163  -0.56025  -0.55686  -0.55625
 Alpha  occ. eigenvalues --   -0.55448  -0.55279  -0.55089  -0.54654  -0.54323
 Alpha  occ. eigenvalues --   -0.54033  -0.53611  -0.53396  -0.53345  -0.53063
 Alpha  occ. eigenvalues --   -0.53058  -0.52944  -0.52856  -0.52704  -0.52486
 Alpha  occ. eigenvalues --   -0.52471  -0.52268  -0.52014  -0.51749  -0.51734
 Alpha  occ. eigenvalues --   -0.51427  -0.51312  -0.51015  -0.50645  -0.50343
 Alpha  occ. eigenvalues --   -0.50100  -0.50010  -0.49792  -0.49698  -0.49633
 Alpha  occ. eigenvalues --   -0.49334  -0.49277  -0.49224  -0.49003  -0.48819
 Alpha  occ. eigenvalues --   -0.48732  -0.48565  -0.48537  -0.48331  -0.48236
 Alpha  occ. eigenvalues --   -0.48183  -0.47803  -0.47397  -0.47393  -0.46952
 Alpha  occ. eigenvalues --   -0.46895  -0.46692  -0.46516  -0.46462  -0.46282
 Alpha  occ. eigenvalues --   -0.46270  -0.46103  -0.45961  -0.45923  -0.45625
 Alpha  occ. eigenvalues --   -0.45277  -0.45059  -0.44709  -0.44606  -0.44337
 Alpha  occ. eigenvalues --   -0.44248  -0.44246  -0.44200  -0.44136  -0.43930
 Alpha  occ. eigenvalues --   -0.43859  -0.43761  -0.43646  -0.43494  -0.43359
 Alpha  occ. eigenvalues --   -0.43164  -0.43136  -0.42898  -0.42740  -0.42727
 Alpha  occ. eigenvalues --   -0.42709  -0.42407  -0.42103  -0.41818  -0.41784
 Alpha  occ. eigenvalues --   -0.41661  -0.41476  -0.41249  -0.41225  -0.40983
 Alpha  occ. eigenvalues --   -0.40921  -0.40752  -0.40648  -0.40569  -0.40472
 Alpha  occ. eigenvalues --   -0.40391  -0.40289  -0.39974  -0.39486  -0.39289
 Alpha  occ. eigenvalues --   -0.38549  -0.38182  -0.37904  -0.37417  -0.37403
 Alpha  occ. eigenvalues --   -0.37396  -0.37087  -0.36962  -0.36906  -0.36586
 Alpha  occ. eigenvalues --   -0.36321  -0.36032  -0.34391  -0.34063  -0.33996
 Alpha  occ. eigenvalues --   -0.33673  -0.33295  -0.32992  -0.31430  -0.31163
 Alpha  occ. eigenvalues --   -0.31141  -0.30781  -0.30170  -0.29785  -0.29546
 Alpha  occ. eigenvalues --   -0.29427  -0.29171  -0.29043  -0.24184  -0.23847
 Alpha  occ. eigenvalues --   -0.21225  -0.20930
 Alpha virt. eigenvalues --   -0.08874  -0.08618  -0.01845  -0.01507  -0.00158
 Alpha virt. eigenvalues --    0.00139   0.02086   0.02372   0.03007   0.03399
 Alpha virt. eigenvalues --    0.04595   0.04878   0.04964   0.05359   0.06001

 Mulliken charges:
               1
     1  Mg   0.838715
     2  C   -0.003630
     3  C   -0.094130
     4  C   -0.045732
     5  C   -0.063548
     6  N   -0.256822
     7  C   -0.052671
     8  C   -0.014038
     9  C   -0.087039
    10  C    0.046261
    11  C    0.104746
    12  C    0.053539
    13  C   -0.071338
    14  H    0.034110
    15  N   -0.433205
    16  C    0.168561
    17  C   -0.176872
    18  C   -0.003774
    19  C    0.148778
    20  C    0.110037
    21  C    0.012274
    22  O   -0.249548
    23  C    0.062364
    24  N   -0.341146
    25  C    0.041427
    26  C   -0.028233
    27  C   -0.024059
    28  C    0.074782
    29  C    0.076101
    30  C    0.035001
    31  C   -0.004716
    32  N   -0.310348
    33  C    0.080145
    34  C   -0.169725
    35  C    0.008041
    36  C    0.082655
    37  C    0.127380
    38  C    0.045537
    39  O   -0.189045
    40  C   -0.005177
    41  C    0.213090
    42  O   -0.259064
    43  O   -0.304177
    44  C    0.158224
    45  H   -0.017417
    46  H   -0.016596
    47  H   -0.040915
    48  H    0.000870
    49  H   -0.004015
    50  H    0.025503
    51  H    0.016759
    52  H    0.016843
    53  H    0.011455
    54  H    0.042775
    55  H    0.018387
    56  H    0.018427
    57  H    0.005919
    58  H    0.027060
    59  H    0.040187
    60  H    0.037559
    61  H    0.035686
    62  H    0.031881
    63  H    0.016672
    64  H    0.009702
    65  H    0.023424
    66  H    0.012474
    67  H    0.005043
    68  H    0.006733
    69  H    0.005366
    70  H    0.008389
    71  H    0.019600
    72  H    0.028434
    73  H    0.047187
    74  H    0.009826
    75  H    0.046154
    76  H    0.035428
    77  H    0.043267
    78  H    0.046544
    79  H    0.051659
    80  Mg   0.837832
    81  C   -0.016849
    82  C   -0.087303
    83  C   -0.046224
    84  C   -0.065107
    85  N   -0.254884
    86  C   -0.048912
    87  C   -0.015280
    88  C   -0.090539
    89  C    0.045901
    90  C    0.114271
    91  C    0.062416
    92  C   -0.077740
    93  H    0.033635
    94  N   -0.423512
    95  C    0.162883
    96  C   -0.174546
    97  C   -0.008556
    98  C    0.152393
    99  C    0.099512
   100  C    0.015052
   101  O   -0.254043
   102  C    0.061383
   103  N   -0.350118
   104  C    0.037652
   105  C   -0.019751
   106  C   -0.034879
   107  C    0.088955
   108  C    0.073721
   109  C    0.034866
   110  C   -0.007572
   111  N   -0.324076
   112  C    0.078506
   113  C   -0.163508
   114  C    0.002176
   115  C    0.096181
   116  C    0.131564
   117  C    0.041999
   118  O   -0.188468
   119  C    0.001151
   120  C    0.211192
   121  O   -0.251428
   122  O   -0.305181
   123  C    0.152224
   124  H   -0.018068
   125  H   -0.016557
   126  H   -0.040873
   127  H    0.000540
   128  H   -0.004756
   129  H    0.023221
   130  H    0.015061
   131  H    0.022374
   132  H    0.013294
   133  H    0.036908
   134  H    0.022292
   135  H    0.019507
   136  H    0.009468
   137  H    0.025265
   138  H    0.039217
   139  H    0.037726
   140  H    0.035610
   141  H    0.034003
   142  H    0.013903
   143  H    0.012724
   144  H    0.024036
   145  H    0.011006
   146  H    0.006307
   147  H    0.005803
   148  H    0.003575
   149  H    0.010591
   150  H    0.017591
   151  H    0.030360
   152  H    0.045623
   153  H    0.008288
   154  H    0.046406
   155  H    0.035901
   156  H    0.043630
   157  H    0.049977
   158  H    0.053056
 Sum of Mulliken charges =  -0.00000

 Dipole moment (field-independent basis, Debye):
    X=             -5.0625    Y=              1.7071    Z=              5.6248  Tot=              7.7577
 Quadrupole moment (field-independent basis, Debye-Ang):
   XX=           -518.5615   YY=           -518.1623   ZZ=           -481.9988
   XY=            -18.4147   XZ=              2.6443   YZ=            -18.9009

 Normal termination of Gaussian 16 at Sat Sep  4 06:21:19 2021.
