 Gaussian 16, Revision A.03,
 Gaussian 16:  ES64L-G16RevA.03 25-Dec-2016

 -----------------------------------
 #p cam-b3lyp/Def2SVP td=(nstates=5)
 -----------------------------------

 --------------------------------
 TDDFT excited states in gaussian
 --------------------------------
 Symbolic Z-matrix:
 Charge =  0 Multiplicity = 1

                         Standard orientation:
 ---------------------------------------------------------------------
 Center     Atomic      Atomic             Coordinates (Angstroms)
 Number     Number       Type             X           Y           Z
 ---------------------------------------------------------------------
      1         12           0       -4.400185   -0.817383   -0.099802
      2          6           0       -4.773264    1.849456    2.258375
      3          6           0       -5.294770    1.405031   -2.529546
      4          6           0       -4.519837   -3.250952   -2.129591
      5          6           0       -4.650881   -3.027511    2.583135
      6          7           0       -4.939796    1.328139   -0.021055
      7          6           0       -4.986299    2.248528    0.937011
      8          6           0       -5.208337    3.692663    0.396134
      9          6           0       -5.909218    3.336938   -0.991029
     10          6           0       -5.319960    1.955215   -1.213607
     11          6           0       -7.426389    3.213966   -0.893198
     12          6           0       -3.860705    4.459245    0.177110
     13          6           0       -3.995336    5.969975   -0.034843
     14          1           0       -2.967855    6.847249    0.505546
     15          7           0       -4.363603   -0.841333   -2.074881
     16          6           0       -4.749044    0.158156   -2.904184
     17          6           0       -4.531010   -0.344845   -4.277550
     18          6           0       -4.166689   -1.785753   -4.181904
     19          6           0       -4.363575   -2.026715   -2.775294
     20          6           0       -4.625149    0.521624   -5.495794
     21          6           0       -3.723172   -2.789322   -5.198897
     22          8           0       -3.682025   -4.041799   -4.945559
     23          6           0       -3.418676   -2.270325   -6.544619
     24          7           0       -4.781343   -2.854901    0.146930
     25          6           0       -4.713890   -3.699791   -0.887765
     26          6           0       -4.742696   -5.127747   -0.429451
     27          6           0       -4.598793   -5.084777    1.160265
     28          6           0       -4.594160   -3.548487    1.355358
     29          6           0       -5.997877   -5.926562   -0.806844
     30          6           0       -3.446446   -5.911039    1.784610
     31          6           0       -2.114357   -5.312945    1.391013
     32          7           0       -4.487307   -0.652563    2.062671
     33          6           0       -4.613033   -1.702431    2.983890
     34          6           0       -4.738701   -1.091916    4.320134
     35          6           0       -4.693704    0.280022    4.080117
     36          6           0       -4.575483    0.512272    2.679983
     37          6           0       -4.931202   -1.794231    5.542480
     38          6           0       -4.742771    1.604176    4.678504
     39          8           0       -4.742594    2.034745    5.832671
     40          6           0       -4.918841    2.674618    3.512751
     41          6           0       -3.920194    3.774311    3.750844
     42          8           0       -2.695109    3.558662    3.650704
     43          8           0       -4.562608    4.950140    3.823447
     44          6           0       -3.626222    6.087209    4.029390
     45          1           0       -5.788535    1.947667   -3.338053
     46          1           0       -4.455338   -4.122725   -2.784031
     47          1           0       -4.647733   -3.655823    3.475697
     48          1           0       -5.873549    4.307781    1.002390
     49          1           0       -5.600850    4.013285   -1.788015
     50          1           0       -7.764239    3.264051    0.141824
     51          1           0       -7.668220    2.243059   -1.326039
     52          1           0       -7.916624    3.954494   -1.525704
     53          1           0       -3.437239    4.173811   -0.785836
     54          1           0       -3.171359    4.270781    1.000887
     55          1           0       -4.987233    6.325047    0.246177
     56          1           0       -3.928018    6.172221   -1.103845
     57          1           0       -5.070607    1.488727   -5.265957
     58          1           0       -5.338409    0.047267   -6.169555
     59          1           0       -3.663185    0.631280   -5.996726
     60          1           0       -4.303850   -1.779633   -6.949881
     61          1           0       -3.032463   -3.115872   -7.112720
     62          1           0       -2.652179   -1.499367   -6.460629
     63          1           0       -3.909107   -5.689839   -0.848507
     64          1           0       -5.493297   -5.454553    1.662064
     65          1           0       -5.786102   -6.831027   -1.377631
     66          1           0       -6.665977   -5.264463   -1.356898
     67          1           0       -6.625426   -6.216709    0.035424
     68          1           0       -3.463872   -6.932441    1.405953
     69          1           0       -3.492301   -5.959855    2.872620
     70          1           0       -1.932782   -5.748123    0.408933
     71          1           0       -1.339921   -5.610079    2.098948
     72          1           0       -2.185820   -4.232946    1.260694
     73          1           0       -4.270728   -1.324660    6.271348
     74          1           0       -4.706422   -2.854573    5.429561
     75          1           0       -5.990764   -1.608325    5.717476
     76          1           0       -5.945615    3.034566    3.570153
     77          1           0       -3.952482    6.613226    4.926660
     78          1           0       -3.607270    6.646382    3.093777
     79          1           0       -2.603747    5.825908    4.304353
     80         12           0        4.579079   -0.460063    0.157943
     81          6           0        4.054088    2.011680   -2.390387
     82          6           0        5.923570    2.019281    2.076225
     83          6           0        5.463880   -2.685950    2.238798
     84          6           0        4.268174   -2.885418   -2.325343
     85          7           0        4.892590    1.696837   -0.218548
     86          6           0        4.597172    2.536691   -1.199224
     87          6           0        4.826302    4.032996   -0.855510
     88          6           0        5.922319    3.848358    0.303597
     89          6           0        5.540285    2.448618    0.780520
     90          6           0        7.348664    3.802278   -0.218658
     91          6           0        3.527960    4.727275   -0.313044
     92          6           0        3.594129    6.254814   -0.249590
     93          1           0        2.380384    7.016364   -0.531252
     94          7           0        5.094115   -0.300510    2.067875
     95          6           0        5.602296    0.786463    2.685557
     96          6           0        5.831235    0.385245    4.082260
     97          6           0        5.571148   -1.075354    4.199384
     98          6           0        5.382330   -1.422127    2.805047
     99          6           0        6.177934    1.366272    5.164300
    100          6           0        5.515814   -2.008266    5.371060
    101          8           0        5.509552   -3.280896    5.218759
    102          6           0        5.563473   -1.390060    6.704120
    103          7           0        5.041132   -2.476816   -0.045909
    104          6           0        5.343790   -3.228593    1.027009
    105          6           0        5.368144   -4.696880    0.674939
    106          6           0        4.779135   -4.792725   -0.808797
    107          6           0        4.591139   -3.288456   -1.104102
    108          6           0        6.739849   -5.369620    0.722129
    109          6           0        3.571684   -5.745266   -1.026496
    110          6           0        2.355392   -5.209768   -0.305901
    111          7           0        4.044718   -0.483214   -1.935378
    112          6           0        4.002466   -1.604609   -2.792568
    113          6           0        3.698218   -1.104549   -4.148968
    114          6           0        3.606581    0.286403   -3.989806
    115          6           0        3.857368    0.630855   -2.634093
    116          6           0        3.591716   -1.900201   -5.324439
    117          6           0        3.365209    1.542567   -4.662478
    118          8           0        3.014554    1.867565   -5.796117
    119          6           0        3.768992    2.726619   -3.681969
    120          6           0        2.655706    3.738056   -3.691960
    121          8           0        1.532810    3.446475   -3.243967
    122          8           0        3.156706    4.941498   -4.025266
    123          6           0        2.092439    5.980253   -4.037974
    124          1           0        6.567194    2.669785    2.669085
    125          1           0        5.657537   -3.503745    2.936791
    126          1           0        4.058070   -3.587287   -3.135223
    127          1           0        5.236109    4.627099   -1.663510
    128          1           0        5.781040    4.574335    1.100065
    129          1           0        7.382131    3.782698   -1.297848
    130          1           0        7.782439    2.898905    0.189764
    131          1           0        7.929454    4.630366    0.197605
    132          1           0        3.419676    4.499374    0.755172
    133          1           0        2.669197    4.426066   -0.880864
    134          1           0        4.440214    6.654849   -0.821475
    135          1           0        3.803638    6.550549    0.781260
    136          1           0        6.463873    2.340049    4.747865
    137          1           0        7.089600    0.999554    5.648276
    138          1           0        5.391495    1.459281    5.916313
    139          1           0        6.478018   -0.809744    6.800580
    140          1           0        5.422607   -2.209598    7.411504
    141          1           0        4.731209   -0.682758    6.791700
    142          1           0        4.732510   -5.265285    1.342764
    143          1           0        5.530496   -5.161568   -1.522417
    144          1           0        6.774808   -6.242386    1.401189
    145          1           0        7.472878   -4.629942    1.015521
    146          1           0        7.122844   -5.705458   -0.240016
    147          1           0        3.781089   -6.726988   -0.594597
    148          1           0        3.325914   -5.899144   -2.071921
    149          1           0        2.498778   -5.566032    0.718600
    150          1           0        1.443595   -5.614442   -0.740530
    151          1           0        2.365076   -4.113960   -0.278216
    152          1           0        2.724832   -1.543315   -5.864473
    153          1           0        3.502895   -2.957211   -5.082366
    154          1           0        4.546132   -1.667799   -5.804387
    155          1           0        4.707467    3.147181   -4.045247
    156          1           0        2.112697    6.446316   -5.027950
    157          1           0        2.301591    6.632888   -3.169594
    158          1           0        1.063542    5.644332   -3.983371
 ---------------------------------------------------------------------

 SCF Done:  E(RCAM-B3LYP) =  -4069.81251851     A.U. after   19 cycles

 Excitation energies and oscillator strengths:

 Excited State   1:      Singlet-A      1.6489 eV  751.92 nm  f=0.0232  <S**2>=0.000
     309 -> 315        0.12425
     310 -> 316        0.11148
     311 -> 313        0.51180
     312 -> 314        0.45932
 This state for optimization and/or second-order correction.
 Total Energy, E(TD-HF/TD-DFT) =  -4069.75192264
 Copying the excited state density for this state as the 1-particle RhoCI density.

 Excited State   2:      Singlet-A      1.7036 eV  727.77 nm  f=0.6835  <S**2>=0.000
     309 -> 315       -0.12072
     310 -> 316        0.13480
     311 -> 313       -0.45705
     312 -> 314        0.50928

 Excited State   3:      Singlet-A      2.1824 eV  568.12 nm  f=0.0161  <S**2>=0.000
     309 -> 313        0.56404
     310 -> 314       -0.31239
     311 -> 315       -0.23559
     312 -> 316        0.12934

 Excited State   4:      Singlet-A      2.1965 eV  564.46 nm  f=0.1591  <S**2>=0.000
     309 -> 313        0.30864
     310 -> 314        0.55958
     311 -> 315       -0.13642
     312 -> 316       -0.24585

 Excited State   5:      Singlet-A      2.4211 eV  512.09 nm  f=0.0000  <S**2>=0.000
     312 -> 313        0.70702

 The electronic state is 1-A.
 Alpha  occ. eigenvalues --  -46.87518 -46.87450 -19.26416 -19.26119 -19.19208
 Alpha  occ. eigenvalues --  -19.18829 -19.18555 -19.18469 -19.18019 -19.17901
 Alpha  occ. eigenvalues --  -14.42356 -14.42107 -14.41229 -14.41125 -14.39205
 Alpha  occ. eigenvalues --  -14.39045 -14.38475 -14.38259 -10.39126 -10.38882
 Alpha  occ. eigenvalues --  -10.35229 -10.35096 -10.34198 -10.34125 -10.31883
 Alpha  occ. eigenvalues --  -10.31574 -10.31193 -10.31082 -10.30884 -10.30556
 Alpha  occ. eigenvalues --  -10.30273 -10.30241 -10.30238 -10.30190 -10.29989
 Alpha  occ. eigenvalues --  -10.29871 -10.29782 -10.29634 -10.29302 -10.29287
 Alpha  occ. eigenvalues --  -10.29274 -10.28898 -10.28599 -10.28565 -10.28421
 Alpha  occ. eigenvalues --  -10.28280 -10.28274 -10.28023 -10.28021 -10.27883
 Alpha  occ. eigenvalues --  -10.27794 -10.27530 -10.27458 -10.27388 -10.27380
 Alpha  occ. eigenvalues --  -10.27364 -10.27328 -10.27268 -10.27262 -10.27245
 Alpha  occ. eigenvalues --  -10.27231 -10.27211 -10.27082 -10.27015 -10.27003
 Alpha  occ. eigenvalues --  -10.26902 -10.26540 -10.26326 -10.26204 -10.25994
 Alpha  occ. eigenvalues --  -10.25980 -10.25962 -10.25957 -10.25931 -10.25797
 Alpha  occ. eigenvalues --  -10.25783 -10.25696 -10.25586 -10.25302 -10.25224
 Alpha  occ. eigenvalues --  -10.24766 -10.24573 -10.24567 -10.24511 -10.24474
 Alpha  occ. eigenvalues --  -10.24473  -3.16267  -3.16191  -1.91149  -1.91073
 Alpha  occ. eigenvalues --   -1.90738  -1.90660  -1.90575  -1.90502  -1.16704
 Alpha  occ. eigenvalues --   -1.16461  -1.08642  -1.08372  -1.06992  -1.06873
 Alpha  occ. eigenvalues --   -1.06806  -1.06452  -1.04361  -1.04241  -1.03528
 Alpha  occ. eigenvalues --   -1.03434  -1.02908  -1.02898  -1.02082  -1.01984
 Alpha  occ. eigenvalues --   -0.91890  -0.91666  -0.89368  -0.89236  -0.89029
 Alpha  occ. eigenvalues --   -0.88864  -0.88096  -0.88011  -0.87692  -0.87564
 Alpha  occ. eigenvalues --   -0.87552  -0.87337  -0.86957  -0.86887  -0.84879
 Alpha  occ. eigenvalues --   -0.84662  -0.83763  -0.83684  -0.82775  -0.82614
 Alpha  occ. eigenvalues --   -0.82531  -0.82330  -0.81558  -0.81338  -0.80354
 Alpha  occ. eigenvalues --   -0.80296  -0.78495  -0.78437  -0.77021  -0.76914
 Alpha  occ. eigenvalues --   -0.76818  -0.76661  -0.75757  -0.75640  -0.74701
 Alpha  occ. eigenvalues --   -0.74632  -0.72579  -0.72459  -0.71475  -0.71376
 Alpha  occ. eigenvalues --   -0.69657  -0.69619  -0.68711  -0.68557  -0.67490
 Alpha  occ. eigenvalues --   -0.67327  -0.67062  -0.66879  -0.65166  -0.64973
 Alpha  occ. eigenvalues --   -0.64675  -0.64564  -0.64558  -0.64335  -0.64086
 Alpha  occ. eigenvalues --   -0.63982  -0.62251  -0.62066  -0.60194  -0.60093
 Alpha  occ. eigenvalues --   -0.59675  -0.59477  -0.58884  -0.58685  -0.58330
 Alpha  occ. eigenvalues --   -0.58203  -0.57522  -0.57330  -0.57122  -0.57017
 Alpha  occ. eigenvalues --   -0.56104  -0.55998  -0.55850  -0.55744  -0.55354
 Alpha  occ. eigenvalues --   -0.55190  -0.55165  -0.55094  -0.54425  -0.54291
 Alpha  occ. eigenvalues --   -0.53793  -0.53573  -0.53112  -0.53045  -0.52991
 Alpha  occ. eigenvalues --   -0.52891  -0.52812  -0.52637  -0.52506  -0.52382
 Alpha  occ. eigenvalues --   -0.52269  -0.52189  -0.51811  -0.51637  -0.51532
 Alpha  occ. eigenvalues --   -0.51279  -0.51118  -0.50915  -0.50295  -0.50161
 Alpha  occ. eigenvalues --   -0.49844  -0.49742  -0.49733  -0.49570  -0.49361
 Alpha  occ. eigenvalues --   -0.49193  -0.49102  -0.49019  -0.48905  -0.48803
 Alpha  occ. eigenvalues --   -0.48489  -0.48326  -0.48296  -0.48203  -0.48197
 Alpha  occ. eigenvalues --   -0.48106  -0.47482  -0.47383  -0.46996  -0.46975
 Alpha  occ. eigenvalues --   -0.46596  -0.46498  -0.46437  -0.46247  -0.46160
 Alpha  occ. eigenvalues --   -0.46046  -0.45997  -0.45890  -0.45769  -0.45571
 Alpha  occ. eigenvalues --   -0.45099  -0.44931  -0.44444  -0.44355  -0.44312
 Alpha  occ. eigenvalues --   -0.44178  -0.44045  -0.43964  -0.43849  -0.43810
 Alpha  occ. eigenvalues --   -0.43802  -0.43694  -0.43526  -0.43281  -0.43247
 Alpha  occ. eigenvalues --   -0.43077  -0.42923  -0.42811  -0.42735  -0.42493
 Alpha  occ. eigenvalues --   -0.42421  -0.42395  -0.41844  -0.41737  -0.41583
 Alpha  occ. eigenvalues --   -0.41410  -0.41341  -0.41229  -0.40882  -0.40843
 Alpha  occ. eigenvalues --   -0.40593  -0.40572  -0.40548  -0.40468  -0.40375
 Alpha  occ. eigenvalues --   -0.40301  -0.40082  -0.39883  -0.39312  -0.39164
 Alpha  occ. eigenvalues --   -0.38228  -0.38194  -0.37542  -0.37439  -0.37145
 Alpha  occ. eigenvalues --   -0.37079  -0.37026  -0.36938  -0.36782  -0.36500
 Alpha  occ. eigenvalues --   -0.36124  -0.35929  -0.34138  -0.33964  -0.33876
 Alpha  occ. eigenvalues --   -0.33555  -0.33052  -0.32864  -0.31118  -0.31004
 Alpha  occ. eigenvalues --   -0.30850  -0.30716  -0.29930  -0.29767  -0.29193
 Alpha  occ. eigenvalues --   -0.29101  -0.29095  -0.28990  -0.23908  -0.23751
 Alpha  occ. eigenvalues --   -0.20984  -0.20793
 Alpha virt. eigenvalues --   -0.08663  -0.08433  -0.01546  -0.01418   0.00111
 Alpha virt. eigenvalues --    0.00294   0.02291   0.02492   0.03060   0.03951
 Alpha virt. eigenvalues --    0.04848   0.05032   0.05143   0.05309   0.06240

 Mulliken charges:
               1
     1  Mg   0.841075
     2  C   -0.002733
     3  C   -0.091094
     4  C   -0.046573
     5  C   -0.064359
     6  N   -0.256810
     7  C   -0.052176
     8  C   -0.014521
     9  C   -0.087664
    10  C    0.047734
    11  C    0.104948
    12  C    0.052585
    13  C   -0.070518
    14  H    0.032865
    15  N   -0.433343
    16  C    0.170770
    17  C   -0.174351
    18  C   -0.003150
    19  C    0.149351
    20  C    0.109924
    21  C    0.012640
    22  O   -0.251448
    23  C    0.061209
    24  N   -0.341191
    25  C    0.041617
    26  C   -0.028062
    27  C   -0.023601
    28  C    0.074373
    29  C    0.076472
    30  C    0.035271
    31  C   -0.005451
    32  N   -0.310104
    33  C    0.079734
    34  C   -0.170561
    35  C    0.007614
    36  C    0.082542
    37  C    0.127565
    38  C    0.045268
    39  O   -0.190486
    40  C   -0.005242
    41  C    0.212656
    42  O   -0.257490
    43  O   -0.304645
    44  C    0.158473
    45  H   -0.017845
    46  H   -0.017804
    47  H   -0.042413
    48  H   -0.000312
    49  H   -0.003333
    50  H    0.024885
    51  H    0.016265
    52  H    0.016066
    53  H    0.017048
    54  H    0.043864
    55  H    0.016675
    56  H    0.018188
    57  H    0.005819
    58  H    0.025417
    59  H    0.045357
    60  H    0.036897
    61  H    0.034256
    62  H    0.036452
    63  H    0.015423
    64  H    0.008860
    65  H    0.022354
    66  H    0.012602
    67  H    0.004328
    68  H    0.005067
    69  H    0.004643
    70  H    0.007926
    71  H    0.018981
    72  H    0.029960
    73  H    0.046374
    74  H    0.008753
    75  H    0.045191
    76  H    0.034525
    77  H    0.041944
    78  H    0.046444
    79  H    0.052159
    80  Mg   0.839788
    81  C   -0.016851
    82  C   -0.086800
    83  C   -0.045472
    84  C   -0.064593
    85  N   -0.254720
    86  C   -0.049434
    87  C   -0.015606
    88  C   -0.090830
    89  C    0.046729
    90  C    0.114430
    91  C    0.062196
    92  C   -0.077163
    93  H    0.032825
    94  N   -0.423634
    95  C    0.164506
    96  C   -0.173615
    97  C   -0.006984
    98  C    0.152680
    99  C    0.099348
   100  C    0.016336
   101  O   -0.253595
   102  C    0.060535
   103  N   -0.350076
   104  C    0.037748
   105  C   -0.019852
   106  C   -0.034592
   107  C    0.088514
   108  C    0.073818
   109  C    0.034544
   110  C   -0.008634
   111  N   -0.323827
   112  C    0.078091
   113  C   -0.163617
   114  C    0.001072
   115  C    0.096086
   116  C    0.131999
   117  C    0.041237
   118  O   -0.190781
   119  C    0.001220
   120  C    0.210597
   121  O   -0.251699
   122  O   -0.305217
   123  C    0.153018
   124  H   -0.019708
   125  H   -0.015731
   126  H   -0.040349
   127  H   -0.001610
   128  H   -0.003837
   129  H    0.022022
   130  H    0.014393
   131  H    0.016050
   132  H    0.017187
   133  H    0.037600
   134  H    0.019892
   135  H    0.020320
   136  H    0.008796
   137  H    0.025674
   138  H    0.042208
   139  H    0.037833
   140  H    0.036257
   141  H    0.036278
   142  H    0.014218
   143  H    0.012079
   144  H    0.024830
   145  H    0.011519
   146  H    0.005473
   147  H    0.005443
   148  H    0.004320
   149  H    0.010024
   150  H    0.020075
   151  H    0.030387
   152  H    0.043636
   153  H    0.009618
   154  H    0.046379
   155  H    0.034685
   156  H    0.042885
   157  H    0.050167
   158  H    0.051131
 Sum of Mulliken charges =  -0.00000

 Dipole moment (field-independent basis, Debye):
    X=              0.9678    Y=              3.2097    Z=             -1.0811  Tot=              3.5225
 Quadrupole moment (field-independent basis, Debye-Ang):
   XX=           -478.2011   YY=           -461.9763   ZZ=           -541.9769
   XY=              8.3934   XZ=             27.1765   YZ=             -3.7104

 Normal termination of Gaussian 16 at Thu Sep  9 18:15:22 2021.
