 Gaussian 16, Revision A.03,
 Gaussian 16:  ES64L-G16RevA.03 25-Dec-2016

 -----------------------------------
 #p cam-b3lyp/Def2SVP td=(nstates=5)
 -----------------------------------

 --------------------------------
 TDDFT excited states in gaussian
 --------------------------------
 Symbolic Z-matrix:
 Charge =  0 Multiplicity = 1

                         Standard orientation:
 ---------------------------------------------------------------------
 Center     Atomic      Atomic             Coordinates (Angstroms)
 Number     Number       Type             X           Y           Z
 ---------------------------------------------------------------------
      1         12           0        5.094912   -1.138089    0.254749
      2          6           0        5.851240    1.728950   -1.750312
      3          6           0        6.432946    0.546394    2.903380
      4          6           0        4.854017   -3.814286    1.938958
      5          6           0        4.878880   -2.966797   -2.704105
      6          7           0        5.994220    0.877233    0.429010
      7          6           0        6.169897    1.900377   -0.401344
      8          6           0        6.654216    3.198378    0.311400
      9          6           0        7.324839    2.542405    1.600571
     10          6           0        6.512883    1.261142    1.671399
     11          6           0        8.794325    2.182580    1.406560
     12          6           0        5.466439    4.141464    0.700634
     13          6           0        5.866240    5.564523    1.101154
     14          1           0        4.989768    6.667161    0.736008
     15          7           0        5.114580   -1.428293    2.208782
     16          6           0        5.691736   -0.631507    3.140077
     17          6           0        5.431827   -1.275932    4.445390
     18          6           0        4.821469   -2.608554    4.181425
     19          6           0        4.931102   -2.682285    2.746879
     20          6           0        5.711005   -0.614118    5.759853
     21          6           0        4.242348   -3.654760    5.080427
     22          8           0        3.977917   -4.835593    4.667771
     23          6           0        4.072931   -3.283223    6.496866
     24          7           0        5.110907   -3.156721   -0.276761
     25          6           0        4.929960   -4.113251    0.640459
     26          6           0        4.697895   -5.448746   -0.001833
     27          6           0        4.515493   -5.163095   -1.562246
     28          6           0        4.770272   -3.635584   -1.553889
     29          6           0        5.807152   -6.490281    0.200068
     30          6           0        3.219420   -5.691056   -2.226980
     31          6           0        2.023141   -4.939171   -1.687829
     32          7           0        5.143649   -0.692906   -1.869040
     33          6           0        5.058263   -1.611512   -2.925235
     34          6           0        5.246924   -0.851836   -4.174781
     35          6           0        5.446766    0.461840   -3.755064
     36          6           0        5.412879    0.514828   -2.332272
     37          6           0        5.278165   -1.400686   -5.487116
     38          6           0        5.705573    1.829020   -4.176602
     39          8           0        5.744783    2.408877   -5.262751
     40          6           0        6.099041    2.683535   -2.891761
     41          6           0        5.298514    3.956719   -2.930057
     42          8           0        4.058197    3.936888   -2.793722
     43          8           0        6.131796    5.007384   -2.882228
     44          6           0        5.399993    6.302217   -2.887128
     45          1           0        7.037242    0.881974    3.748457
     46          1           0        4.659821   -4.745006    2.476067
     47          1           0        4.740266   -3.456311   -3.669825
     48          1           0        7.396971    3.771594   -0.243723
     49          1           0        7.162158    3.144028    2.494611
     50          1           0        9.104244    2.318097    0.370458
     51          1           0        8.877887    1.134561    1.694948
     52          1           0        9.423981    2.736259    2.103517
     53          1           0        5.029411    3.800446    1.639131
     54          1           0        4.730277    4.186402   -0.102717
     55          1           0        6.895574    5.784390    0.816479
     56          1           0        5.867260    5.625479    2.189494
     57          1           0        6.309580    0.287390    5.635211
     58          1           0        6.351727   -1.289387    6.326596
     59          1           0        4.798040   -0.415689    6.321504
     60          1           0        5.041395   -3.007977    6.915038
     61          1           0        3.563915   -4.122699    6.969129
     62          1           0        3.448869   -2.391013    6.555660
     63          1           0        3.792857   -5.916218    0.383914
     64          1           0        5.317105   -5.604079   -2.155224
     65          1           0        5.459781   -7.416770    0.657952
     66          1           0        6.595881   -6.031470    0.795626
     67          1           0        6.349379   -6.761913   -0.705262
     68          1           0        3.071693   -6.743417   -1.986855
     69          1           0        3.223185   -5.596018   -3.312891
     70          1           0        1.798985   -5.469403   -0.762929
     71          1           0        1.187954   -5.002123   -2.386191
     72          1           0        2.283913   -3.914780   -1.421169
     73          1           0        4.686917   -0.731289   -6.111858
     74          1           0        4.877211   -2.413904   -5.502219
     75          1           0        6.348119   -1.371913   -5.692607
     76          1           0        7.170325    2.871438   -2.956292
     77          1           0        5.784845    6.885254   -3.723902
     78          1           0        5.506215    6.721976   -1.886666
     79          1           0        4.339906    6.255828   -3.138928
     80         12           0       -5.257511    1.073515    0.571935
     81          6           0       -5.759299   -2.003717   -1.205111
     82          6           0       -4.165243    2.418562   -2.366170
     83          6           0       -4.382060    3.655862    2.194423
     84          6           0       -5.288409   -0.785163    3.519823
     85          7           0       -5.037495    0.217809   -1.455780
     86          6           0       -5.317721   -0.944668   -2.025387
     87          6           0       -5.189911   -0.950294   -3.572390
     88          6           0       -4.157388    0.269145   -3.732798
     89          6           0       -4.492182    1.042103   -2.458781
     90          6           0       -2.701762   -0.161463   -3.661621
     91          6           0       -6.553773   -0.645795   -4.285940
     92          6           0       -6.573183   -0.938425   -5.787850
     93          1           0       -7.806684   -1.446111   -6.382164
     94          7           0       -4.867666    2.914812   -0.057529
     95          6           0       -4.456358    3.283870   -1.288753
     96          6           0       -4.290849    4.744709   -1.236558
     97          6           0       -4.479175    5.188116    0.171500
     98          6           0       -4.564903    3.906380    0.842260
     99          6           0       -4.062800    5.582060   -2.461410
    100          6           0       -4.555077    6.541670    0.810506
    101          8           0       -4.484217    6.691163    2.081519
    102          6           0       -4.620841    7.693875   -0.100302
    103          7           0       -4.677021    1.368617    2.546339
    104          6           0       -4.399824    2.600414    3.008690
    105          6           0       -4.275968    2.603073    4.513691
    106          6           0       -4.768608    1.157371    4.987875
    107          6           0       -5.018510    0.510035    3.608058
    108          6           0       -2.875640    2.869560    5.065466
    109          6           0       -5.908187    1.113057    6.042408
    110          6           0       -7.192517    1.631493    5.436502
    111          7           0       -5.662856   -0.978671    1.112547
    112          6           0       -5.593485   -1.550782    2.401726
    113          6           0       -5.841775   -2.999068    2.249252
    114          6           0       -6.016946   -3.174097    0.868249
    115          6           0       -5.866989   -1.926487    0.204561
    116          6           0       -5.834675   -3.959438    3.299848
    117          6           0       -6.284084   -4.132342   -0.180129
    118          8           0       -6.582698   -5.325494   -0.210988
    119          6           0       -6.003866   -3.438445   -1.582412
    120          6           0       -7.166926   -3.736118   -2.488611
    121          8           0       -8.297594   -3.284642   -2.234859
    122          8           0       -6.711727   -4.318199   -3.613035
    123          6           0       -7.827225   -4.622616   -4.548347
    124          1           0       -3.594130    2.871850   -3.176873
    125          1           0       -4.187406    4.533958    2.814538
    126          1           0       -5.411601   -1.417203    4.401873
    127          1           0       -4.764493   -1.855062   -3.989751
    128          1           0       -4.384922    0.866299   -4.612002
    129          1           0       -2.602382   -1.203401   -3.395858
    130          1           0       -2.245766    0.466507   -2.907452
    131          1           0       -2.192125    0.075893   -4.599848
    132          1           0       -6.713866    0.439929   -4.303983
    133          1           0       -7.359483   -1.166404   -3.805908
    134          1           0       -5.716766   -1.548361   -6.100052
    135          1           0       -6.442212    0.003186   -6.326576
    136          1           0       -3.804685    4.963048   -3.329516
    137          1           0       -3.163652    6.179933   -2.277161
    138          1           0       -4.896934    6.254340   -2.673348
    139          1           0       -3.746056    7.693998   -0.746218
    140          1           0       -4.760104    8.566060    0.541385
    141          1           0       -5.493441    7.575085   -0.752288
    142          1           0       -4.919409    3.355273    4.953350
    143          1           0       -3.957021    0.585280    5.461024
    144          1           0       -2.835096    3.734815    5.753785
    145          1           0       -2.202141    3.015293    4.231378
    146          1           0       -2.418025    2.031392    5.588206
    147          1           0       -5.673053    1.771801    6.882013
    148          1           0       -6.081993    0.122436    6.449171
    149          1           0       -7.092261    2.716396    5.536567
    150          1           0       -8.053581    1.261980    5.989736
    151          1           0       -7.243020    1.402490    4.365683
    152          1           0       -6.685275   -4.607382    3.135129
    153          1           0       -5.881364   -3.481199    4.275997
    154          1           0       -4.866857   -4.435870    3.122034
    155          1           0       -5.069012   -3.846327   -1.968750
    156          1           0       -7.772310   -5.692137   -4.773759
    157          1           0       -7.705884   -3.922306   -5.396043
    158          1           0       -8.838143   -4.538490   -4.167000
 ---------------------------------------------------------------------

 SCF Done:  E(RCAM-B3LYP) =  -4069.81219153     A.U. after   19 cycles

 Excitation energies and oscillator strengths:

 Excited State   1:      Singlet-A      1.6668 eV  743.83 nm  f=0.2065  <S**2>=0.000
     309 -> 315        0.10899
     310 -> 316        0.13215
     311 -> 313        0.43370
     312 -> 314        0.53197
 This state for optimization and/or second-order correction.
 Total Energy, E(TD-HF/TD-DFT) =  -4069.75093620
 Copying the excited state density for this state as the 1-particle RhoCI density.

 Excited State   2:      Singlet-A      1.6856 eV  735.55 nm  f=0.4963  <S**2>=0.000
     309 -> 315        0.13710
     310 -> 316       -0.11120
     311 -> 313        0.53108
     312 -> 314       -0.43314

 Excited State   3:      Singlet-A      2.1859 eV  567.21 nm  f=0.0832  <S**2>=0.000
     309 -> 313        0.13569
     310 -> 314        0.62819
     312 -> 316       -0.26603

 Excited State   4:      Singlet-A      2.1928 eV  565.42 nm  f=0.1120  <S**2>=0.000
     309 -> 313        0.62634
     310 -> 314       -0.13445
     311 -> 315       -0.27191

 Excited State   5:      Singlet-A      2.4785 eV  500.23 nm  f=0.0000  <S**2>=0.000
     312 -> 313        0.70709

 The electronic state is 1-A.
 Alpha  occ. eigenvalues --  -46.87891 -46.87488 -19.26452 -19.26228 -19.19199
 Alpha  occ. eigenvalues --  -19.19031 -19.18893 -19.18571 -19.18306 -19.17897
 Alpha  occ. eigenvalues --  -14.42542 -14.42311 -14.41537 -14.41199 -14.39496
 Alpha  occ. eigenvalues --  -14.39176 -14.38691 -14.38431 -10.39250 -10.38959
 Alpha  occ. eigenvalues --  -10.35526 -10.35248 -10.34526 -10.34076 -10.31855
 Alpha  occ. eigenvalues --  -10.31648 -10.31507 -10.31109 -10.30999 -10.30831
 Alpha  occ. eigenvalues --  -10.30676 -10.30607 -10.30284 -10.30241 -10.30180
 Alpha  occ. eigenvalues --  -10.30011 -10.29983 -10.29757 -10.29734 -10.29346
 Alpha  occ. eigenvalues --  -10.29256 -10.29234 -10.28836 -10.28608 -10.28510
 Alpha  occ. eigenvalues --  -10.28480 -10.28466 -10.28226 -10.28201 -10.27899
 Alpha  occ. eigenvalues --  -10.27887 -10.27824 -10.27819 -10.27682 -10.27564
 Alpha  occ. eigenvalues --  -10.27558 -10.27504 -10.27503 -10.27455 -10.27427
 Alpha  occ. eigenvalues --  -10.27312 -10.27296 -10.27294 -10.27290 -10.27218
 Alpha  occ. eigenvalues --  -10.26901 -10.26787 -10.26508 -10.26485 -10.26313
 Alpha  occ. eigenvalues --  -10.26272 -10.26227 -10.26111 -10.26069 -10.25985
 Alpha  occ. eigenvalues --  -10.25775 -10.25698 -10.25683 -10.25476 -10.25369
 Alpha  occ. eigenvalues --  -10.24945 -10.24875 -10.24730 -10.24700 -10.24658
 Alpha  occ. eigenvalues --  -10.24536  -3.16634  -3.16238  -1.91515  -1.91120
 Alpha  occ. eigenvalues --   -1.91102  -1.90944  -1.90709  -1.90546  -1.16802
 Alpha  occ. eigenvalues --   -1.16519  -1.08770  -1.08509  -1.07292  -1.06825
 Alpha  occ. eigenvalues --   -1.06818  -1.06815  -1.04675  -1.04309  -1.03850
 Alpha  occ. eigenvalues --   -1.03492  -1.03331  -1.02876  -1.02507  -1.01944
 Alpha  occ. eigenvalues --   -0.92082  -0.91819  -0.89598  -0.89362  -0.89274
 Alpha  occ. eigenvalues --   -0.88929  -0.88358  -0.88106  -0.87987  -0.87763
 Alpha  occ. eigenvalues --   -0.87627  -0.87501  -0.87364  -0.86937  -0.85070
 Alpha  occ. eigenvalues --   -0.84805  -0.84009  -0.83775  -0.83046  -0.82781
 Alpha  occ. eigenvalues --   -0.82741  -0.82470  -0.81711  -0.81448  -0.80703
 Alpha  occ. eigenvalues --   -0.80283  -0.78894  -0.78453  -0.77306  -0.77030
 Alpha  occ. eigenvalues --   -0.76971  -0.76737  -0.76028  -0.75644  -0.74975
 Alpha  occ. eigenvalues --   -0.74686  -0.72872  -0.72528  -0.71762  -0.71413
 Alpha  occ. eigenvalues --   -0.69969  -0.69656  -0.68964  -0.68639  -0.67740
 Alpha  occ. eigenvalues --   -0.67442  -0.67305  -0.67024  -0.65381  -0.65086
 Alpha  occ. eigenvalues --   -0.64960  -0.64716  -0.64609  -0.64491  -0.64348
 Alpha  occ. eigenvalues --   -0.64075  -0.62428  -0.62139  -0.60528  -0.60179
 Alpha  occ. eigenvalues --   -0.59897  -0.59592  -0.59084  -0.58832  -0.58605
 Alpha  occ. eigenvalues --   -0.58268  -0.57718  -0.57404  -0.57402  -0.57096
 Alpha  occ. eigenvalues --   -0.56416  -0.56111  -0.56030  -0.55736  -0.55617
 Alpha  occ. eigenvalues --   -0.55435  -0.55289  -0.55130  -0.54632  -0.54372
 Alpha  occ. eigenvalues --   -0.53983  -0.53701  -0.53394  -0.53319  -0.53072
 Alpha  occ. eigenvalues --   -0.53029  -0.52973  -0.52842  -0.52735  -0.52503
 Alpha  occ. eigenvalues --   -0.52478  -0.52303  -0.52044  -0.51728  -0.51712
 Alpha  occ. eigenvalues --   -0.51470  -0.51300  -0.51047  -0.50652  -0.50298
 Alpha  occ. eigenvalues --   -0.50099  -0.50003  -0.49811  -0.49719  -0.49608
 Alpha  occ. eigenvalues --   -0.49324  -0.49308  -0.49193  -0.49020  -0.48909
 Alpha  occ. eigenvalues --   -0.48707  -0.48550  -0.48535  -0.48383  -0.48263
 Alpha  occ. eigenvalues --   -0.48176  -0.47785  -0.47421  -0.47388  -0.46951
 Alpha  occ. eigenvalues --   -0.46887  -0.46646  -0.46548  -0.46458  -0.46358
 Alpha  occ. eigenvalues --   -0.46265  -0.46109  -0.45951  -0.45947  -0.45671
 Alpha  occ. eigenvalues --   -0.45274  -0.45095  -0.44697  -0.44588  -0.44362
 Alpha  occ. eigenvalues --   -0.44286  -0.44237  -0.44175  -0.44122  -0.43949
 Alpha  occ. eigenvalues --   -0.43930  -0.43770  -0.43621  -0.43468  -0.43412
 Alpha  occ. eigenvalues --   -0.43216  -0.43125  -0.42843  -0.42793  -0.42749
 Alpha  occ. eigenvalues --   -0.42732  -0.42424  -0.42093  -0.41827  -0.41805
 Alpha  occ. eigenvalues --   -0.41618  -0.41510  -0.41285  -0.41229  -0.40949
 Alpha  occ. eigenvalues --   -0.40900  -0.40809  -0.40645  -0.40561  -0.40530
 Alpha  occ. eigenvalues --   -0.40354  -0.40313  -0.40046  -0.39497  -0.39327
 Alpha  occ. eigenvalues --   -0.38537  -0.38229  -0.37834  -0.37475  -0.37398
 Alpha  occ. eigenvalues --   -0.37359  -0.37123  -0.37011  -0.36853  -0.36647
 Alpha  occ. eigenvalues --   -0.36298  -0.36079  -0.34384  -0.34086  -0.33936
 Alpha  occ. eigenvalues --   -0.33724  -0.33288  -0.33005  -0.31422  -0.31131
 Alpha  occ. eigenvalues --   -0.31130  -0.30804  -0.30167  -0.29804  -0.29549
 Alpha  occ. eigenvalues --   -0.29432  -0.29153  -0.29041  -0.24177  -0.23863
 Alpha  occ. eigenvalues --   -0.21223  -0.20943
 Alpha virt. eigenvalues --   -0.08872  -0.08617  -0.01839  -0.01520  -0.00151
 Alpha virt. eigenvalues --    0.00148   0.02085   0.02361   0.03014   0.03386
 Alpha virt. eigenvalues --    0.04631   0.04918   0.04936   0.05301   0.06094

 Mulliken charges:
               1
     1  Mg   0.838806
     2  C   -0.003239
     3  C   -0.094019
     4  C   -0.045661
     5  C   -0.064090
     6  N   -0.256898
     7  C   -0.052384
     8  C   -0.014112
     9  C   -0.087046
    10  C    0.046537
    11  C    0.104744
    12  C    0.053408
    13  C   -0.071979
    14  H    0.036247
    15  N   -0.433244
    16  C    0.168657
    17  C   -0.177018
    18  C   -0.003788
    19  C    0.148896
    20  C    0.110138
    21  C    0.012409
    22  O   -0.248965
    23  C    0.062456
    24  N   -0.341209
    25  C    0.041400
    26  C   -0.028389
    27  C   -0.023993
    28  C    0.074882
    29  C    0.076035
    30  C    0.035051
    31  C   -0.004532
    32  N   -0.310213
    33  C    0.079994
    34  C   -0.170608
    35  C    0.007946
    36  C    0.082528
    37  C    0.127568
    38  C    0.045301
    39  O   -0.189368
    40  C   -0.005032
    41  C    0.212840
    42  O   -0.258341
    43  O   -0.304389
    44  C    0.158082
    45  H   -0.017321
    46  H   -0.016305
    47  H   -0.041650
    48  H    0.000855
    49  H   -0.003718
    50  H    0.025461
    51  H    0.016534
    52  H    0.016931
    53  H    0.011671
    54  H    0.043569
    55  H    0.017821
    56  H    0.018506
    57  H    0.006132
    58  H    0.027145
    59  H    0.039585
    60  H    0.037531
    61  H    0.035970
    62  H    0.031113
    63  H    0.017252
    64  H    0.009552
    65  H    0.023820
    66  H    0.012471
    67  H    0.004891
    68  H    0.007354
    69  H    0.004236
    70  H    0.010138
    71  H    0.017719
    72  H    0.028119
    73  H    0.046242
    74  H    0.009023
    75  H    0.046297
    76  H    0.035389
    77  H    0.042882
    78  H    0.047047
    79  H    0.052327
    80  Mg   0.837957
    81  C   -0.016764
    82  C   -0.086656
    83  C   -0.045595
    84  C   -0.065079
    85  N   -0.254605
    86  C   -0.049771
    87  C   -0.015126
    88  C   -0.090380
    89  C    0.045163
    90  C    0.113731
    91  C    0.062501
    92  C   -0.077678
    93  H    0.034068
    94  N   -0.423738
    95  C    0.162611
    96  C   -0.172801
    97  C   -0.008152
    98  C    0.152726
    99  C    0.098824
   100  C    0.015569
   101  O   -0.254091
   102  C    0.061194
   103  N   -0.350011
   104  C    0.037587
   105  C   -0.019706
   106  C   -0.034665
   107  C    0.088729
   108  C    0.074053
   109  C    0.034921
   110  C   -0.007553
   111  N   -0.324004
   112  C    0.078155
   113  C   -0.163353
   114  C    0.002147
   115  C    0.096014
   116  C    0.131506
   117  C    0.042130
   118  O   -0.188612
   119  C    0.001056
   120  C    0.211236
   121  O   -0.251139
   122  O   -0.305703
   123  C    0.152121
   124  H   -0.016394
   125  H   -0.016343
   126  H   -0.041066
   127  H   -0.001144
   128  H   -0.003944
   129  H    0.020984
   130  H    0.017198
   131  H    0.018742
   132  H    0.013903
   133  H    0.037198
   134  H    0.020780
   135  H    0.020007
   136  H    0.010386
   137  H    0.027864
   138  H    0.039094
   139  H    0.038858
   140  H    0.035561
   141  H    0.033847
   142  H    0.014015
   143  H    0.011642
   144  H    0.024105
   145  H    0.012006
   146  H    0.004239
   147  H    0.005370
   148  H    0.003454
   149  H    0.010649
   150  H    0.017614
   151  H    0.030595
   152  H    0.045517
   153  H    0.007998
   154  H    0.047293
   155  H    0.034659
   156  H    0.043413
   157  H    0.049665
   158  H    0.053416
 Sum of Mulliken charges =  -0.00000

 Dipole moment (field-independent basis, Debye):
    X=              4.9336    Y=              3.0309    Z=              1.2949  Tot=              5.9333
 Quadrupole moment (field-independent basis, Debye-Ang):
   XX=           -521.1616   YY=           -521.3306   ZZ=           -476.9329
   XY=            -12.9845   XZ=             39.5483   YZ=             16.7229

 Normal termination of Gaussian 16 at Fri Sep 10 10:05:31 2021.
