 Gaussian 16, Revision A.03,
 Gaussian 16:  ES64L-G16RevA.03 25-Dec-2016

 -----------------------------------
 #p cam-b3lyp/Def2SVP td=(nstates=5)
 -----------------------------------

 --------------------------------
 TDDFT excited states in gaussian
 --------------------------------
 Symbolic Z-matrix:
 Charge =  0 Multiplicity = 1

                         Standard orientation:
 ---------------------------------------------------------------------
 Center     Atomic      Atomic             Coordinates (Angstroms)
 Number     Number       Type             X           Y           Z
 ---------------------------------------------------------------------
      1         12           0        3.168436   -2.249014   -0.117484
      2          6           0        5.378251    0.544240   -0.473386
      3          6           0        4.234017   -2.490114    3.115081
      4          6           0        1.574562   -4.982738    0.089723
      5          6           0        3.145868   -2.485751   -3.594423
      6          7           0        4.623488   -1.063585    1.056496
      7          6           0        5.358471    0.018661    0.820454
      8          6           0        6.047711    0.587782    2.096550
      9          6           0        6.075703   -0.738857    2.980430
     10          6           0        4.885515   -1.460438    2.373226
     11          6           0        7.325414   -1.586901    2.767010
     12          6           0        5.199178    1.713003    2.778899
     13          6           0        5.940031    2.542447    3.831759
     14          1           0        5.630547    3.959168    3.952048
     15          7           0        2.557118   -3.258730    1.466692
     16          6           0        3.098098   -3.222921    2.708201
     17          6           0        2.289159   -4.146782    3.532083
     18          6           0        1.353177   -4.865659    2.623651
     19          6           0        1.814788   -4.411041    1.336944
     20          6           0        2.412046   -4.242843    5.021855
     21          6           0        0.228977   -5.820256    2.874751
     22          8           0       -0.303508   -6.505986    1.936237
     23          6           0       -0.178957   -5.999768    4.279887
     24          7           0        2.631821   -3.690412   -1.528884
     25          6           0        1.891512   -4.750202   -1.185704
     26          6           0        1.397061   -5.485772   -2.395825
     27          6           0        1.753934   -4.563984   -3.649899
     28          6           0        2.506557   -3.433696   -2.905402
     29          6           0        1.981051   -6.888842   -2.611144
     30          6           0        0.587023   -4.176609   -4.592598
     31          6           0       -0.375566   -3.262025   -3.868680
     32          7           0        3.940565   -1.076097   -1.772515
     33          6           0        3.833562   -1.373366   -3.138844
     34          6           0        4.603024   -0.346954   -3.865805
     35          6           0        5.121263    0.471855   -2.864393
     36          6           0        4.723789   -0.027576   -1.591257
     37          6           0        4.797512   -0.293139   -5.274248
     38          6           0        5.938717    1.638275   -2.572690
     39          8           0        6.467680    2.518578   -3.252954
     40          6           0        6.238706    1.661529   -1.008947
     41          6           0        5.967705    3.056427   -0.514857
     42          8           0        4.808935    3.519675   -0.510352
     43          8           0        7.065553    3.534739    0.090527
     44          6           0        6.854744    4.904658    0.630004
     45          1           0        4.663970   -2.807506    4.067101
     46          1           0        0.934149   -5.866998    0.109583
     47          1           0        3.114232   -2.446412   -4.684792
     48          1           0        7.063078    0.952551    1.940352
     49          1           0        5.894483   -0.529482    4.034490
     50          1           0        7.931224   -1.204054    1.945826
     51          1           0        6.961669   -2.588531    2.536970
     52          1           0        7.893353   -1.679712    3.693081
     53          1           0        4.434784    1.255748    3.407135
     54          1           0        4.770374    2.380342    2.030493
     55          1           0        7.018158    2.390687    3.772433
     56          1           0        5.667240    2.165464    4.817492
     57          1           0        3.294249   -3.717557    5.385636
     58          1           0        2.602128   -5.289467    5.258828
     59          1           0        1.507533   -3.909135    5.530605
     60          1           0        0.673202   -6.355523    4.859381
     61          1           0       -1.053419   -6.649159    4.258519
     62          1           0       -0.448758   -5.028700    4.696040
     63          1           0        0.318068   -5.628464   -2.352939
     64          1           0        2.483325   -5.034973   -4.309317
     65          1           0        1.225845   -7.672842   -2.672078
     66          1           0        2.686793   -7.087476   -1.805065
     67          1           0        2.620134   -6.988300   -3.488126
     68          1           0        0.026927   -5.063527   -4.886901
     69          1           0        0.917158   -3.675692   -5.502732
     70          1           0       -1.010047   -3.959365   -3.322802
     71          1           0       -0.958962   -2.681054   -4.583755
     72          1           0        0.139305   -2.644861   -3.132132
     73          1           0        4.665590    0.750166   -5.560744
     74          1           0        4.092351   -0.939497   -5.796333
     75          1           0        5.824932   -0.648853   -5.349956
     76          1           0        7.283935    1.379540   -0.886056
     77          1           0        7.628005    5.541435    0.200102
     78          1           0        6.823841    4.808867    1.715488
     79          1           0        5.953952    5.420856    0.296159
     80         12           0       -3.310118    2.338793    0.201506
     81          6           0       -5.213306   -0.703725    0.199700
     82          6           0       -2.766023    1.824902   -3.126323
     83          6           0       -1.262409    4.761713    0.263547
     84          6           0       -3.043352    2.006661    3.660442
     85          7           0       -3.958880    0.731930   -1.173020
     86          6           0       -4.730580   -0.340061   -1.074730
     87          6           0       -5.066087   -1.017552   -2.430453
     88          6           0       -3.806565   -0.494969   -3.278624
     89          6           0       -3.506161    0.787329   -2.505236
     90          6           0       -2.594875   -1.406857   -3.180583
     91          6           0       -6.419417   -0.504359   -3.036379
     92          6           0       -6.962277   -1.340502   -4.197388
     93          1           0       -8.408330   -1.499903   -4.323842
     94          7           0       -2.582193    3.443285   -1.277960
     95          6           0       -2.455190    3.086592   -2.573305
     96          6           0       -1.847809    4.242354   -3.251159
     97          6           0       -1.475183    5.248459   -2.219841
     98          6           0       -1.745751    4.498274   -1.009849
     99          6           0       -1.743611    4.347175   -4.745001
    100          6           0       -0.948762    6.648921   -2.308033
    101          8           0       -0.469642    7.253860   -1.284639
    102          6           0       -0.924685    7.257191   -3.646289
    103          7           0       -2.119833    3.140741    1.705649
    104          6           0       -1.361103    4.227889    1.481171
    105          6           0       -0.810262    4.784698    2.772266
    106          6           0       -1.556955    3.984591    3.938403
    107          6           0       -2.380846    2.998614    3.081399
    108          6           0        0.701874    4.661452    2.958351
    109          6           0       -2.298135    4.830741    5.009539
    110          6           0       -3.483240    5.531079    4.384686
    111          7           0       -4.141736    1.031412    1.707228
    112          6           0       -3.877015    1.050768    3.094187
    113          6           0       -4.584892   -0.101604    3.688645
    114          6           0       -5.198402   -0.729698    2.594293
    115          6           0       -4.877807   -0.030595    1.399319
    116          6           0       -4.563530   -0.472317    5.062770
    117          6           0       -6.035639   -1.831305    2.176913
    118          8           0       -6.676648   -2.704715    2.759999
    119          6           0       -5.979080   -1.936742    0.591953
    120          6           0       -7.388345   -2.077064    0.085203
    121          8           0       -8.204269   -1.148401    0.221057
    122          8           0       -7.478214   -3.190793   -0.664391
    123          6           0       -8.854808   -3.367536   -1.198761
    124          1           0       -2.346211    1.642031   -4.115870
    125          1           0       -0.639744    5.654557    0.356156
    126          1           0       -3.089921    1.890767    4.745366
    127          1           0       -5.075024   -2.100673   -2.407089
    128          1           0       -4.088071   -0.265337   -4.303019
    129          1           0       -2.742632   -2.197077   -2.459557
    130          1           0       -1.771691   -0.771129   -2.881803
    131          1           0       -2.333274   -1.793787   -4.169612
    132          1           0       -6.241498    0.445816   -3.556228
    133          1           0       -7.168690   -0.415181   -2.273974
    134          1           0       -6.460217   -2.312499   -4.275412
    135          1           0       -6.715154   -0.835222   -5.134205
    136          1           0       -1.949028    3.385419   -5.231038
    137          1           0       -0.692995    4.550721   -4.978762
    138          1           0       -2.358983    5.150954   -5.154794
    139          1           0       -0.318421    6.645485   -4.310156
    140          1           0       -0.600629    8.288359   -3.492808
    141          1           0       -1.942264    7.249088   -4.052613
    142          1           0       -1.038900    5.839105    2.867387
    143          1           0       -0.855783    3.377218    4.529418
    144          1           0        1.200605    5.633209    3.134507
    145          1           0        1.114772    4.174986    2.084621
    146          1           0        1.015663    3.997741    3.762236
    147          1           0       -1.641272    5.615053    5.393671
    148          1           0       -2.637336    4.249401    5.860412
    149          1           0       -3.034906    6.423149    3.937171
    150          1           0       -4.215763    5.796234    5.144391
    151          1           0       -3.909727    4.932962    3.571041
    152          1           0       -5.579553   -0.728754    5.331900
    153          1           0       -4.177378    0.331914    5.685571
    154          1           0       -3.880891   -1.325411    5.024039
    155          1           0       -5.366257   -2.803937    0.342984
    156          1           0       -9.194081   -4.359811   -0.885761
    157          1           0       -8.779269   -3.180933   -2.286526
    158          1           0       -9.636084   -2.737970   -0.789235
 ---------------------------------------------------------------------

 SCF Done:  E(RCAM-B3LYP) =  -4069.80307362     A.U. after   19 cycles

 Excitation energies and oscillator strengths:

 Excited State   1:      Singlet-A      1.6377 eV  757.05 nm  f=0.0050  <S**2>=0.000
     309 -> 315        0.11200
     310 -> 316        0.12055
     311 -> 313       -0.46761
     312 -> 314        0.50496
 This state for optimization and/or second-order correction.
 Total Energy, E(TD-HF/TD-DFT) =  -4069.74288786
 Copying the excited state density for this state as the 1-particle RhoCI density.

 Excited State   2:      Singlet-A      1.7124 eV  724.02 nm  f=0.6747  <S**2>=0.000
     309 -> 315       -0.13505
     310 -> 316        0.12473
     311 -> 313        0.50151
     312 -> 314        0.46452

 Excited State   3:      Singlet-A      2.1804 eV  568.63 nm  f=0.0063  <S**2>=0.000
     309 -> 313       -0.37449
     310 -> 314        0.52693
     311 -> 315       -0.15374
     312 -> 316       -0.21673

 Excited State   4:      Singlet-A      2.1994 eV  563.71 nm  f=0.1612  <S**2>=0.000
     309 -> 313        0.52009
     310 -> 314        0.36855
     311 -> 315        0.23168
     312 -> 316       -0.16495

 Excited State   5:      Singlet-A      2.2310 eV  555.72 nm  f=0.0001  <S**2>=0.000
     312 -> 313        0.70684

 The electronic state is 1-A.
 Alpha  occ. eigenvalues --  -46.87919 -46.87377 -19.26297 -19.26131 -19.19035
 Alpha  occ. eigenvalues --  -19.18935 -19.18830 -19.18343 -19.18268 -19.17779
 Alpha  occ. eigenvalues --  -14.42571 -14.42205 -14.41590 -14.41083 -14.39512
 Alpha  occ. eigenvalues --  -14.39052 -14.38713 -14.38324 -10.39103 -10.38859
 Alpha  occ. eigenvalues --  -10.35456 -10.35014 -10.34487 -10.33959 -10.31659
 Alpha  occ. eigenvalues --  -10.31573 -10.31535 -10.31056 -10.31004 -10.30709
 Alpha  occ. eigenvalues --  -10.30701 -10.30633 -10.30347 -10.30112 -10.30108
 Alpha  occ. eigenvalues --  -10.30076 -10.29844 -10.29745 -10.29622 -10.29369
 Alpha  occ. eigenvalues --  -10.29122 -10.29121 -10.28852 -10.28644 -10.28494
 Alpha  occ. eigenvalues --  -10.28467 -10.28446 -10.28224 -10.28098 -10.27908
 Alpha  occ. eigenvalues --  -10.27850 -10.27777 -10.27710 -10.27701 -10.27681
 Alpha  occ. eigenvalues --  -10.27644 -10.27545 -10.27514 -10.27385 -10.27299
 Alpha  occ. eigenvalues --  -10.27236 -10.27187 -10.27164 -10.27127 -10.27106
 Alpha  occ. eigenvalues --  -10.26820 -10.26769 -10.26469 -10.26431 -10.26333
 Alpha  occ. eigenvalues --  -10.26330 -10.26178 -10.26045 -10.26019 -10.25983
 Alpha  occ. eigenvalues --  -10.25733 -10.25680 -10.25589 -10.25514 -10.25039
 Alpha  occ. eigenvalues --  -10.24997 -10.24948 -10.24914 -10.24588 -10.24574
 Alpha  occ. eigenvalues --  -10.24374  -3.16662  -3.16128  -1.91544  -1.91130
 Alpha  occ. eigenvalues --   -1.91010  -1.90972  -1.90598  -1.90435  -1.16648
 Alpha  occ. eigenvalues --   -1.16423  -1.08723  -1.08394  -1.07224  -1.06719
 Alpha  occ. eigenvalues --   -1.06660  -1.06583  -1.04697  -1.04204  -1.03892
 Alpha  occ. eigenvalues --   -1.03374  -1.03357  -1.02755  -1.02537  -1.01824
 Alpha  occ. eigenvalues --   -0.92080  -0.91703  -0.89720  -0.89300  -0.89242
 Alpha  occ. eigenvalues --   -0.88887  -0.88470  -0.88016  -0.87960  -0.87799
 Alpha  occ. eigenvalues --   -0.87565  -0.87413  -0.87342  -0.86790  -0.85095
 Alpha  occ. eigenvalues --   -0.84764  -0.84163  -0.83625  -0.83050  -0.82732
 Alpha  occ. eigenvalues --   -0.82607  -0.82367  -0.81671  -0.81356  -0.80690
 Alpha  occ. eigenvalues --   -0.80173  -0.78898  -0.78345  -0.77461  -0.77106
 Alpha  occ. eigenvalues --   -0.76864  -0.76649  -0.76033  -0.75639  -0.75027
 Alpha  occ. eigenvalues --   -0.74519  -0.72922  -0.72441  -0.71795  -0.71373
 Alpha  occ. eigenvalues --   -0.70210  -0.69521  -0.68988  -0.68526  -0.67744
 Alpha  occ. eigenvalues --   -0.67328  -0.67303  -0.66931  -0.65410  -0.65052
 Alpha  occ. eigenvalues --   -0.64954  -0.64748  -0.64523  -0.64469  -0.64331
 Alpha  occ. eigenvalues --   -0.63948  -0.62373  -0.62037  -0.60542  -0.60030
 Alpha  occ. eigenvalues --   -0.59916  -0.59526  -0.59117  -0.58720  -0.58624
 Alpha  occ. eigenvalues --   -0.58153  -0.57672  -0.57432  -0.57302  -0.56959
 Alpha  occ. eigenvalues --   -0.56421  -0.56036  -0.55977  -0.55781  -0.55618
 Alpha  occ. eigenvalues --   -0.55546  -0.55166  -0.55010  -0.54793  -0.54248
 Alpha  occ. eigenvalues --   -0.54004  -0.53825  -0.53345  -0.53288  -0.53121
 Alpha  occ. eigenvalues --   -0.52944  -0.52887  -0.52812  -0.52745  -0.52530
 Alpha  occ. eigenvalues --   -0.52297  -0.52200  -0.52075  -0.51711  -0.51699
 Alpha  occ. eigenvalues --   -0.51400  -0.51341  -0.50966  -0.50638  -0.50314
 Alpha  occ. eigenvalues --   -0.50140  -0.49992  -0.49705  -0.49598  -0.49586
 Alpha  occ. eigenvalues --   -0.49316  -0.49219  -0.49181  -0.48951  -0.48883
 Alpha  occ. eigenvalues --   -0.48691  -0.48562  -0.48490  -0.48328  -0.48112
 Alpha  occ. eigenvalues --   -0.48014  -0.47805  -0.47402  -0.47322  -0.47073
 Alpha  occ. eigenvalues --   -0.46846  -0.46678  -0.46585  -0.46436  -0.46320
 Alpha  occ. eigenvalues --   -0.46297  -0.46011  -0.45926  -0.45845  -0.45654
 Alpha  occ. eigenvalues --   -0.45248  -0.44876  -0.44763  -0.44624  -0.44395
 Alpha  occ. eigenvalues --   -0.44273  -0.44188  -0.44148  -0.44089  -0.43816
 Alpha  occ. eigenvalues --   -0.43791  -0.43717  -0.43553  -0.43502  -0.43309
 Alpha  occ. eigenvalues --   -0.43272  -0.43090  -0.42878  -0.42722  -0.42685
 Alpha  occ. eigenvalues --   -0.42505  -0.42299  -0.42117  -0.41828  -0.41730
 Alpha  occ. eigenvalues --   -0.41647  -0.41395  -0.41259  -0.41154  -0.41037
 Alpha  occ. eigenvalues --   -0.40879  -0.40767  -0.40673  -0.40426  -0.40369
 Alpha  occ. eigenvalues --   -0.40331  -0.40250  -0.39953  -0.39316  -0.39204
 Alpha  occ. eigenvalues --   -0.38627  -0.38070  -0.37849  -0.37481  -0.37392
 Alpha  occ. eigenvalues --   -0.37368  -0.37002  -0.36917  -0.36726  -0.36538
 Alpha  occ. eigenvalues --   -0.36250  -0.35945  -0.34411  -0.33968  -0.33802
 Alpha  occ. eigenvalues --   -0.33622  -0.33300  -0.32893  -0.31367  -0.31143
 Alpha  occ. eigenvalues --   -0.30906  -0.30662  -0.30128  -0.29690  -0.29546
 Alpha  occ. eigenvalues --   -0.29437  -0.29020  -0.28926  -0.24206  -0.23750
 Alpha  occ. eigenvalues --   -0.21255  -0.20824
 Alpha virt. eigenvalues --   -0.08887  -0.08495  -0.01872  -0.01385  -0.00128
 Alpha virt. eigenvalues --    0.00305   0.02074   0.02368   0.02587   0.03609
 Alpha virt. eigenvalues --    0.04587   0.05030   0.05043   0.05407   0.05999

 Mulliken charges:
               1
     1  Mg   0.838726
     2  C   -0.002187
     3  C   -0.094070
     4  C   -0.046289
     5  C   -0.065479
     6  N   -0.256608
     7  C   -0.052812
     8  C   -0.013953
     9  C   -0.087014
    10  C    0.046438
    11  C    0.104739
    12  C    0.052727
    13  C   -0.072035
    14  H    0.036400
    15  N   -0.433462
    16  C    0.169018
    17  C   -0.176765
    18  C   -0.003090
    19  C    0.149314
    20  C    0.110241
    21  C    0.013446
    22  O   -0.248784
    23  C    0.062169
    24  N   -0.340937
    25  C    0.040929
    26  C   -0.029369
    27  C   -0.024747
    28  C    0.073988
    29  C    0.076509
    30  C    0.076931
    31  C   -0.051291
    32  N   -0.310317
    33  C    0.079691
    34  C   -0.171409
    35  C    0.008396
    36  C    0.082939
    37  C    0.127645
    38  C    0.046107
    39  O   -0.188535
    40  C   -0.005371
    41  C    0.212399
    42  O   -0.255670
    43  O   -0.305184
    44  C    0.156884
    45  H   -0.017153
    46  H   -0.016496
    47  H   -0.043101
    48  H    0.001305
    49  H   -0.004027
    50  H    0.025674
    51  H    0.016535
    52  H    0.016984
    53  H    0.010355
    54  H    0.045205
    55  H    0.018380
    56  H    0.017504
    57  H    0.005711
    58  H    0.027537
    59  H    0.040125
    60  H    0.036819
    61  H    0.038492
    62  H    0.032001
    63  H    0.016175
    64  H    0.009500
    65  H    0.023481
    66  H    0.013273
    67  H    0.004788
    68  H    0.003485
    69  H    0.000724
    70  H    0.012194
    71  H    0.022823
    72  H    0.034495
    73  H    0.046170
    74  H    0.007498
    75  H    0.046525
    76  H    0.035233
    77  H    0.043082
    78  H    0.045956
    79  H    0.055900
    80  Mg   0.836502
    81  C   -0.017104
    82  C   -0.088486
    83  C   -0.040606
    84  C   -0.065899
    85  N   -0.254749
    86  C   -0.050484
    87  C   -0.015161
    88  C   -0.069469
    89  C    0.046601
    90  C    0.089629
    91  C    0.064004
    92  C   -0.077345
    93  H    0.034118
    94  N   -0.424395
    95  C    0.163660
    96  C   -0.171893
    97  C   -0.004558
    98  C    0.152250
    99  C    0.098226
   100  C    0.018179
   101  O   -0.252184
   102  C    0.060727
   103  N   -0.350040
   104  C    0.037648
   105  C   -0.020343
   106  C   -0.033806
   107  C    0.088298
   108  C    0.071208
   109  C    0.035081
   110  C   -0.007456
   111  N   -0.323721
   112  C    0.077801
   113  C   -0.164804
   114  C    0.001944
   115  C    0.095606
   116  C    0.131850
   117  C    0.041942
   118  O   -0.189141
   119  C    0.000936
   120  C    0.210937
   121  O   -0.251570
   122  O   -0.305271
   123  C    0.152316
   124  H   -0.020323
   125  H   -0.013691
   126  H   -0.042696
   127  H   -0.001361
   128  H   -0.006162
   129  H    0.025472
   130  H    0.016620
   131  H    0.016591
   132  H    0.013582
   133  H    0.037293
   134  H    0.019856
   135  H    0.018907
   136  H    0.007570
   137  H    0.029951
   138  H    0.039059
   139  H    0.040863
   140  H    0.035938
   141  H    0.032279
   142  H    0.013665
   143  H    0.009900
   144  H    0.023267
   145  H    0.022605
   146  H    0.001766
   147  H    0.005127
   148  H    0.002188
   149  H    0.010926
   150  H    0.016995
   151  H    0.030715
   152  H    0.045460
   153  H    0.007326
   154  H    0.043531
   155  H    0.036636
   156  H    0.043644
   157  H    0.049020
   158  H    0.053095
 Sum of Mulliken charges =  -0.00000

 Dipole moment (field-independent basis, Debye):
    X=              3.8221    Y=             -1.9500    Z=             -0.0584  Tot=              4.2912
 Quadrupole moment (field-independent basis, Debye-Ang):
   XX=           -538.4750   YY=           -532.8582   ZZ=           -449.7895
   XY=            -21.7530   XZ=             59.6270   YZ=             22.0932

 Normal termination of Gaussian 16 at Wed Sep  8 18:01:10 2021.
