 Gaussian 16, Revision A.03,
 Gaussian 16:  ES64L-G16RevA.03 25-Dec-2016

 -----------------------------------
 #p cam-b3lyp/Def2SVP td=(nstates=5)
 -----------------------------------

 --------------------------------
 TDDFT excited states in gaussian
 --------------------------------
 Symbolic Z-matrix:
 Charge =  0 Multiplicity = 1

                         Standard orientation:
 ---------------------------------------------------------------------
 Center     Atomic      Atomic             Coordinates (Angstroms)
 Number     Number       Type             X           Y           Z
 ---------------------------------------------------------------------
      1         12           0        3.818271    0.511799    1.542715
      2          6           0        4.823623   -2.412181   -0.260566
      3          6           0        5.651487    2.334236   -0.684639
      4          6           0        3.319118    3.051162    3.375501
      5          6           0        3.035512   -1.584897    4.214197
      6          7           0        5.037044   -0.078288   -0.208580
      7          6           0        5.292277   -1.225779   -0.829300
      8          6           0        6.041132   -1.042575   -2.183193
      9          6           0        6.719345    0.373497   -1.906124
     10          6           0        5.725690    0.925908   -0.899439
     11          6           0        8.088335    0.273670   -1.240990
     12          6           0        5.059720   -0.979166   -3.401610
     13          6           0        5.715544   -1.129328   -4.777365
     14          1           0        4.993501   -1.837041   -5.823857
     15          7           0        3.977738    2.438048    1.134078
     16          6           0        4.759476    3.001966    0.182150
     17          6           0        4.526474    4.459338    0.274107
     18          6           0        3.690985    4.711299    1.480991
     19          6           0        3.650563    3.396022    2.067326
     20          6           0        5.030494    5.438849   -0.740916
     21          6           0        3.042118    5.944278    2.025847
     22          8           0        2.556446    5.991768    3.207558
     23          6           0        3.069094    7.137739    1.160998
     24          7           0        3.464582    0.739937    3.587340
     25          6           0        3.222958    1.944723    4.115632
     26          6           0        2.722814    1.832455    5.525309
     27          6           0        2.440146    0.280327    5.771788
     28          6           0        2.932607   -0.268400    4.409933
     29          6           0        3.667762    2.358360    6.614578
     30          6           0        1.019647   -0.107941    6.253298
     31          6           0        0.013949    0.164209    5.157121
     32          7           0        3.734357   -1.630655    1.880201
     33          6           0        3.404828   -2.283420    3.076856
     34          6           0        3.591314   -3.727808    2.846563
     35          6           0        4.035158   -3.814277    1.528469
     36          6           0        4.145633   -2.504993    0.979049
     37          6           0        3.410435   -4.756013    3.813264
     38          6           0        4.465342   -4.706605    0.464256
     39          8           0        4.492090   -5.929160    0.315466
     40          6           0        5.109307   -3.827616   -0.696999
     41          6           0        4.519951   -4.294125   -2.000202
     42          8           0        3.310748   -4.119329   -2.254444
     43          8           0        5.509439   -4.653790   -2.832126
     44          6           0        4.994226   -5.099161   -4.154380
     45          1           0        6.378850    2.982363   -1.177402
     46          1           0        3.032371    3.892546    4.009761
     47          1           0        2.730050   -2.305525    4.975014
     48          1           0        6.808852   -1.790374   -2.382762
     49          1           0        6.739563    0.996864   -2.799839
     50          1           0        8.315733   -0.751571   -0.949287
     51          1           0        8.032386    0.916072   -0.361966
     52          1           0        8.860974    0.704529   -1.878302
     53          1           0        4.665646    0.032931   -3.493412
     54          1           0        4.266823   -1.720627   -3.297328
     55          1           0        6.734858   -1.507397   -4.693871
     56          1           0        5.829754   -0.136024   -5.211534
     57          1           0        5.749327    4.979496   -1.418278
     58          1           0        5.607514    6.188934   -0.200425
     59          1           0        4.217979    5.921363   -1.284360
     60          1           0        4.104221    7.397406    0.938210
     61          1           0        2.481166    7.896169    1.676726
     62          1           0        2.602245    6.892761    0.206542
     63          1           0        1.796175    2.389608    5.657020
     64          1           0        3.101926   -0.140723    6.529044
     65          1           0        3.223597    3.129326    7.244683
     66          1           0        4.572113    2.723484    6.128650
     67          1           0        4.071626    1.593637    7.277533
     68          1           0        0.731097    0.498551    7.111116
     69          1           0        0.935008   -1.155121    6.543988
     70          1           0       -0.202082    1.224578    5.282740
     71          1           0       -0.883324   -0.437364    5.306190
     72          1           0        0.457421    0.036797    4.169404
     73          1           0        2.875593   -5.559708    3.307313
     74          1           0        2.854891   -4.393377    4.677827
     75          1           0        4.447028   -4.992963    4.052399
     76          1           0        6.185756   -3.990230   -0.653004
     77          1           0        5.384926   -6.101523   -4.330043
     78          1           0        5.260141   -4.320034   -4.868982
     79          1           0        3.921027   -5.282776   -4.216576
     80         12           0       -3.523862    0.403140   -1.464725
     81          6           0       -5.846456   -1.668789    0.321815
     82          6           0       -5.799956    2.929266   -1.195184
     83          6           0       -1.704069    2.117663   -3.418224
     84          6           0       -1.979937   -2.519567   -2.569178
     85          7           0       -5.528013    0.495906   -0.533588
     86          6           0       -6.281514   -0.335716    0.169965
     87          6           0       -7.535063    0.317967    0.810965
     88          6           0       -7.699795    1.559157   -0.194616
     89          6           0       -6.248310    1.700408   -0.648395
     90          6           0       -8.551666    1.238784   -1.411577
     91          6           0       -7.272092    0.800415    2.280690
     92          6           0       -8.529722    1.165420    3.072459
     93          1           0       -8.561537    0.871729    4.502560
     94          7           0       -3.477924    2.360328   -1.790081
     95          6           0       -4.484969    3.239674   -1.606014
     96          6           0       -3.952651    4.550881   -2.007932
     97          6           0       -2.602426    4.347584   -2.599779
     98          6           0       -2.549943    2.900093   -2.645662
     99          6           0       -4.677409    5.838811   -1.744508
    100          6           0       -1.540111    5.298670   -3.061418
    101          8           0       -0.542079    4.904679   -3.762515
    102          6           0       -1.751123    6.719516   -2.748120
    103          7           0       -2.186779   -0.119954   -2.968364
    104          6           0       -1.486684    0.819249   -3.628418
    105          6           0       -0.393880    0.197672   -4.464974
    106          6           0       -0.350926   -1.343309   -4.039408
    107          6           0       -1.538118   -1.366274   -3.051769
    108          6           0       -0.574240    0.302364   -5.979210
    109          6           0        1.017230   -1.904189   -3.563751
    110          6           0        1.406862   -1.267985   -2.248911
    111          7           0       -3.713271   -1.708606   -1.049147
    112          6           0       -2.985099   -2.763292   -1.642016
    113          6           0       -3.547499   -4.026643   -1.122322
    114          6           0       -4.587174   -3.616630   -0.274111
    115          6           0       -4.680187   -2.198605   -0.281395
    116          6           0       -3.123926   -5.336638   -1.483718
    117          6           0       -5.634023   -4.061370    0.617536
    118          8           0       -5.977054   -5.148400    1.080612
    119          6           0       -6.577849   -2.825144    0.945136
    120          6           0       -6.801717   -2.792941    2.432206
    121          8           0       -5.856843   -2.568090    3.208897
    122          8           0       -8.124134   -2.816126    2.679320
    123          6           0       -8.397070   -2.774568    4.140685
    124          1           0       -6.532104    3.719020   -1.365883
    125          1           0       -0.980670    2.664909   -4.027073
    126          1           0       -1.490236   -3.470526   -2.789515
    127          1           0       -8.427276   -0.296346    0.792662
    128          1           0       -8.023566    2.453454    0.331481
    129          1           0       -8.808970    0.191070   -1.458748
    130          1           0       -7.956319    1.521175   -2.269991
    131          1           0       -9.435674    1.882534   -1.432972
    132          1           0       -6.776786    1.779522    2.252936
    133          1           0       -6.701411    0.072728    2.824219
    134          1           0       -9.443141    0.803064    2.585306
    135          1           0       -8.637939    2.252761    3.069991
    136          1           0       -5.718015    5.661063   -1.446271
    137          1           0       -4.755359    6.363642   -2.702809
    138          1           0       -4.152726    6.479359   -1.032416
    139          1           0       -2.689254    7.050669   -3.187125
    140          1           0       -0.844507    7.229595   -3.079389
    141          1           0       -1.856475    6.826549   -1.662733
    142          1           0        0.565603    0.649718   -4.245550
    143          1           0       -0.624305   -2.004500   -4.874826
    144          1           0        0.274403    0.798813   -6.486556
    145          1           0       -1.497422    0.830616   -6.177278
    146          1           0       -0.735376   -0.644546   -6.491647
    147          1           0        1.802014   -1.644910   -4.278614
    148          1           0        1.026559   -2.983338   -3.452618
    149          1           0        1.860686   -0.321506   -2.557635
    150          1           0        2.121293   -1.893476   -1.717522
    151          1           0        0.520738   -1.028661   -1.649616
    152          1           0       -3.075302   -5.911673   -0.568586
    153          1           0       -2.162936   -5.317265   -1.993529
    154          1           0       -3.937977   -5.627084   -2.153211
    155          1           0       -7.508141   -2.968171    0.394086
    156          1           0       -9.019509   -3.643868    4.374297
    157          1           0       -8.832565   -1.776400    4.334996
    158          1           0       -7.559770   -2.927566    4.811485
 ---------------------------------------------------------------------

 SCF Done:  E(RCAM-B3LYP) =  -4069.81701780     A.U. after   19 cycles

 Excitation energies and oscillator strengths:

 Excited State   1:      Singlet-A      1.6329 eV  759.31 nm  f=0.0035  <S**2>=0.000
     309 -> 315       -0.11178
     310 -> 316        0.11873
     311 -> 313       -0.46917
     312 -> 314        0.50368
 This state for optimization and/or second-order correction.
 Total Energy, E(TD-HF/TD-DFT) =  -4069.75701141
 Copying the excited state density for this state as the 1-particle RhoCI density.

 Excited State   2:      Singlet-A      1.7080 eV  725.92 nm  f=0.6795  <S**2>=0.000
     309 -> 315        0.13408
     310 -> 316        0.12351
     311 -> 313        0.50050
     312 -> 314        0.46608

 Excited State   3:      Singlet-A      2.1780 eV  569.27 nm  f=0.0451  <S**2>=0.000
     309 -> 313        0.26123
     310 -> 314        0.59046
     311 -> 315       -0.10632
     312 -> 316       -0.24329

 Excited State   4:      Singlet-A      2.1970 eV  564.34 nm  f=0.1364  <S**2>=0.000
     309 -> 313        0.58506
     310 -> 314       -0.25629
     311 -> 315       -0.25758
     312 -> 316        0.11618

 Excited State   5:      Singlet-A      2.2980 eV  539.53 nm  f=0.0000  <S**2>=0.000
     312 -> 313        0.70665

 The electronic state is 1-A.
 Alpha  occ. eigenvalues --  -46.87695 -46.87291 -19.26819 -19.26162 -19.19817
 Alpha  occ. eigenvalues --  -19.18959 -19.18731 -19.18533 -19.18220 -19.17760
 Alpha  occ. eigenvalues --  -14.42374 -14.42143 -14.41359 -14.40938 -14.39307
 Alpha  occ. eigenvalues --  -14.39000 -14.38507 -14.38226 -10.39713 -10.38878
 Alpha  occ. eigenvalues --  -10.35361 -10.35220 -10.34465 -10.33937 -10.32111
 Alpha  occ. eigenvalues --  -10.31607 -10.31372 -10.30942 -10.30896 -10.30727
 Alpha  occ. eigenvalues --  -10.30502 -10.30430 -10.30067 -10.30016 -10.29968
 Alpha  occ. eigenvalues --  -10.29837 -10.29677 -10.29550 -10.29450 -10.29132
 Alpha  occ. eigenvalues --  -10.29079 -10.29035 -10.28835 -10.28748 -10.28478
 Alpha  occ. eigenvalues --  -10.28463 -10.28327 -10.28132 -10.28087 -10.27863
 Alpha  occ. eigenvalues --  -10.27706 -10.27659 -10.27639 -10.27491 -10.27410
 Alpha  occ. eigenvalues --  -10.27364 -10.27311 -10.27311 -10.27305 -10.27265
 Alpha  occ. eigenvalues --  -10.27203 -10.27140 -10.27127 -10.26918 -10.26825
 Alpha  occ. eigenvalues --  -10.26777 -10.26749 -10.26475 -10.26349 -10.26301
 Alpha  occ. eigenvalues --  -10.26232 -10.25896 -10.25888 -10.25773 -10.25685
 Alpha  occ. eigenvalues --  -10.25424 -10.25342 -10.25316 -10.25036 -10.24776
 Alpha  occ. eigenvalues --  -10.24770 -10.24715 -10.24535 -10.24318 -10.24297
 Alpha  occ. eigenvalues --  -10.23186  -3.16434  -3.16041  -1.91314  -1.90924
 Alpha  occ. eigenvalues --   -1.90902  -1.90745  -1.90511  -1.90349  -1.17192
 Alpha  occ. eigenvalues --   -1.16451  -1.08727  -1.08373  -1.07335  -1.07133
 Alpha  occ. eigenvalues --   -1.06799  -1.06741  -1.04524  -1.04152  -1.03674
 Alpha  occ. eigenvalues --   -1.03288  -1.03146  -1.02635  -1.02327  -1.01728
 Alpha  occ. eigenvalues --   -0.92004  -0.91649  -0.89395  -0.89221  -0.88967
 Alpha  occ. eigenvalues --   -0.88809  -0.88152  -0.87776  -0.87623  -0.87572
 Alpha  occ. eigenvalues --   -0.87400  -0.87305  -0.87152  -0.86839  -0.85016
 Alpha  occ. eigenvalues --   -0.84697  -0.83824  -0.83237  -0.82847  -0.82676
 Alpha  occ. eigenvalues --   -0.82625  -0.82245  -0.81721  -0.81266  -0.80608
 Alpha  occ. eigenvalues --   -0.80114  -0.78688  -0.78298  -0.77158  -0.76985
 Alpha  occ. eigenvalues --   -0.76797  -0.76446  -0.75957  -0.75512  -0.74811
 Alpha  occ. eigenvalues --   -0.74311  -0.72688  -0.72289  -0.71640  -0.71226
 Alpha  occ. eigenvalues --   -0.69704  -0.68954  -0.68868  -0.68474  -0.67620
 Alpha  occ. eigenvalues --   -0.67264  -0.67253  -0.66950  -0.65340  -0.64970
 Alpha  occ. eigenvalues --   -0.64905  -0.64608  -0.64396  -0.64279  -0.64149
 Alpha  occ. eigenvalues --   -0.63553  -0.62485  -0.61923  -0.60330  -0.59997
 Alpha  occ. eigenvalues --   -0.59801  -0.59488  -0.58963  -0.58604  -0.58509
 Alpha  occ. eigenvalues --   -0.58044  -0.57818  -0.57264  -0.57240  -0.56811
 Alpha  occ. eigenvalues --   -0.56405  -0.56115  -0.55850  -0.55624  -0.55527
 Alpha  occ. eigenvalues --   -0.55371  -0.55190  -0.54824  -0.54628  -0.53976
 Alpha  occ. eigenvalues --   -0.53958  -0.53633  -0.53275  -0.53227  -0.53098
 Alpha  occ. eigenvalues --   -0.52923  -0.52761  -0.52684  -0.52559  -0.52454
 Alpha  occ. eigenvalues --   -0.52214  -0.51850  -0.51670  -0.51504  -0.51394
 Alpha  occ. eigenvalues --   -0.51321  -0.51183  -0.50722  -0.50415  -0.50225
 Alpha  occ. eigenvalues --   -0.49974  -0.49805  -0.49691  -0.49618  -0.49303
 Alpha  occ. eigenvalues --   -0.49235  -0.49156  -0.49010  -0.48921  -0.48775
 Alpha  occ. eigenvalues --   -0.48598  -0.48439  -0.48342  -0.48271  -0.48112
 Alpha  occ. eigenvalues --   -0.47897  -0.47665  -0.47249  -0.47222  -0.46795
 Alpha  occ. eigenvalues --   -0.46735  -0.46605  -0.46346  -0.46318  -0.46180
 Alpha  occ. eigenvalues --   -0.46105  -0.45908  -0.45830  -0.45664  -0.45468
 Alpha  occ. eigenvalues --   -0.45098  -0.44721  -0.44617  -0.44452  -0.44251
 Alpha  occ. eigenvalues --   -0.44162  -0.44093  -0.44037  -0.43968  -0.43860
 Alpha  occ. eigenvalues --   -0.43679  -0.43650  -0.43497  -0.43353  -0.43171
 Alpha  occ. eigenvalues --   -0.43064  -0.42982  -0.42871  -0.42634  -0.42535
 Alpha  occ. eigenvalues --   -0.42502  -0.42020  -0.41925  -0.41686  -0.41536
 Alpha  occ. eigenvalues --   -0.41373  -0.41299  -0.41107  -0.40918  -0.40850
 Alpha  occ. eigenvalues --   -0.40764  -0.40652  -0.40523  -0.40437  -0.40337
 Alpha  occ. eigenvalues --   -0.40303  -0.40002  -0.39712  -0.39215  -0.38523
 Alpha  occ. eigenvalues --   -0.38357  -0.37842  -0.37771  -0.37374  -0.37303
 Alpha  occ. eigenvalues --   -0.37219  -0.37100  -0.36895  -0.36677  -0.36482
 Alpha  occ. eigenvalues --   -0.36214  -0.35721  -0.34407  -0.34176  -0.33877
 Alpha  occ. eigenvalues --   -0.33626  -0.33131  -0.32792  -0.31265  -0.31092
 Alpha  occ. eigenvalues --   -0.30987  -0.30607  -0.30098  -0.29662  -0.29353
 Alpha  occ. eigenvalues --   -0.29240  -0.29008  -0.28860  -0.24028  -0.23658
 Alpha  occ. eigenvalues --   -0.21039  -0.20735
 Alpha virt. eigenvalues --   -0.08697  -0.08438  -0.01670  -0.01309   0.00003
 Alpha virt. eigenvalues --    0.00236   0.02220   0.02546   0.02601   0.04418
 Alpha virt. eigenvalues --    0.04512   0.04705   0.05075   0.05389   0.05836

 Mulliken charges:
               1
     1  Mg   0.837172
     2  C   -0.005158
     3  C   -0.092740
     4  C   -0.045284
     5  C   -0.062051
     6  N   -0.256290
     7  C   -0.054712
     8  C   -0.010720
     9  C   -0.087339
    10  C    0.047506
    11  C    0.104832
    12  C    0.036403
    13  C   -0.070624
    14  H    0.034126
    15  N   -0.433214
    16  C    0.170258
    17  C   -0.174610
    18  C   -0.003104
    19  C    0.148993
    20  C    0.109559
    21  C    0.012505
    22  O   -0.250241
    23  C    0.061206
    24  N   -0.340600
    25  C    0.041381
    26  C   -0.028064
    27  C   -0.024130
    28  C    0.074680
    29  C    0.076296
    30  C    0.034837
    31  C   -0.005489
    32  N   -0.310554
    33  C    0.081245
    34  C   -0.168605
    35  C    0.004863
    36  C    0.083110
    37  C    0.127159
    38  C    0.048488
    39  O   -0.188440
    40  C   -0.010742
    41  C    0.222061
    42  O   -0.256674
    43  O   -0.302723
    44  C    0.156126
    45  H   -0.017715
    46  H   -0.016865
    47  H   -0.040113
    48  H   -0.000442
    49  H   -0.003440
    50  H    0.025247
    51  H    0.017271
    52  H    0.016827
    53  H    0.017257
    54  H    0.049103
    55  H    0.018555
    56  H    0.019853
    57  H    0.006020
    58  H    0.025769
    59  H    0.044970
    60  H    0.037506
    61  H    0.033983
    62  H    0.034412
    63  H    0.016748
    64  H    0.009191
    65  H    0.022939
    66  H    0.012080
    67  H    0.004852
    68  H    0.005764
    69  H    0.006191
    70  H    0.006894
    71  H    0.025158
    72  H    0.028173
    73  H    0.048102
    74  H    0.011000
    75  H    0.045422
    76  H    0.035538
    77  H    0.045345
    78  H    0.048138
    79  H    0.052624
    80  Mg   0.836507
    81  C   -0.018127
    82  C   -0.088484
    83  C   -0.046538
    84  C   -0.062424
    85  N   -0.254709
    86  C   -0.049798
    87  C   -0.015108
    88  C   -0.090354
    89  C    0.045348
    90  C    0.114659
    91  C    0.062631
    92  C   -0.077344
    93  H    0.033587
    94  N   -0.423196
    95  C    0.162488
    96  C   -0.175262
    97  C   -0.008724
    98  C    0.151861
    99  C    0.099422
   100  C    0.014018
   101  O   -0.256450
   102  C    0.061393
   103  N   -0.350750
   104  C    0.038216
   105  C   -0.018328
   106  C   -0.034421
   107  C    0.090241
   108  C    0.075271
   109  C    0.037340
   110  C   -0.036462
   111  N   -0.324499
   112  C    0.079114
   113  C   -0.160738
   114  C    0.001429
   115  C    0.096809
   116  C    0.130329
   117  C    0.042266
   118  O   -0.188436
   119  C    0.000989
   120  C    0.211277
   121  O   -0.251940
   122  O   -0.305515
   123  C    0.152391
   124  H   -0.020964
   125  H   -0.017675
   126  H   -0.033906
   127  H   -0.001242
   128  H   -0.005024
   129  H    0.021995
   130  H    0.014357
   131  H    0.015338
   132  H    0.014181
   133  H    0.037074
   134  H    0.020561
   135  H    0.019449
   136  H    0.008335
   137  H    0.024601
   138  H    0.039102
   139  H    0.038737
   140  H    0.031939
   141  H    0.034440
   142  H    0.012222
   143  H    0.009263
   144  H    0.021198
   145  H    0.009955
   146  H    0.004669
   147  H   -0.002268
   148  H    0.017882
   149  H    0.002420
   150  H    0.054388
   151  H    0.019358
   152  H    0.046449
   153  H    0.014997
   154  H    0.045281
   155  H    0.034354
   156  H    0.043520
   157  H    0.049279
   158  H    0.052701
 Sum of Mulliken charges =  -0.00000

 Dipole moment (field-independent basis, Debye):
    X=              1.0998    Y=              6.4181    Z=             -2.2584  Tot=              6.8921
 Quadrupole moment (field-independent basis, Debye-Ang):
   XX=           -453.9171   YY=           -537.9895   ZZ=           -486.1476
   XY=            -19.9709   XZ=            -17.7917   YZ=              4.3225

 Normal termination of Gaussian 16 at Wed Sep  8 16:39:54 2021.
