 Gaussian 16, Revision A.03,
 Gaussian 16:  ES64L-G16RevA.03 25-Dec-2016

 -----------------------------------
 #p cam-b3lyp/Def2SVP td=(nstates=5)
 -----------------------------------

 --------------------------------
 TDDFT excited states in gaussian
 --------------------------------
 Symbolic Z-matrix:
 Charge =  0 Multiplicity = 1

                         Standard orientation:
 ---------------------------------------------------------------------
 Center     Atomic      Atomic             Coordinates (Angstroms)
 Number     Number       Type             X           Y           Z
 ---------------------------------------------------------------------
      1         12           0       -3.847351    0.354992   -0.827758
      2          6           0       -3.990607   -3.009180    0.386340
      3          6           0       -5.416924    1.302606    2.050007
      4          6           0       -4.140799    3.257184   -2.071861
      5          6           0       -3.344977   -0.971663   -4.011038
      6          7           0       -4.560644   -0.799196    0.921444
      7          6           0       -4.500968   -2.074922    1.290408
      8          6           0       -4.962473   -2.315581    2.758900
      9          6           0       -5.890359   -1.032413    2.944651
     10          6           0       -5.229715   -0.107158    1.937985
     11          6           0       -7.338553   -1.261765    2.524370
     12          6           0       -3.764760   -2.307317    3.767437
     13          6           0       -4.081393   -2.854354    5.162373
     14          1           0       -3.054098   -3.602674    5.870916
     15          7           0       -4.205348    2.091909    0.042763
     16          6           0       -4.841963    2.290827    1.221931
     17          6           0       -4.857098    3.754034    1.435184
     18          6           0       -4.346407    4.400028    0.194225
     19          6           0       -4.233634    3.262165   -0.682090
     20          6           0       -5.275048    4.393477    2.723664
     21          6           0       -4.022891    5.819306   -0.150912
     22          8           0       -3.813541    6.195815   -1.354651
     23          6           0       -4.044817    6.787107    0.960808
     24          7           0       -3.976890    1.051864   -2.791231
     25          6           0       -4.038638    2.361473   -3.055990
     26          6           0       -3.839818    2.632985   -4.517732
     27          6           0       -3.384876    1.246873   -5.166944
     28          6           0       -3.486527    0.351696   -3.907343
     29          6           0       -5.063893    3.171881   -5.270887
     30          6           0       -2.057898    1.246896   -5.966661
     31          6           0       -0.894403    1.484782   -5.030291
     32          7           0       -3.514392   -1.618477   -1.667761
     33          6           0       -3.353039   -1.941803   -3.022788
     34          6           0       -3.265444   -3.411154   -3.108837
     35          6           0       -3.399418   -3.844227   -1.791133
     36          6           0       -3.586777   -2.718374   -0.939285
     37          6           0       -3.141706   -4.169931   -4.306075
     38          6           0       -3.452527   -4.997694   -0.907645
     39          8           0       -3.261701   -6.206627   -1.047500
     40          6           0       -3.959135   -4.511270    0.521539
     41          6           0       -3.041591   -5.105150    1.555332
     42          8           0       -1.846660   -4.752734    1.628197
     43          8           0       -3.764663   -5.809553    2.439371
     44          6           0       -2.917811   -6.401379    3.509295
     45          1           0       -6.111798    1.684810    2.800348
     46          1           0       -4.126657    4.247813   -2.531091
     47          1           0       -3.103564   -1.452011   -4.961005
     48          1           0       -5.547775   -3.223042    2.908439
     49          1           0       -5.813387   -0.616506    3.949051
     50          1           0       -7.465249   -2.232190    2.044635
     51          1           0       -7.569324   -0.458190    1.824724
     52          1           0       -8.013416   -1.125921    3.369878
     53          1           0       -3.517872   -1.277083    4.023809
     54          1           0       -2.909600   -2.844085    3.355239
     55          1           0       -5.025860   -3.399146    5.171925
     56          1           0       -4.249171   -2.009599    5.830534
     57          1           0       -5.754805    3.676954    3.389227
     58          1           0       -6.060774    5.109515    2.483596
     59          1           0       -4.447800    4.906308    3.214579
     60          1           0       -5.035616    6.790368    1.415621
     61          1           0       -3.702136    7.733007    0.542845
     62          1           0       -3.353454    6.451856    1.734483
     63          1           0       -3.057816    3.374743   -4.674872
     64          1           0       -4.121570    0.865174   -5.874235
     65          1           0       -4.886277    4.124707   -5.770168
     66          1           0       -5.888252    3.249239   -4.562552
     67          1           0       -5.479549    2.491519   -6.013689
     68          1           0       -2.054209    2.057032   -6.695092
     69          1           0       -1.879888    0.315953   -6.505092
     70          1           0       -0.873065    2.570193   -4.939399
     71          1           0        0.030784    1.111621   -5.470735
     72          1           0       -1.092342    1.078544   -4.038184
     73          1           0       -2.395953   -4.938752   -4.104243
     74          1           0       -2.844882   -3.540631   -5.144812
     75          1           0       -4.157412   -4.551448   -4.409232
     76          1           0       -4.982901   -4.868195    0.629389
     77          1           0       -3.105827   -7.475103    3.510382
     78          1           0       -3.139766   -5.847914    4.421883
     79          1           0       -1.840938   -6.381198    3.338192
     80         12           0        3.905944    1.066231    0.753967
     81          6           0        4.343705   -2.012458   -1.037439
     82          6           0        2.654350   -0.784783    3.331144
     83          6           0        3.091492    3.782095    2.178105
     84          6           0        4.102549    2.715599   -2.309795
     85          7           0        3.590791   -1.109569    0.996511
     86          6           0        3.851879   -2.187752    0.272838
     87          6           0        3.645798   -3.531139    1.022761
     88          6           0        2.595891   -3.029985    2.129737
     89          6           0        2.988150   -1.555083    2.188642
     90          6           0        1.149548   -3.121661    1.672525
     91          6           0        4.968996   -4.056580    1.682339
     92          6           0        4.914730   -5.507740    2.165016
     93          1           0        6.120867   -6.323537    2.054629
     94          7           0        3.468650    1.439426    2.653458
     95          6           0        2.992212    0.566242    3.565501
     96          6           0        2.816847    1.336418    4.806562
     97          6           0        3.072506    2.771761    4.507972
     98          6           0        3.203313    2.721713    3.065591
     99          6           0        2.519666    0.691682    6.129219
    100          6           0        3.168944    3.990023    5.375565
    101          8           0        3.161355    5.172000    4.879859
    102          6           0        3.178376    3.761532    6.827874
    103          7           0        3.423831    2.952010    0.023375
    104          6           0        3.159735    3.970834    0.860134
    105          6           0        3.112378    5.286284    0.120048
    106          6           0        3.640999    4.968379   -1.355448
    107          6           0        3.826212    3.439868   -1.234050
    108          6           0        1.739579    5.953168    0.035851
    109          6           0        4.832958    5.818457   -1.874359
    110          6           0        6.080329    5.494990   -1.083895
    111          7           0        4.356048    0.511452   -1.285073
    112          6           0        4.357165    1.354408   -2.418000
    113          6           0        4.609991    0.499863   -3.596245
    114          6           0        4.716394   -0.794500   -3.065407
    115          6           0        4.522103   -0.752509   -1.658291
    116          6           0        4.664561    0.941923   -4.948177
    117          6           0        4.938326   -2.188237   -3.376789
    118          8           0        5.245367   -2.813566   -4.390894
    119          6           0        4.581290   -3.055761   -2.093698
    120          6           0        5.699432   -4.036812   -1.870477
    121          8           0        6.837543   -3.639253   -1.565085
    122          8           0        5.192854   -5.282940   -1.840473
    123          6           0        6.262074   -6.290743   -1.610409
    124          1           0        2.038927   -1.244369    4.105033
    125          1           0        2.920910    4.760979    2.632157
    126          1           0        4.275826    3.167264   -3.288901
    127          1           0        3.207641   -4.322024    0.425855
    128          1           0        2.773321   -3.510306    3.088479
    129          1           0        1.072859   -3.398748    0.631622
    130          1           0        0.726957   -2.138702    1.834516
    131          1           0        0.590924   -3.800804    2.322940
    132          1           0        5.118508   -3.544916    2.641804
    133          1           0        5.802528   -3.927105    1.019697
    134          1           0        4.048917   -6.044998    1.759232
    135          1           0        4.748406   -5.508232    3.244994
    136          1           0        2.223253   -0.357495    6.007720
    137          1           0        1.625857    1.181762    6.530199
    138          1           0        3.336092    0.804538    6.845719
    139          1           0        2.271980    3.234621    7.116435
    140          1           0        3.342415    4.742964    7.277043
    141          1           0        4.017772    3.101154    7.072679
    142          1           0        3.770719    6.012849    0.580255
    143          1           0        2.859479    5.131113   -2.112134
    144          1           0        1.726471    6.978915    0.450273
    145          1           0        1.023387    5.326118    0.550067
    146          1           0        1.316384    6.014097   -0.965342
    147          1           0        4.635001    6.882056   -1.720318
    148          1           0        5.035798    5.678358   -2.930869
    149          1           0        5.975842    6.119398   -0.191543
    150          1           0        6.971536    5.760232   -1.649081
    151          1           0        6.078431    4.448897   -0.756294
    152          1           0        5.511322    0.446147   -5.403909
    153          1           0        4.756549    2.024331   -5.009136
    154          1           0        3.693157    0.591648   -5.307275
    155          1           0        3.631625   -3.555056   -2.289709
    156          1           0        6.205098   -7.010428   -2.432902
    157          1           0        6.091777   -6.679021   -0.588654
    158          1           0        7.290261   -5.958002   -1.691378
 ---------------------------------------------------------------------

 SCF Done:  E(RCAM-B3LYP) =  -4069.81480796     A.U. after   18 cycles

 Excitation energies and oscillator strengths:

 Excited State   1:      Singlet-A      1.6476 eV  752.51 nm  f=0.1127  <S**2>=0.000
     309 -> 315       -0.10713
     310 -> 316        0.12630
     311 -> 313       -0.44011
     312 -> 314        0.52823
 This state for optimization and/or second-order correction.
 Total Energy, E(TD-HF/TD-DFT) =  -4069.75425927
 Copying the excited state density for this state as the 1-particle RhoCI density.

 Excited State   2:      Singlet-A      1.6929 eV  732.40 nm  f=0.5522  <S**2>=0.000
     309 -> 315        0.13792
     310 -> 316        0.11157
     311 -> 313        0.52578
     312 -> 314        0.43806

 Excited State   3:      Singlet-A      2.1779 eV  569.29 nm  f=0.0577  <S**2>=0.000
     309 -> 313       -0.25045
     310 -> 314        0.59498
     311 -> 315        0.10218
     312 -> 316       -0.24206

 Excited State   4:      Singlet-A      2.1841 eV  567.68 nm  f=0.0002  <S**2>=0.000
     312 -> 313        0.70665

 Excited State   5:      Singlet-A      2.1974 eV  564.23 nm  f=0.1264  <S**2>=0.000
     309 -> 313        0.58924
     310 -> 314        0.24566
     311 -> 315       -0.26004
     312 -> 316       -0.10899

 The electronic state is 1-A.
 Alpha  occ. eigenvalues --  -46.87991 -46.87284 -19.26936 -19.25909 -19.19846
 Alpha  occ. eigenvalues --  -19.18956 -19.18749 -19.18518 -19.18453 -19.17709
 Alpha  occ. eigenvalues --  -14.42663 -14.42031 -14.41638 -14.40996 -14.39590
 Alpha  occ. eigenvalues --  -14.38999 -14.38790 -14.38236 -10.39784 -10.38671
 Alpha  occ. eigenvalues --  -10.35582 -10.35204 -10.34692 -10.33872 -10.32307
 Alpha  occ. eigenvalues --  -10.31642 -10.31337 -10.31156 -10.30792 -10.30780
 Alpha  occ. eigenvalues --  -10.30699 -10.30551 -10.30359 -10.30108 -10.30074
 Alpha  occ. eigenvalues --  -10.29998 -10.29818 -10.29803 -10.29559 -10.29421
 Alpha  occ. eigenvalues --  -10.29094 -10.29093 -10.29084 -10.29026 -10.28589
 Alpha  occ. eigenvalues --  -10.28397 -10.28109 -10.28027 -10.27983 -10.27967
 Alpha  occ. eigenvalues --  -10.27927 -10.27763 -10.27664 -10.27653 -10.27620
 Alpha  occ. eigenvalues --  -10.27600 -10.27589 -10.27552 -10.27269 -10.27216
 Alpha  occ. eigenvalues --  -10.27212 -10.27176 -10.27165 -10.27161 -10.27076
 Alpha  occ. eigenvalues --  -10.27067 -10.26617 -10.26475 -10.26468 -10.26306
 Alpha  occ. eigenvalues --  -10.26261 -10.26184 -10.26113 -10.25950 -10.25884
 Alpha  occ. eigenvalues --  -10.25645 -10.25588 -10.25559 -10.25086 -10.25043
 Alpha  occ. eigenvalues --  -10.24983 -10.24769 -10.24532 -10.24497 -10.24351
 Alpha  occ. eigenvalues --  -10.24243  -3.16733  -3.16035  -1.91614  -1.91201
 Alpha  occ. eigenvalues --   -1.91043  -1.90918  -1.90505  -1.90344  -1.17299
 Alpha  occ. eigenvalues --   -1.16210  -1.08945  -1.08311  -1.07384  -1.07355
 Alpha  occ. eigenvalues --   -1.06779  -1.06533  -1.04805  -1.04040  -1.03954
 Alpha  occ. eigenvalues --   -1.03426  -1.03270  -1.02688  -1.02607  -1.01742
 Alpha  occ. eigenvalues --   -0.92244  -0.91579  -0.89690  -0.89487  -0.89167
 Alpha  occ. eigenvalues --   -0.88449  -0.88372  -0.88048  -0.87896  -0.87891
 Alpha  occ. eigenvalues --   -0.87476  -0.87424  -0.87244  -0.86870  -0.85272
 Alpha  occ. eigenvalues --   -0.84403  -0.84116  -0.83568  -0.83109  -0.82914
 Alpha  occ. eigenvalues --   -0.82719  -0.82101  -0.81955  -0.81181  -0.80860
 Alpha  occ. eigenvalues --   -0.80051  -0.78963  -0.78335  -0.77438  -0.77245
 Alpha  occ. eigenvalues --   -0.76754  -0.76349  -0.76217  -0.75161  -0.75089
 Alpha  occ. eigenvalues --   -0.74407  -0.72965  -0.72317  -0.71901  -0.71055
 Alpha  occ. eigenvalues --   -0.70039  -0.69438  -0.69142  -0.68266  -0.67878
 Alpha  occ. eigenvalues --   -0.67505  -0.67260  -0.66733  -0.65592  -0.65145
 Alpha  occ. eigenvalues --   -0.64881  -0.64726  -0.64446  -0.64370  -0.64166
 Alpha  occ. eigenvalues --   -0.63852  -0.62704  -0.61882  -0.60600  -0.60067
 Alpha  occ. eigenvalues --   -0.60058  -0.59221  -0.59186  -0.58760  -0.58595
 Alpha  occ. eigenvalues --   -0.58042  -0.58007  -0.57513  -0.57159  -0.56910
 Alpha  occ. eigenvalues --   -0.56605  -0.56371  -0.55852  -0.55756  -0.55623
 Alpha  occ. eigenvalues --   -0.55463  -0.55095  -0.54905  -0.54871  -0.54213
 Alpha  occ. eigenvalues --   -0.54125  -0.53541  -0.53484  -0.53355  -0.53125
 Alpha  occ. eigenvalues --   -0.52937  -0.52897  -0.52738  -0.52571  -0.52528
 Alpha  occ. eigenvalues --   -0.52166  -0.52114  -0.52045  -0.51895  -0.51612
 Alpha  occ. eigenvalues --   -0.51450  -0.51145  -0.50792  -0.50687  -0.50248
 Alpha  occ. eigenvalues --   -0.50203  -0.50094  -0.49780  -0.49622  -0.49513
 Alpha  occ. eigenvalues --   -0.49486  -0.49370  -0.49005  -0.48931  -0.48790
 Alpha  occ. eigenvalues --   -0.48710  -0.48607  -0.48369  -0.48074  -0.48047
 Alpha  occ. eigenvalues --   -0.47943  -0.47926  -0.47506  -0.47123  -0.47017
 Alpha  occ. eigenvalues --   -0.46866  -0.46781  -0.46599  -0.46390  -0.46277
 Alpha  occ. eigenvalues --   -0.46131  -0.45958  -0.45843  -0.45730  -0.45387
 Alpha  occ. eigenvalues --   -0.45339  -0.44867  -0.44848  -0.44718  -0.44403
 Alpha  occ. eigenvalues --   -0.44310  -0.44236  -0.44155  -0.44060  -0.43853
 Alpha  occ. eigenvalues --   -0.43779  -0.43631  -0.43563  -0.43403  -0.43279
 Alpha  occ. eigenvalues --   -0.43187  -0.43133  -0.42819  -0.42800  -0.42516
 Alpha  occ. eigenvalues --   -0.42431  -0.42241  -0.42233  -0.41954  -0.41809
 Alpha  occ. eigenvalues --   -0.41584  -0.41371  -0.41242  -0.41132  -0.41020
 Alpha  occ. eigenvalues --   -0.40938  -0.40742  -0.40578  -0.40502  -0.40379
 Alpha  occ. eigenvalues --   -0.40211  -0.39814  -0.39645  -0.39568  -0.39123
 Alpha  occ. eigenvalues --   -0.38657  -0.38114  -0.37961  -0.37556  -0.37506
 Alpha  occ. eigenvalues --   -0.37274  -0.37157  -0.36859  -0.36653  -0.36479
 Alpha  occ. eigenvalues --   -0.36370  -0.35797  -0.34558  -0.34417  -0.33848
 Alpha  occ. eigenvalues --   -0.33460  -0.33409  -0.32804  -0.31493  -0.31259
 Alpha  occ. eigenvalues --   -0.31072  -0.30559  -0.30326  -0.29630  -0.29604
 Alpha  occ. eigenvalues --   -0.29518  -0.29034  -0.28883  -0.24296  -0.23652
 Alpha  occ. eigenvalues --   -0.21321  -0.20728
 Alpha virt. eigenvalues --   -0.08969  -0.08448  -0.01941  -0.01322  -0.00250
 Alpha virt. eigenvalues --    0.00315   0.01966   0.02385   0.02636   0.03686
 Alpha virt. eigenvalues --    0.04400   0.04449   0.05271   0.05586   0.05765

 Mulliken charges:
               1
     1  Mg   0.839398
     2  C   -0.005129
     3  C   -0.094301
     4  C   -0.045436
     5  C   -0.062684
     6  N   -0.256908
     7  C   -0.053059
     8  C   -0.014131
     9  C   -0.087017
    10  C    0.046299
    11  C    0.104670
    12  C    0.053094
    13  C   -0.071226
    14  H    0.032247
    15  N   -0.433357
    16  C    0.169170
    17  C   -0.176225
    18  C   -0.003114
    19  C    0.148946
    20  C    0.109831
    21  C    0.012608
    22  O   -0.249909
    23  C    0.061736
    24  N   -0.340972
    25  C    0.041672
    26  C   -0.028302
    27  C   -0.023923
    28  C    0.074588
    29  C    0.076052
    30  C    0.034698
    31  C   -0.004865
    32  N   -0.310439
    33  C    0.080149
    34  C   -0.169071
    35  C    0.007652
    36  C    0.082805
    37  C    0.127336
    38  C    0.044738
    39  O   -0.188830
    40  C   -0.005690
    41  C    0.216572
    42  O   -0.255482
    43  O   -0.302509
    44  C    0.157058
    45  H   -0.017336
    46  H   -0.016550
    47  H   -0.040187
    48  H    0.000849
    49  H   -0.004188
    50  H    0.025591
    51  H    0.017239
    52  H    0.017065
    53  H    0.011546
    54  H    0.041005
    55  H    0.019430
    56  H    0.018847
    57  H    0.005548
    58  H    0.027253
    59  H    0.041577
    60  H    0.037369
    61  H    0.036027
    62  H    0.034047
    63  H    0.016340
    64  H    0.009995
    65  H    0.023438
    66  H    0.012581
    67  H    0.005310
    68  H    0.006372
    69  H    0.006175
    70  H    0.007291
    71  H    0.019074
    72  H    0.030341
    73  H    0.048089
    74  H    0.010812
    75  H    0.046106
    76  H    0.036489
    77  H    0.045153
    78  H    0.047339
    79  H    0.051228
    80  Mg   0.835901
    81  C   -0.017035
    82  C   -0.088103
    83  C   -0.047294
    84  C   -0.065728
    85  N   -0.255911
    86  C   -0.047113
    87  C   -0.015160
    88  C   -0.092176
    89  C    0.047576
    90  C    0.120860
    91  C    0.062369
    92  C   -0.076941
    93  H    0.031446
    94  N   -0.423488
    95  C    0.163273
    96  C   -0.175745
    97  C   -0.009265
    98  C    0.152406
    99  C    0.100163
   100  C    0.014213
   101  O   -0.254656
   102  C    0.061633
   103  N   -0.350583
   104  C    0.037894
   105  C   -0.019849
   106  C   -0.034475
   107  C    0.088971
   108  C    0.072936
   109  C    0.034950
   110  C   -0.007472
   111  N   -0.324090
   112  C    0.078561
   113  C   -0.164459
   114  C    0.002077
   115  C    0.096073
   116  C    0.131340
   117  C    0.041341
   118  O   -0.189063
   119  C    0.001556
   120  C    0.210987
   121  O   -0.252100
   122  O   -0.304200
   123  C    0.152648
   124  H   -0.019293
   125  H   -0.017502
   126  H   -0.041820
   127  H    0.003529
   128  H   -0.009044
   129  H    0.025710
   130  H    0.005559
   131  H    0.027754
   132  H    0.012001
   133  H    0.035766
   134  H    0.024014
   135  H    0.018015
   136  H    0.008860
   137  H    0.023166
   138  H    0.038827
   139  H    0.036651
   140  H    0.035115
   141  H    0.034126
   142  H    0.013311
   143  H    0.012631
   144  H    0.023338
   145  H    0.010120
   146  H    0.010024
   147  H    0.005791
   148  H    0.002973
   149  H    0.010415
   150  H    0.017108
   151  H    0.030494
   152  H    0.045414
   153  H    0.007992
   154  H    0.044841
   155  H    0.038073
   156  H    0.043310
   157  H    0.050169
   158  H    0.052293
 Sum of Mulliken charges =  -0.00000

 Dipole moment (field-independent basis, Debye):
    X=             -6.1982    Y=              1.2235    Z=              5.7586  Tot=              8.5485
 Quadrupole moment (field-independent basis, Debye-Ang):
   XX=           -517.9004   YY=           -530.6672   ZZ=           -470.3985
   XY=             -2.0575   XZ=             -3.2296   YZ=            -32.9337

 Normal termination of Gaussian 16 at Fri Sep  3 17:44:48 2021.
