 Gaussian 16, Revision A.03,
 Gaussian 16:  ES64L-G16RevA.03 25-Dec-2016

 -----------------------------------
 #p cam-b3lyp/Def2SVP td=(nstates=5)
 -----------------------------------

 --------------------------------
 TDDFT excited states in gaussian
 --------------------------------
 Symbolic Z-matrix:
 Charge =  0 Multiplicity = 1

                         Standard orientation:
 ---------------------------------------------------------------------
 Center     Atomic      Atomic             Coordinates (Angstroms)
 Number     Number       Type             X           Y           Z
 ---------------------------------------------------------------------
      1         12           0        3.230641    1.548001    0.870301
      2          6           0        4.556790   -1.560042   -0.310213
      3          6           0        4.314194    2.947583   -2.046915
      4          6           0        2.478460    4.382383    2.077414
      5          6           0        3.283364    0.183315    4.076625
      6          7           0        4.286657    0.697825   -0.879750
      7          6           0        4.684457   -0.520189   -1.233822
      8          6           0        5.181046   -0.603699   -2.708203
      9          6           0        5.582886    0.923834   -2.925382
     10          6           0        4.647915    1.566791   -1.916244
     11          6           0        7.022433    1.237218   -2.530418
     12          6           0        4.046465   -1.043303   -3.693700
     13          6           0        4.519058   -1.463496   -5.088493
     14          1           0        3.819679   -2.542767   -5.769221
     15          7           0        2.928051    3.282623   -0.025455
     16          6           0        3.434036    3.677065   -1.218636
     17          6           0        2.919135    5.044195   -1.447798
     18          6           0        2.227750    5.484405   -0.204296
     19          6           0        2.543856    4.396949    0.686150
     20          6           0        3.061195    5.769278   -2.750803
     21          6           0        1.420476    6.698292    0.131739
     22          8           0        1.106616    6.994689    1.335157
     23          6           0        1.077455    7.590458   -0.990499
     24          7           0        3.128424    2.277888    2.823363
     25          6           0        2.718919    3.526505    3.072853
     26          6           0        2.456238    3.733065    4.535135
     27          6           0        2.539161    2.287211    5.207730
     28          6           0        2.938222    1.467220    3.956076
     29          6           0        3.415134    4.688379    5.258948
     30          6           0        1.312217    1.823966    6.032611
     31          6           0        0.128020    1.612127    5.116151
     32          7           0        3.641209   -0.398860    1.737600
     33          6           0        3.625846   -0.735670    3.098849
     34          6           0        4.073569   -2.136710    3.202288
     35          6           0        4.335843   -2.514888    1.886978
     36          6           0        4.093988   -1.411429    1.019696
     37          6           0        4.247645   -2.868977    4.409730
     38          6           0        4.787728   -3.586981    1.015041
     39          8           0        5.046262   -4.781212    1.171457
     40          6           0        5.065555   -2.975197   -0.428690
     41          6           0        4.408506   -3.876417   -1.438342
     42          8           0        3.165876   -3.978125   -1.492131
     43          8           0        5.324039   -4.288806   -2.328441
     44          6           0        4.731706   -5.163322   -3.375588
     45          1           0        4.814639    3.541208   -2.814447
     46          1           0        2.115543    5.309382    2.526195
     47          1           0        3.244090   -0.335603    5.036122
     48          1           0        6.051306   -1.242667   -2.859171
     49          1           0        5.347501    1.267317   -3.932525
     50          1           0        7.496232    0.385344   -2.042826
     51          1           0        6.958638    2.081726   -1.843956
     52          1           0        7.591445    1.592176   -3.390073
     53          1           0        3.442144   -0.175038   -3.956327
     54          1           0        3.447308   -1.844438   -3.259512
     55          1           0        5.596006   -1.632666   -5.110254
     56          1           0        4.362560   -0.626261   -5.768747
     57          1           0        3.757118    5.261847   -3.417699
     58          1           0        3.540239    6.723738   -2.533475
     59          1           0        2.098111    5.942301   -3.231286
     60          1           0        1.994375    7.941801   -1.464170
     61          1           0        0.423502    8.356988   -0.576219
     62          1           0        0.542098    7.016205   -1.747187
     63          1           0        1.462128    4.146879    4.699236
     64          1           0        3.373638    2.207658    5.904863
     65          1           0        2.913841    5.522046    5.751298
     66          1           0        4.146576    5.044787    4.534203
     67          1           0        4.057940    4.215408    6.000916
     68          1           0        1.027706    2.590845    6.752261
     69          1           0        1.488341    0.900447    6.584285
     70          1           0       -0.283379    2.615702    5.014063
     71          1           0       -0.594899    0.938968    5.578164
     72          1           0        0.444881    1.287460    4.124850
     73          1           0        3.825410   -3.857682    4.230430
     74          1           0        3.756184   -2.374289    5.247197
     75          1           0        5.333938   -2.858304    4.497540
     76          1           0        6.147575   -2.942240   -0.552254
     77          1           0        5.293132   -6.097660   -3.368768
     78          1           0        4.727060   -4.582541   -4.298126
     79          1           0        3.722081   -5.528501   -3.184165
     80         12           0       -4.272942   -0.593202   -0.574022
     81          6           0       -1.347356   -2.627226   -0.146533
     82          6           0       -2.194203    1.929183   -1.549236
     83          6           0       -6.777335    1.354466   -0.528681
     84          6           0       -5.966434   -2.841151    1.481329
     85          7           0       -2.073477   -0.485044   -0.781231
     86          6           0       -1.069750   -1.339219   -0.649937
     87          6           0        0.297425   -0.808151   -1.158243
     88          6           0        0.009585    0.765862   -1.022247
     89          6           0       -1.511361    0.749052   -1.160508
     90          6           0        0.358574    1.325396    0.346868
     91          6           0        0.580012   -1.213847   -2.647387
     92          6           0        2.022239   -0.996478   -3.110530
     93          1           0        2.602596   -1.950984   -4.051043
     94          7           0       -4.537571    1.178586   -1.428019
     95          6           0       -3.581356    2.064790   -1.776720
     96          6           0       -4.291869    3.219239   -2.348186
     97          6           0       -5.753176    3.012023   -2.157487
     98          6           0       -5.744854    1.824221   -1.327337
     99          6           0       -3.588160    4.333220   -3.067401
    100          6           0       -6.958253    3.766354   -2.631787
    101          8           0       -8.124701    3.544127   -2.149241
    102          6           0       -6.718240    4.837120   -3.610220
    103          7           0       -6.047365   -0.603095    0.509325
    104          6           0       -6.990879    0.331549    0.299191
    105          6           0       -8.284157   -0.034495    0.987539
    106          6           0       -8.085578   -1.534447    1.505502
    107          6           0       -6.615301   -1.754223    1.086711
    108          6           0       -8.689949    0.858849    2.159573
    109          6           0       -9.145167   -2.579049    1.059669
    110          6           0       -9.045749   -2.811183   -0.430839
    111          7           0       -3.833784   -2.502480    0.336918
    112          6           0       -4.676039   -3.258579    1.181322
    113          6           0       -3.895997   -4.425175    1.642860
    114          6           0       -2.636696   -4.253310    1.048625
    115          6           0       -2.625908   -3.053039    0.287885
    116          6           0       -4.356479   -5.433023    2.536349
    117          6           0       -1.310732   -4.808810    0.900521
    118          8           0       -0.764008   -5.855737    1.245193
    119          6           0       -0.377531   -3.715277    0.222516
    120          6           0        0.385287   -4.380860   -0.889967
    121          8           0       -0.209883   -4.821143   -1.889224
    122          8           0        1.703270   -4.194578   -0.693460
    123          6           0        2.501400   -4.827256   -1.777217
    124          1           0       -1.620834    2.851157   -1.649711
    125          1           0       -7.703165    1.933181   -0.566174
    126          1           0       -6.453650   -3.639345    2.045409
    127          1           0        1.147964   -1.084788   -0.546824
    128          1           0        0.460664    1.321992   -1.839938
    129          1           0        0.632729    0.546300    1.042570
    130          1           0       -0.528664    1.842422    0.688238
    131          1           0        1.135949    2.089312    0.254934
    132          1           0        0.060975   -0.513201   -3.314048
    133          1           0        0.292634   -2.231741   -2.826072
    134          1           0        2.703814   -0.823484   -2.268829
    135          1           0        2.065831   -0.068476   -3.685811
    136          1           0       -2.503989    4.295616   -2.904425
    137          1           0       -3.901944    5.269033   -2.592363
    138          1           0       -3.839828    4.374208   -4.129313
    139          1           0       -6.031250    5.565933   -3.186750
    140          1           0       -7.707760    5.199752   -3.895209
    141          1           0       -6.219495    4.405948   -4.485416
    142          1           0       -9.113295   -0.010085    0.291093
    143          1           0       -8.111692   -1.593158    2.603548
    144          1           0       -9.691093    1.313242    2.035824
    145          1           0       -7.936604    1.625824    2.280947
    146          1           0       -8.684334    0.373247    3.133928
    147          1           0      -10.152812   -2.200584    1.248307
    148          1           0       -9.056924   -3.530266    1.573858
    149          1           0       -9.629998   -1.985838   -0.848642
    150          1           0       -9.475983   -3.774259   -0.698081
    151          1           0       -8.013121   -2.693634   -0.779437
    152          1           0       -4.029150   -6.381352    2.131341
    153          1           0       -5.438116   -5.400181    2.649333
    154          1           0       -3.838877   -5.133569    3.451601
    155          1           0        0.284508   -3.324424    0.996149
    156          1           0        3.209637   -5.508904   -1.296126
    157          1           0        2.926261   -3.990420   -2.362830
    158          1           0        1.985473   -5.500113   -2.452147
 ---------------------------------------------------------------------

 SCF Done:  E(RCAM-B3LYP) =  -4068.94904843     A.U. after   24 cycles

 Excitation energies and oscillator strengths:

 Excited State   1:      Singlet-A      0.7664 eV 1617.69 nm  f=0.0795  <S**2>=0.000
     312 -> 314        0.69617
 This state for optimization and/or second-order correction.
 Total Energy, E(TD-HF/TD-DFT) =  -4068.92088276
 Copying the excited state density for this state as the 1-particle RhoCI density.

 Excited State   2:      Singlet-A      1.0807 eV 1147.27 nm  f=0.0003  <S**2>=0.000
     312 -> 313        0.70279

 Excited State   3:      Singlet-A      1.6292 eV  761.03 nm  f=0.0074  <S**2>=0.000
     308 -> 315        0.11642
     309 -> 316       -0.10520
     310 -> 313        0.48786
     311 -> 314       -0.47102

 Excited State   4:      Singlet-A      1.7123 eV  724.10 nm  f=0.6031  <S**2>=0.000
     308 -> 315        0.12572
     309 -> 316        0.12566
     310 -> 313        0.47382
     311 -> 314        0.48758

 Excited State   5:      Singlet-A      2.1041 eV  589.25 nm  f=0.0531  <S**2>=0.000
     309 -> 314        0.21229
     312 -> 316       -0.26049
     312 -> 318        0.25375
     312 -> 319        0.49890
     312 -> 325        0.11811

 The electronic state is 1-A.
 Alpha  occ. eigenvalues --  -46.87759 -46.87460 -19.37998 -19.26360 -19.23865
 Alpha  occ. eigenvalues --  -19.20260 -19.18785 -19.18525 -19.18189 -19.16490
 Alpha  occ. eigenvalues --  -14.42587 -14.42339 -14.41456 -14.40813 -14.39446
 Alpha  occ. eigenvalues --  -14.38929 -14.38709 -14.38243 -10.41346 -10.39543
 Alpha  occ. eigenvalues --  -10.35463 -10.35188 -10.34406 -10.33498 -10.32481
 Alpha  occ. eigenvalues --  -10.31686 -10.31455 -10.31135 -10.30987 -10.30834
 Alpha  occ. eigenvalues --  -10.30482 -10.30444 -10.30243 -10.30065 -10.30035
 Alpha  occ. eigenvalues --  -10.29979 -10.29960 -10.29553 -10.29495 -10.29488
 Alpha  occ. eigenvalues --  -10.29269 -10.29112 -10.29011 -10.28784 -10.28527
 Alpha  occ. eigenvalues --  -10.28473 -10.28327 -10.28127 -10.28002 -10.27945
 Alpha  occ. eigenvalues --  -10.27889 -10.27769 -10.27598 -10.27598 -10.27569
 Alpha  occ. eigenvalues --  -10.27547 -10.27523 -10.27446 -10.27338 -10.27243
 Alpha  occ. eigenvalues --  -10.27217 -10.27173 -10.27151 -10.27113 -10.26681
 Alpha  occ. eigenvalues --  -10.26663 -10.26489 -10.26478 -10.26388 -10.26220
 Alpha  occ. eigenvalues --  -10.26037 -10.26013 -10.26003 -10.25940 -10.25783
 Alpha  occ. eigenvalues --  -10.25554 -10.25440 -10.25349 -10.25172 -10.25072
 Alpha  occ. eigenvalues --  -10.25007 -10.24824 -10.24778 -10.24589 -10.24315
 Alpha  occ. eigenvalues --  -10.24269  -3.16509  -3.16170  -1.91391  -1.91055
 Alpha  occ. eigenvalues --   -1.90980  -1.90817  -1.90641  -1.90488  -1.50662
 Alpha  occ. eigenvalues --   -1.18888  -1.13444  -1.09050  -1.08243  -1.07036
 Alpha  occ. eigenvalues --   -1.06953  -1.06929  -1.04604  -1.04452  -1.03757
 Alpha  occ. eigenvalues --   -1.03427  -1.03139  -1.02861  -1.02220  -1.02048
 Alpha  occ. eigenvalues --   -0.99087  -0.92178  -0.91233  -0.91183  -0.89637
 Alpha  occ. eigenvalues --   -0.89297  -0.89104  -0.88344  -0.88174  -0.87892
 Alpha  occ. eigenvalues --   -0.87867  -0.87595  -0.87422  -0.87388  -0.87180
 Alpha  occ. eigenvalues --   -0.86980  -0.86110  -0.84729  -0.83827  -0.83584
 Alpha  occ. eigenvalues --   -0.83001  -0.82909  -0.82736  -0.82517  -0.81830
 Alpha  occ. eigenvalues --   -0.81028  -0.80524  -0.79688  -0.78758  -0.78480
 Alpha  occ. eigenvalues --   -0.78377  -0.78089  -0.77144  -0.76895  -0.76654
 Alpha  occ. eigenvalues --   -0.75751  -0.75204  -0.74607  -0.73314  -0.72790
 Alpha  occ. eigenvalues --   -0.72440  -0.71986  -0.71354  -0.70524  -0.69756
 Alpha  occ. eigenvalues --   -0.69534  -0.68503  -0.68009  -0.67456  -0.67045
 Alpha  occ. eigenvalues --   -0.66132  -0.65639  -0.64924  -0.64493  -0.64399
 Alpha  occ. eigenvalues --   -0.64019  -0.63864  -0.63629  -0.63141  -0.61417
 Alpha  occ. eigenvalues --   -0.60432  -0.60351  -0.60163  -0.59789  -0.59319
 Alpha  occ. eigenvalues --   -0.58879  -0.58608  -0.58262  -0.58218  -0.57805
 Alpha  occ. eigenvalues --   -0.57375  -0.56945  -0.56485  -0.56278  -0.56114
 Alpha  occ. eigenvalues --   -0.56043  -0.55709  -0.55571  -0.55248  -0.54936
 Alpha  occ. eigenvalues --   -0.54832  -0.54725  -0.54425  -0.54274  -0.53514
 Alpha  occ. eigenvalues --   -0.53413  -0.53095  -0.53029  -0.52971  -0.52710
 Alpha  occ. eigenvalues --   -0.52666  -0.52547  -0.52442  -0.52245  -0.52014
 Alpha  occ. eigenvalues --   -0.51796  -0.51471  -0.51114  -0.50751  -0.50615
 Alpha  occ. eigenvalues --   -0.50495  -0.50424  -0.50284  -0.50098  -0.49962
 Alpha  occ. eigenvalues --   -0.49933  -0.49745  -0.49706  -0.49658  -0.49346
 Alpha  occ. eigenvalues --   -0.48886  -0.48845  -0.48654  -0.48504  -0.48384
 Alpha  occ. eigenvalues --   -0.48153  -0.48082  -0.47798  -0.47693  -0.47309
 Alpha  occ. eigenvalues --   -0.47071  -0.46965  -0.46861  -0.46745  -0.46502
 Alpha  occ. eigenvalues --   -0.46427  -0.46310  -0.46192  -0.46069  -0.45912
 Alpha  occ. eigenvalues --   -0.45649  -0.45322  -0.45015  -0.44925  -0.44750
 Alpha  occ. eigenvalues --   -0.44699  -0.44449  -0.44353  -0.44193  -0.44118
 Alpha  occ. eigenvalues --   -0.43973  -0.43908  -0.43733  -0.43514  -0.43487
 Alpha  occ. eigenvalues --   -0.43348  -0.42979  -0.42729  -0.42634  -0.42581
 Alpha  occ. eigenvalues --   -0.42430  -0.42402  -0.42199  -0.42060  -0.41833
 Alpha  occ. eigenvalues --   -0.41500  -0.41438  -0.41336  -0.41078  -0.40939
 Alpha  occ. eigenvalues --   -0.40824  -0.40759  -0.40625  -0.40600  -0.40479
 Alpha  occ. eigenvalues --   -0.40310  -0.39943  -0.39772  -0.39634  -0.39318
 Alpha  occ. eigenvalues --   -0.39213  -0.38463  -0.38209  -0.37811  -0.37495
 Alpha  occ. eigenvalues --   -0.37379  -0.37138  -0.36922  -0.36489  -0.36175
 Alpha  occ. eigenvalues --   -0.35915  -0.34380  -0.33916  -0.33837  -0.33257
 Alpha  occ. eigenvalues --   -0.33011  -0.31350  -0.31252  -0.31100  -0.31002
 Alpha  occ. eigenvalues --   -0.30092  -0.29423  -0.29388  -0.29271  -0.29063
 Alpha  occ. eigenvalues --   -0.28912  -0.28442  -0.24139  -0.23898  -0.21221
 Alpha  occ. eigenvalues --   -0.20992  -0.16806
 Alpha virt. eigenvalues --   -0.08897  -0.08495  -0.01788  -0.01594  -0.00150
 Alpha virt. eigenvalues --    0.00089   0.01070   0.02096   0.02838   0.03104
 Alpha virt. eigenvalues --    0.03969   0.04530   0.04729   0.05140   0.05938

 Mulliken charges:
               1
     1  Mg   0.647120
     2  C   -0.046027
     3  C   -0.092893
     4  C   -0.037411
     5  C   -0.067452
     6  N   -0.244313
     7  C   -0.097903
     8  C    0.059652
     9  C   -0.067995
    10  C    0.026083
    11  C    0.110318
    12  C   -0.016947
    13  C   -0.046726
    14  H    0.028978
    15  N   -0.439165
    16  C    0.165385
    17  C   -0.184162
    18  C   -0.008671
    19  C    0.137942
    20  C    0.111959
    21  C    0.007578
    22  O   -0.251502
    23  C    0.064981
    24  N   -0.327240
    25  C    0.039803
    26  C   -0.026329
    27  C   -0.025092
    28  C    0.081356
    29  C    0.076843
    30  C    0.035539
    31  C   -0.004810
    32  N   -0.303297
    33  C    0.080749
    34  C   -0.176365
    35  C    0.026795
    36  C    0.070170
    37  C    0.128267
    38  C    0.011002
    39  O   -0.178322
    40  C    0.066861
    41  C   -0.100764
    42  O    0.402132
    43  O   -0.304890
    44  C    0.143710
    45  H   -0.020723
    46  H   -0.020596
    47  H   -0.044761
    48  H   -0.014749
    49  H   -0.011163
    50  H    0.025675
    51  H    0.016687
    52  H    0.013475
    53  H    0.023553
    54  H    0.060369
    55  H    0.019855
    56  H    0.017283
    57  H    0.003443
    58  H    0.025457
    59  H    0.032193
    60  H    0.037883
    61  H    0.034070
    62  H    0.024266
    63  H    0.014764
    64  H    0.009419
    65  H    0.021919
    66  H    0.013132
    67  H    0.003935
    68  H    0.005915
    69  H    0.004785
    70  H    0.008567
    71  H    0.017328
    72  H    0.027757
    73  H    0.048956
    74  H    0.007009
    75  H    0.045321
    76  H    0.028765
    77  H    0.051784
    78  H    0.051616
    79  H    0.006161
    80  Mg   0.837864
    81  C   -0.017097
    82  C   -0.088794
    83  C   -0.044852
    84  C   -0.064760
    85  N   -0.255914
    86  C   -0.037913
    87  C   -0.043977
    88  C   -0.088357
    89  C    0.047793
    90  C    0.037340
    91  C    0.187930
    92  C   -0.191221
    93  H    0.033549
    94  N   -0.423682
    95  C    0.162670
    96  C   -0.173211
    97  C   -0.007684
    98  C    0.152336
    99  C    0.099154
   100  C    0.015849
   101  O   -0.252901
   102  C    0.061104
   103  N   -0.349885
   104  C    0.037564
   105  C   -0.019959
   106  C   -0.034856
   107  C    0.088987
   108  C    0.073394
   109  C    0.034677
   110  C   -0.007677
   111  N   -0.323999
   112  C    0.078466
   113  C   -0.163316
   114  C    0.003634
   115  C    0.094929
   116  C    0.131540
   117  C    0.042010
   118  O   -0.184279
   119  C   -0.009006
   120  C    0.225106
   121  O   -0.257580
   122  O   -0.313657
   123  C    0.154945
   124  H   -0.015093
   125  H   -0.015171
   126  H   -0.040226
   127  H    0.010128
   128  H    0.008399
   129  H    0.077468
   130  H    0.023538
   131  H    0.137982
   132  H   -0.008204
   133  H    0.013045
   134  H    0.038981
   135  H    0.025727
   136  H    0.007504
   137  H    0.027655
   138  H    0.038653
   139  H    0.038823
   140  H    0.036554
   141  H    0.033173
   142  H    0.014404
   143  H    0.012703
   144  H    0.025330
   145  H    0.012452
   146  H    0.005830
   147  H    0.006545
   148  H    0.003732
   149  H    0.011041
   150  H    0.017895
   151  H    0.029708
   152  H    0.046141
   153  H    0.008638
   154  H    0.047600
   155  H    0.043983
   156  H   -0.095477
   157  H   -0.044425
   158  H    0.104403
 Sum of Mulliken charges =  -0.00000

 Dipole moment (field-independent basis, Debye):
    X=              0.3795    Y=              4.1615    Z=             -4.6411  Tot=              6.2452
 Quadrupole moment (field-independent basis, Debye-Ang):
   XX=           -517.6067   YY=           -556.4012   ZZ=           -469.1335
   XY=             32.5107   XZ=            -36.1802   YZ=             -6.7006

 Normal termination of Gaussian 16 at Thu Sep  9 04:18:13 2021.
