 Gaussian 16, Revision A.03,
 Gaussian 16:  ES64L-G16RevA.03 25-Dec-2016

 -----------------------------------
 #p cam-b3lyp/Def2SVP td=(nstates=5)
 -----------------------------------

 --------------------------------
 TDDFT excited states in gaussian
 --------------------------------
 Symbolic Z-matrix:
 Charge =  0 Multiplicity = 1

                         Standard orientation:
 ---------------------------------------------------------------------
 Center     Atomic      Atomic             Coordinates (Angstroms)
 Number     Number       Type             X           Y           Z
 ---------------------------------------------------------------------
      1         12           0      -15.794453   -0.761196    0.066042
      2          6           0      -15.993065    2.797654    0.393691
      3          6           0      -16.666660   -0.359273   -3.208218
      4          6           0      -16.069318   -3.914082   -0.134917
      5          6           0      -16.058517   -0.947518    3.536087
      6          7           0      -16.244603    1.041045   -1.138092
      7          6           0      -16.226933    2.350308   -0.908550
      8          6           0      -16.405644    3.206109   -2.198140
      9          6           0      -17.159083    2.135596   -3.108266
     10          6           0      -16.632569    0.861672   -2.471223
     11          6           0      -18.676625    2.168831   -2.958391
     12          6           0      -15.034872    3.628459   -2.826101
     13          6           0      -15.114334    4.727666   -3.889484
     14          1           0      -14.037479    5.702958   -3.970338
     15          7           0      -15.814483   -1.947395   -1.513636
     16          6           0      -16.182464   -1.612072   -2.773571
     17          6           0      -16.023657   -2.838350   -3.584559
     18          6           0      -15.715238   -3.961192   -2.656011
     19          6           0      -15.882014   -3.315960   -1.378811
     20          6           0      -16.117007   -2.854004   -5.079480
     21          6           0      -15.341391   -5.391786   -2.883539
     22          8           0      -15.343710   -6.253836   -1.939379
     23          6           0      -15.054201   -5.782305   -4.275681
     24          7           0      -16.250436   -2.239092    1.468018
     25          6           0      -16.246292   -3.533738    1.132074
     26          6           0      -16.319792   -4.412863    2.345200
     27          6           0      -16.129577   -3.447539    3.602865
     28          6           0      -16.057454   -2.094466    2.853023
     29          6           0      -17.616316   -5.217566    2.511000
     30          6           0      -14.994397   -3.801877    4.595956
     31          6           0      -13.650863   -3.617540    3.926603
     32          7           0      -15.813942    0.651570    1.713694
     33          6           0      -15.955954    0.355010    3.076983
     34          6           0      -16.019213    1.641501    3.794623
     35          6           0      -15.925658    2.603454    2.790760
     36          6           0      -15.837621    1.958890    1.523843
     37          6           0      -16.205415    1.805981    5.195590
     38          6           0      -15.904378    4.026093    2.491592
     39          8           0      -15.854333    5.053955    3.168709
     40          6           0      -16.069850    4.209832    0.918478
     41          6           0      -15.021327    5.187483    0.462289
     42          8           0      -13.809249    4.894335    0.510204
     43          8           0      -15.613464    6.209607   -0.174247
     44          6           0      -14.626524    7.201479   -0.678523
     45          1           0      -17.160687   -0.374566   -4.181689
     46          1           0      -16.058504   -5.005936   -0.148127
     47          1           0      -16.055604   -0.927558    4.627438
     48          1           0      -17.028158    4.092234   -2.072913
     49          1           0      -16.846227    2.195407   -4.150507
     50          1           0      -18.982907    2.836376   -2.153099
     51          1           0      -18.969532    1.142866   -2.734572
     52          1           0      -19.154184    2.416683   -3.906697
     53          1           0      -14.650546    2.809534   -3.434144
     54          1           0      -14.330776    3.928593   -2.049251
     55          1           0      -16.082789    5.228415   -3.873508
     56          1           0      -15.069029    4.256758   -4.871519
     57          1           0      -16.516423   -1.917047   -5.465644
     58          1           0      -16.867514   -3.598688   -5.343854
     59          1           0      -15.165884   -3.108446   -5.547409
     60          1           0      -15.929908   -5.582336   -4.893499
     61          1           0      -14.718574   -6.817919   -4.234346
     62          1           0      -14.255153   -5.149092   -4.662349
     63          1           0      -15.521695   -5.154105    2.339914
     64          1           0      -17.023795   -3.405555    4.225187
     65          1           0      -17.457369   -6.293669    2.584768
     66          1           0      -18.272370   -4.975538    1.675352
     67          1           0      -18.231104   -4.923694    3.361348
     68          1           0      -15.063684   -4.847616    4.893572
     69          1           0      -15.011538   -3.197151    5.502743
     70          1           0      -13.514718   -4.556544    3.391283
     71          1           0      -12.869428   -3.477512    4.674241
     72          1           0      -13.682320   -2.820444    3.183545
     73          1           0      -15.506272    2.581910    5.507202
     74          1           0      -16.026881    0.873700    5.730922
     75          1           0      -17.251265    2.111171    5.225834
     76          1           0      -17.079237    4.584315    0.751079
     77          1           0      -14.905900    8.170786   -0.265452
     78          1           0      -14.611366    7.099312   -1.763759
     79          1           0      -13.608093    7.102777   -0.301172
     80         12           0       15.963338   -0.795594    0.083259
     81          6           0       15.761289    2.786063    0.183237
     82          6           0       15.088990   -0.603937   -3.208152
     83          6           0       15.692542   -3.956923    0.073639
     84          6           0       15.693423   -0.769167    3.557757
     85          7           0       15.510539    0.925934   -1.229595
     86          6           0       15.525852    2.243737   -1.097344
     87          6           0       15.354237    3.025655   -2.427282
     88          6           0       14.593832    1.893661   -3.275363
     89          6           0       15.119462    0.653904   -2.554695
     90          6           0       13.083197    1.934687   -3.115226
     91          6           0       16.730030    3.404963   -3.079456
     92          6           0       16.643956    4.431028   -4.211506
     93          1           0       17.726782    5.400018   -4.356439
     94          7           0       15.946871   -2.078546   -1.430781
     95          6           0       15.585357   -1.827161   -2.706477
     96          6           0       15.729076   -3.103203   -3.424273
     97          6           0       16.046869   -4.166152   -2.432370
     98          6           0       15.883676   -3.429459   -1.195136
     99          6           0       15.644364   -3.209920   -4.919216
    100          6           0       16.421543   -5.610420   -2.573525
    101          8           0       16.420745   -6.407463   -1.569765
    102          6           0       16.698838   -6.085536   -3.936920
    103          7           0       15.515280   -2.176874    1.571093
    104          6           0       15.514203   -3.496243    1.311906
    105          6           0       15.437916   -4.302482    2.586485
    106          6           0       15.632645   -3.248779    3.773662
    107          6           0       15.701681   -1.946029    2.946953
    108          6           0       14.140552   -5.080668    2.804758
    109          6           0       16.768555   -3.538626    4.792671
    110          6           0       18.114265   -3.408694    4.116227
    111          7           0       15.948456    0.712106    1.630739
    112          6           0       15.799483    0.507117    3.019938
    113          6           0       15.736348    1.840652    3.652487
    114          6           0       15.830586    2.736105    2.576497
    115          6           0       15.924103    2.011786    1.357433
    116          6           0       15.560443    2.094810    5.041949
    117          6           0       15.861517    4.129410    2.193809
    118          8           0       15.904253    5.197057    2.803758
    119          6           0       15.690730    4.224121    0.616380
    120          6           0       16.739236    5.166223    0.091395
    121          8           0       17.946055    4.876692    0.171186
    122          8           0       16.140001    6.146199   -0.609276
    123          6           0       17.139739    7.099851   -1.159646
    124          1           0       14.601134   -0.671540   -4.180935
    125          1           0       15.703195   -5.047472    0.137430
    126          1           0       15.708261   -0.676043    4.645776
    127          1           0       14.737774    3.913703   -2.355817
    128          1           0       14.914712    1.895791   -4.313826
    129          1           0       12.777017    2.645826   -2.362436
    130          1           0       12.790245    0.932617   -2.830488
    131          1           0       12.606751    2.124953   -4.081210
    132          1           0       17.111957    2.540659   -3.637901
    133          1           0       17.423516    3.745312   -2.335230
    134          1           0       15.670556    4.935776   -4.237185
    135          1           0       16.696019    3.900520   -5.165382
    136          1           0       15.237679   -2.294015   -5.365464
    137          1           0       14.895141   -3.976989   -5.143090
    138          1           0       16.593542   -3.499230   -5.375304
    139          1           0       15.824631   -5.919600   -4.561968
    140          1           0       17.035355   -7.117935   -3.823834
    141          1           0       17.508055   -5.480267   -4.360528
    142          1           0       16.236443   -5.032912    2.630436
    143          1           0       14.734036   -3.173992    4.403558
    144          1           0       14.301199   -6.166136    2.946260
    145          1           0       13.487896   -4.899665    1.961067
    146          1           0       13.534096   -4.741619    3.642886
    147          1           0       16.700442   -4.568006    5.153068
    148          1           0       16.744282   -2.890630    5.662442
    149          1           0       18.244963   -4.383762    3.637437
    150          1           0       18.895462   -3.221497    4.850204
    151          1           0       18.084497   -2.653109    3.322599
    152          1           0       16.252367    2.884114    5.304123
    153          1           0       15.734311    1.199396    5.635048
    154          1           0       14.509866    2.397192    5.053436
    155          1           0       14.680520    4.583833    0.417264
    156          1           0       16.856852    8.097124   -0.808807
    157          1           0       17.141916    6.932387   -2.253132
    158          1           0       18.156792    7.027113   -0.792553
 ---------------------------------------------------------------------

 SCF Done:  E(RCAM-B3LYP) =  -4069.81176293     A.U. after   19 cycles

 Excitation energies and oscillator strengths:

 Excited State   1:      Singlet-A      1.6753 eV  740.07 nm  f=0.2119  <S**2>=0.000
     310 -> 316        0.16855
     311 -> 314       -0.16330
     312 -> 313        0.66633
     310 <- 316        0.10161
 This state for optimization and/or second-order correction.
 Total Energy, E(TD-HF/TD-DFT) =  -4069.75019635
 Copying the excited state density for this state as the 1-particle RhoCI density.

 Excited State   2:      Singlet-A      1.6801 eV  737.95 nm  f=0.5654  <S**2>=0.000
     309 -> 315        0.17056
     311 -> 314        0.66597
     312 -> 313        0.16325
     309 <- 315        0.10212

 Excited State   3:      Singlet-A      2.1861 eV  567.15 nm  f=0.0951  <S**2>=0.000
     310 -> 313        0.64210
     312 -> 316       -0.27294

 Excited State   4:      Singlet-A      2.1925 eV  565.49 nm  f=0.1050  <S**2>=0.000
     309 -> 314        0.64032
     311 -> 315       -0.27813

 Excited State   5:      Singlet-A      3.0658 eV  404.41 nm  f=0.0000  <S**2>=0.000
     311 -> 313        0.70711

 The electronic state is 1-A.
 Alpha  occ. eigenvalues --  -46.87796 -46.87660 -19.26348 -19.26282 -19.19160
 Alpha  occ. eigenvalues --  -19.19018 -19.18816 -19.18715 -19.18168 -19.18050
 Alpha  occ. eigenvalues --  -14.42497 -14.42449 -14.41449 -14.41359 -14.39402
 Alpha  occ. eigenvalues --  -14.39352 -14.38599 -14.38586 -10.39089 -10.39078
 Alpha  occ. eigenvalues --  -10.35449 -10.35393 -10.34388 -10.34227 -10.31755
 Alpha  occ. eigenvalues --  -10.31677 -10.31404 -10.31308 -10.31023 -10.30909
 Alpha  occ. eigenvalues --  -10.30569 -10.30507 -10.30397 -10.30360 -10.30206
 Alpha  occ. eigenvalues --  -10.30141 -10.29920 -10.29894 -10.29630 -10.29437
 Alpha  occ. eigenvalues --  -10.29401 -10.29254 -10.28749 -10.28719 -10.28655
 Alpha  occ. eigenvalues --  -10.28539 -10.28405 -10.28364 -10.28140 -10.28116
 Alpha  occ. eigenvalues --  -10.28000 -10.27792 -10.27727 -10.27669 -10.27584
 Alpha  occ. eigenvalues --  -10.27517 -10.27500 -10.27483 -10.27483 -10.27469
 Alpha  occ. eigenvalues --  -10.27465 -10.27448 -10.27403 -10.27375 -10.27157
 Alpha  occ. eigenvalues --  -10.27049 -10.26705 -10.26693 -10.26417 -10.26412
 Alpha  occ. eigenvalues --  -10.26234 -10.26182 -10.26137 -10.26024 -10.26019
 Alpha  occ. eigenvalues --  -10.25934 -10.25848 -10.25841 -10.25434 -10.25396
 Alpha  occ. eigenvalues --  -10.24872 -10.24832 -10.24787 -10.24731 -10.24690
 Alpha  occ. eigenvalues --  -10.24686  -3.16539  -3.16410  -1.91421  -1.91292
 Alpha  occ. eigenvalues --   -1.91007  -1.90881  -1.90849  -1.90718  -1.16642
 Alpha  occ. eigenvalues --   -1.16631  -1.08657  -1.08625  -1.07217  -1.06968
 Alpha  occ. eigenvalues --   -1.06944  -1.06641  -1.04580  -1.04495  -1.03760
 Alpha  occ. eigenvalues --   -1.03663  -1.03233  -1.03039  -1.02410  -1.02111
 Alpha  occ. eigenvalues --   -0.91986  -0.91971  -0.89519  -0.89494  -0.89188
 Alpha  occ. eigenvalues --   -0.89151  -0.88286  -0.88220  -0.87869  -0.87793
 Alpha  occ. eigenvalues --   -0.87684  -0.87672  -0.87274  -0.87121  -0.85000
 Alpha  occ. eigenvalues --   -0.84982  -0.83935  -0.83876  -0.82968  -0.82932
 Alpha  occ. eigenvalues --   -0.82653  -0.82648  -0.81595  -0.81584  -0.80596
 Alpha  occ. eigenvalues --   -0.80442  -0.78797  -0.78636  -0.77218  -0.77144
 Alpha  occ. eigenvalues --   -0.76934  -0.76898  -0.75922  -0.75838  -0.74897
 Alpha  occ. eigenvalues --   -0.74802  -0.72773  -0.72699  -0.71671  -0.71580
 Alpha  occ. eigenvalues --   -0.69906  -0.69757  -0.68873  -0.68827  -0.67641
 Alpha  occ. eigenvalues --   -0.67601  -0.67220  -0.67200  -0.65286  -0.65271
 Alpha  occ. eigenvalues --   -0.64853  -0.64770  -0.64653  -0.64620  -0.64268
 Alpha  occ. eigenvalues --   -0.64203  -0.62296  -0.62278  -0.60442  -0.60340
 Alpha  occ. eigenvalues --   -0.59804  -0.59796  -0.58993  -0.58987  -0.58503
 Alpha  occ. eigenvalues --   -0.58425  -0.57583  -0.57553  -0.57308  -0.57236
 Alpha  occ. eigenvalues --   -0.56309  -0.56204  -0.55977  -0.55886  -0.55520
 Alpha  occ. eigenvalues --   -0.55452  -0.55338  -0.55247  -0.54522  -0.54487
 Alpha  occ. eigenvalues --   -0.53912  -0.53895  -0.53298  -0.53228  -0.53222
 Alpha  occ. eigenvalues --   -0.53142  -0.52914  -0.52902  -0.52756  -0.52669
 Alpha  occ. eigenvalues --   -0.52437  -0.52401  -0.51913  -0.51883  -0.51659
 Alpha  occ. eigenvalues --   -0.51616  -0.51201  -0.51195  -0.50573  -0.50476
 Alpha  occ. eigenvalues --   -0.50031  -0.49980  -0.49919  -0.49867  -0.49514
 Alpha  occ. eigenvalues --   -0.49488  -0.49214  -0.49202  -0.49104  -0.49095
 Alpha  occ. eigenvalues --   -0.48592  -0.48558  -0.48461  -0.48445  -0.48375
 Alpha  occ. eigenvalues --   -0.48339  -0.47694  -0.47595  -0.47296  -0.47118
 Alpha  occ. eigenvalues --   -0.46796  -0.46709  -0.46555  -0.46554  -0.46358
 Alpha  occ. eigenvalues --   -0.46270  -0.46161  -0.46085  -0.45821  -0.45820
 Alpha  occ. eigenvalues --   -0.45208  -0.45200  -0.44577  -0.44514  -0.44507
 Alpha  occ. eigenvalues --   -0.44476  -0.44144  -0.44127  -0.44088  -0.44078
 Alpha  occ. eigenvalues --   -0.44019  -0.43939  -0.43552  -0.43493  -0.43385
 Alpha  occ. eigenvalues --   -0.43385  -0.43026  -0.42930  -0.42900  -0.42698
 Alpha  occ. eigenvalues --   -0.42653  -0.42553  -0.42008  -0.41964  -0.41703
 Alpha  occ. eigenvalues --   -0.41669  -0.41533  -0.41459  -0.41140  -0.40989
 Alpha  occ. eigenvalues --   -0.40869  -0.40824  -0.40723  -0.40699  -0.40570
 Alpha  occ. eigenvalues --   -0.40493  -0.40234  -0.40227  -0.39440  -0.39425
 Alpha  occ. eigenvalues --   -0.38468  -0.38350  -0.37748  -0.37654  -0.37319
 Alpha  occ. eigenvalues --   -0.37266  -0.37263  -0.37199  -0.36770  -0.36712
 Alpha  occ. eigenvalues --   -0.36217  -0.36191  -0.34285  -0.34253  -0.33861
 Alpha  occ. eigenvalues --   -0.33769  -0.33186  -0.33175  -0.31345  -0.31274
 Alpha  occ. eigenvalues --   -0.31035  -0.30973  -0.30027  -0.29954  -0.29449
 Alpha  occ. eigenvalues --   -0.29327  -0.29321  -0.29211  -0.24080  -0.24036
 Alpha  occ. eigenvalues --   -0.21127  -0.21117
 Alpha virt. eigenvalues --   -0.08792  -0.08774  -0.01749  -0.01684  -0.00058
 Alpha virt. eigenvalues --   -0.00029   0.02201   0.02208   0.03124   0.03227
 Alpha virt. eigenvalues --    0.04719   0.04730   0.05100   0.05166   0.06178

 Mulliken charges:
               1
     1  Mg   0.838790
     2  C   -0.002959
     3  C   -0.094127
     4  C   -0.045883
     5  C   -0.063954
     6  N   -0.256793
     7  C   -0.052466
     8  C   -0.014012
     9  C   -0.087004
    10  C    0.046325
    11  C    0.104812
    12  C    0.053471
    13  C   -0.071793
    14  H    0.036123
    15  N   -0.433147
    16  C    0.168414
    17  C   -0.177171
    18  C   -0.004015
    19  C    0.148720
    20  C    0.110182
    21  C    0.012276
    22  O   -0.249629
    23  C    0.062482
    24  N   -0.341165
    25  C    0.041252
    26  C   -0.028185
    27  C   -0.023963
    28  C    0.074844
    29  C    0.076168
    30  C    0.035125
    31  C   -0.004504
    32  N   -0.310474
    33  C    0.080417
    34  C   -0.169689
    35  C    0.008361
    36  C    0.082976
    37  C    0.127308
    38  C    0.046136
    39  O   -0.188408
    40  C   -0.005338
    41  C    0.212881
    42  O   -0.257106
    43  O   -0.304797
    44  C    0.157692
    45  H   -0.017615
    46  H   -0.016841
    47  H   -0.041474
    48  H    0.000947
    49  H   -0.004048
    50  H    0.025482
    51  H    0.016447
    52  H    0.016651
    53  H    0.011188
    54  H    0.044129
    55  H    0.017878
    56  H    0.017929
    57  H    0.005866
    58  H    0.026816
    59  H    0.039520
    60  H    0.037343
    61  H    0.035635
    62  H    0.031481
    63  H    0.016550
    64  H    0.009468
    65  H    0.023210
    66  H    0.012543
    67  H    0.004761
    68  H    0.006368
    69  H    0.004746
    70  H    0.008771
    71  H    0.018161
    72  H    0.028973
    73  H    0.047596
    74  H    0.009122
    75  H    0.046018
    76  H    0.035156
    77  H    0.042965
    78  H    0.046384
    79  H    0.053698
    80  Mg   0.837876
    81  C   -0.016837
    82  C   -0.087788
    83  C   -0.045509
    84  C   -0.064873
    85  N   -0.254554
    86  C   -0.049825
    87  C   -0.015105
    88  C   -0.090502
    89  C    0.045757
    90  C    0.114367
    91  C    0.062525
    92  C   -0.077893
    93  H    0.034898
    94  N   -0.423491
    95  C    0.162929
    96  C   -0.174635
    97  C   -0.007809
    98  C    0.152113
    99  C    0.099372
   100  C    0.015568
   101  O   -0.253171
   102  C    0.061194
   103  N   -0.350093
   104  C    0.037542
   105  C   -0.019842
   106  C   -0.034860
   107  C    0.088969
   108  C    0.073638
   109  C    0.034726
   110  C   -0.007673
   111  N   -0.324115
   112  C    0.078443
   113  C   -0.163114
   114  C    0.002259
   115  C    0.096185
   116  C    0.131487
   117  C    0.042411
   118  O   -0.187825
   119  C    0.000933
   120  C    0.211242
   121  O   -0.251023
   122  O   -0.305618
   123  C    0.152030
   124  H   -0.019665
   125  H   -0.015565
   126  H   -0.040423
   127  H   -0.000622
   128  H   -0.004338
   129  H    0.022508
   130  H    0.014442
   131  H    0.016281
   132  H    0.013906
   133  H    0.037678
   134  H    0.020803
   135  H    0.019577
   136  H    0.008754
   137  H    0.026138
   138  H    0.039780
   139  H    0.038247
   140  H    0.036393
   141  H    0.033891
   142  H    0.014395
   143  H    0.012470
   144  H    0.025143
   145  H    0.011656
   146  H    0.005722
   147  H    0.006278
   148  H    0.003674
   149  H    0.010927
   150  H    0.017936
   151  H    0.030089
   152  H    0.046017
   153  H    0.008522
   154  H    0.047015
   155  H    0.035071
   156  H    0.043939
   157  H    0.049482
   158  H    0.053575
 Sum of Mulliken charges =  -0.00000

 Dipole moment (field-independent basis, Debye):
    X=             -3.9973    Y=             -2.4381    Z=             -7.7659  Tot=              9.0682
 Quadrupole moment (field-independent basis, Debye-Ang):
   XX=           -516.2180   YY=           -551.6753   ZZ=           -447.2251
   XY=             -7.5310   XZ=              2.4083   YZ=            -48.5219

 Normal termination of Gaussian 16 at Sun Sep 12 19:58:23 2021.
