 Gaussian 16, Revision A.03,
 Gaussian 16:  ES64L-G16RevA.03 25-Dec-2016

 -----------------------------------
 #p cam-b3lyp/Def2SVP td=(nstates=5)
 -----------------------------------

 --------------------------------
 TDDFT excited states in gaussian
 --------------------------------
 Symbolic Z-matrix:
 Charge =  0 Multiplicity = 1

                         Standard orientation:
 ---------------------------------------------------------------------
 Center     Atomic      Atomic             Coordinates (Angstroms)
 Number     Number       Type             X           Y           Z
 ---------------------------------------------------------------------
      1         12           0       15.661709   -0.900303    0.117223
      2          6           0       15.904631    2.601128   -0.585051
      3          6           0       16.514786   -0.162005    3.337509
      4          6           0       15.897922   -4.016753    0.654402
      5          6           0       15.948756   -1.457497   -3.311012
      6          7           0       16.124312    1.014743    1.126799
      7          6           0       16.123745    2.292282    0.759289
      8          6           0       16.303159    3.278373    1.952104
      9          6           0       17.037296    2.302542    2.977187
     10          6           0       16.500444    0.973933    2.474682
     11          6           0       18.556174    2.303031    2.837496
     12          6           0       14.932936    3.780096    2.519989
     13          6           0       15.017624    4.985227    3.461181
     14          1           0       13.951781    5.975317    3.428809
     15          7           0       15.656279   -1.911918    1.814119
     16          6           0       16.019026   -1.448548    3.034360
     17          6           0       15.839888   -2.579808    3.969690
     18          6           0       15.525008   -3.791590    3.163136
     19          6           0       15.708651   -3.287717    1.826063
     20          6           0       15.922186   -2.437405    5.458548
     21          6           0       15.132681   -5.185694    3.538219
     22          8           0       15.131696   -6.143242    2.691062
     23          6           0       14.830803   -5.422772    4.961492
     24          7           0       16.110410   -2.523824   -1.115854
     25          6           0       16.088565   -3.775275   -0.644286
     26          6           0       16.160507   -4.779186   -1.756458
     27          6           0       15.990824   -3.951069   -3.111147
     28          6           0       15.929211   -2.525214   -2.509971
     29          6           0       17.448626   -5.611105   -1.824814
     30          6           0       14.858790   -4.396565   -4.070548
     31          6           0       13.512696   -4.127387   -3.435984
     32          7           0       15.709817    0.328919   -1.671000
     33          6           0       15.858222   -0.112485   -2.993805
     34          6           0       15.941852    1.089616   -3.843525
     35          6           0       15.852353    2.153843   -2.948396
     36          6           0       15.747525    1.648679   -1.620951
     37          6           0       16.140152    1.102118   -5.252410
     38          6           0       15.845672    3.600378   -2.802287
     39          8           0       15.812666    4.550884   -3.585194
     40          6           0       16.001867    3.948558   -1.256259
     41          6           0       14.961656    4.980602   -0.915445
     42          8           0       13.746586    4.697309   -0.942209
     43          8           0       15.561161    6.058082   -0.386131
     44          6           0       14.582345    7.108705    0.001507
     45          1           0       17.001514   -0.079089    4.311245
     46          1           0       15.874143   -5.100826    0.783470
     47          1           0       15.954006   -1.553688   -4.398290
     48          1           0       16.936969    4.139286    1.738705
     49          1           0       16.717605    2.476281    4.004482
     50          1           0       18.876144    2.877752    1.968453
     51          1           0       18.838585    1.255937    2.726457
     52          1           0       19.029721    2.645089    3.758109
     53          1           0       14.534577    3.034740    3.208332
     54          1           0       14.238089    4.003599    1.709705
     55          1           0       15.992004    5.470803    3.400293
     56          1           0       14.959639    4.621956    4.487277
     57          1           0       16.329804   -1.469122    5.746332
     58          1           0       16.661923   -3.157920    5.806909
     59          1           0       14.964757   -2.630209    5.942786
     60          1           0       15.704295   -5.167830    5.561962
     61          1           0       14.483301   -6.453171    5.027595
     62          1           0       14.036487   -4.743316    5.271897
     63          1           0       15.353711   -5.506879   -1.679200
     64          1           0       16.889972   -3.985302   -3.726806
     65          1           0       17.277544   -6.687145   -1.785158
     66          1           0       18.101399   -5.288774   -1.014085
     67          1           0       18.072995   -5.416085   -2.696334
     68          1           0       14.917905   -5.468721   -4.254757
     69          1           0       14.889644   -3.891932   -5.036283
     70          1           0       13.361607   -5.002585   -2.805087
     71          1           0       12.738417   -4.059120   -4.200866
     72          1           0       13.548149   -3.256178   -2.781595
     73          1           0       15.452485    1.848113   -5.650625
     74          1           0       15.954534    0.120201   -5.687138
     75          1           0       17.189718    1.390891   -5.306048
     76          1           0       17.014356    4.327647   -1.121053
     77          1           0       14.876120    8.025466   -0.509845
     78          1           0       14.558101    7.122708    1.091287
     79          1           0       13.565588    6.981587   -0.371838
     80         12           0      -16.093992   -0.585509   -0.169870
     81          6           0      -14.427633    2.587851   -0.348980
     82          6           0      -16.782367    0.128446    3.093715
     83          6           0      -17.171687   -3.552768    0.148535
     84          6           0      -14.322783   -1.520081   -3.022082
     85          7           0      -15.614653    1.164648    1.094808
     86          6           0      -15.030575    2.337583    0.901333
     87          6           0      -15.166280    3.327437    2.089325
     88          6           0      -15.398762    2.260005    3.266366
     89          6           0      -16.003044    1.121076    2.447614
     90          6           0      -14.106202    1.764173    3.893086
     91          6           0      -16.398700    4.285630    1.931178
     92          6           0      -16.415029    5.476338    2.892271
     93          1           0      -16.947737    6.749259    2.414412
     94          7           0      -17.277450   -1.380832    1.210513
     95          6           0      -17.453968   -0.950088    2.477239
     96          6           0      -18.408234   -1.886326    3.091246
     97          6           0      -18.654055   -2.999905    2.135084
     98          6           0      -17.673237   -2.691746    1.113754
     99          6           0      -19.049044   -1.636677    4.425582
    100          6           0      -19.604646   -4.158555    2.145216
    101          8           0      -19.482687   -5.136757    1.326014
    102          6           0      -20.625880   -4.159462    3.202843
    103          7           0      -15.638383   -2.363470   -1.146411
    104          6           0      -16.290909   -3.501364   -0.850912
    105          6           0      -15.992063   -4.580429   -1.864179
    106          6           0      -15.189617   -3.853972   -3.041431
    107          6           0      -15.080999   -2.436949   -2.436739
    108          6           0      -15.177826   -5.767853   -1.350912
    109          6           0      -15.760456   -4.002674   -4.478335
    110          6           0      -17.081386   -3.275502   -4.586728
    111          7           0      -14.779010    0.396039   -1.575379
    112          6           0      -14.126013   -0.187491   -2.683166
    113          6           0      -13.250465    0.848814   -3.267910
    114          6           0      -13.438918    1.965295   -2.439392
    115          6           0      -14.351051    1.641114   -1.399005
    116          6           0      -12.388613    0.674902   -4.387313
    117          6           0      -13.065519    3.341155   -2.202135
    118          8           0      -12.392901    4.175342   -2.806658
    119          6           0      -13.592217    3.766959   -0.764193
    120          6           0      -14.277547    5.099392   -0.896350
    121          8           0      -15.322490    5.209447   -1.561622
    122          8           0      -13.711628    5.972512   -0.043257
    123          6           0      -14.364658    7.305911   -0.129468
    124          1           0      -16.853538    0.151318    4.181509
    125          1           0      -17.596594   -4.559214    0.147868
    126          1           0      -13.812768   -1.702975   -3.970303
    127          1           0      -14.280713    3.917682    2.292223
    128          1           0      -16.115589    2.626873    3.996375
    129          1           0      -13.237232    2.123746    3.362304
    130          1           0      -14.154665    0.683904    3.851661
    131          1           0      -14.078268    2.024091    4.955156
    132          1           0      -17.304114    3.762485    2.264773
    133          1           0      -16.481915    4.635727    0.920668
    134          1           0      -15.444365    5.625076    3.380794
    135          1           0      -17.097116    5.248830    3.715076
    136          1           0      -18.549654   -0.822853    4.965676
    137          1           0      -18.864002   -2.524266    5.040239
    138          1           0      -20.126767   -1.476254    4.351858
    139          1           0      -20.139066   -4.136983    4.174931
    140          1           0      -21.264999   -5.018892    2.991204
    141          1           0      -21.212694   -3.237535    3.123338
    142          1           0      -16.907184   -4.996511   -2.267319
    143          1           0      -14.162429   -4.236950   -3.131107
    144          1           0      -15.685711   -6.740179   -1.494831
    145          1           0      -14.958781   -5.604532   -0.304070
    146          1           0      -14.183209   -5.866796   -1.782366
    147          1           0      -15.965698   -5.053402   -4.697444
    148          1           0      -15.090007   -3.637932   -5.249339
    149          1           0      -17.796223   -4.001569   -4.188071
    150          1           0      -17.301568   -3.033791   -5.624577
    151          1           0      -17.102428   -2.397710   -3.930452
    152          1           0      -12.501854    1.554450   -5.007048
    153          1           0      -12.628692   -0.233045   -4.936659
    154          1           0      -11.422436    0.604685   -3.880535
    155          1           0      -12.728499    3.814940   -0.099921
    156          1           0      -13.576303    8.034595   -0.342079
    157          1           0      -14.920984    7.427969    0.818867
    158          1           0      -15.042077    7.479625   -0.957333
 ---------------------------------------------------------------------

 SCF Done:  E(RCAM-B3LYP) =  -4069.81174364     A.U. after   19 cycles

 Excitation energies and oscillator strengths:

 Excited State   1:      Singlet-A      1.6754 eV  740.04 nm  f=0.2592  <S**2>=0.000
     310 -> 316       -0.16939
     311 -> 313        0.66958
     312 -> 314       -0.14942
     310 <- 316       -0.10211
 This state for optimization and/or second-order correction.
 Total Energy, E(TD-HF/TD-DFT) =  -4069.75017454
 Copying the excited state density for this state as the 1-particle RhoCI density.

 Excited State   2:      Singlet-A      1.6801 eV  737.97 nm  f=0.5196  <S**2>=0.000
     309 -> 315        0.17137
     311 -> 313        0.14938
     312 -> 314        0.66922
     309 <- 315        0.10260

 Excited State   3:      Singlet-A      2.1861 eV  567.15 nm  f=0.0947  <S**2>=0.000
     310 -> 313        0.64204
     311 -> 316        0.27295

 Excited State   4:      Singlet-A      2.1925 eV  565.50 nm  f=0.1054  <S**2>=0.000
     309 -> 314        0.64028
     312 -> 315       -0.27810

 Excited State   5:      Singlet-A      3.0575 eV  405.51 nm  f=0.0000  <S**2>=0.000
     312 -> 313        0.70710

 The electronic state is 1-A.
 Alpha  occ. eigenvalues --  -46.87768 -46.87659 -19.26345 -19.26251 -19.19156
 Alpha  occ. eigenvalues --  -19.18987 -19.18789 -19.18714 -19.18139 -19.18047
 Alpha  occ. eigenvalues --  -14.42497 -14.42422 -14.41422 -14.41358 -14.39375
 Alpha  occ. eigenvalues --  -14.39351 -14.38598 -14.38558 -10.39086 -10.39047
 Alpha  occ. eigenvalues --  -10.35423 -10.35392 -10.34359 -10.34224 -10.31750
 Alpha  occ. eigenvalues --  -10.31645 -10.31376 -10.31307 -10.31023 -10.30881
 Alpha  occ. eigenvalues --  -10.30541 -10.30479 -10.30396 -10.30359 -10.30180
 Alpha  occ. eigenvalues --  -10.30140 -10.29893 -10.29892 -10.29602 -10.29436
 Alpha  occ. eigenvalues --  -10.29399 -10.29227 -10.28720 -10.28718 -10.28654
 Alpha  occ. eigenvalues --  -10.28509 -10.28404 -10.28336 -10.28140 -10.28089
 Alpha  occ. eigenvalues --  -10.27999 -10.27765 -10.27699 -10.27668 -10.27557
 Alpha  occ. eigenvalues --  -10.27517 -10.27482 -10.27473 -10.27468 -10.27464
 Alpha  occ. eigenvalues --  -10.27456 -10.27422 -10.27375 -10.27375 -10.27128
 Alpha  occ. eigenvalues --  -10.27047 -10.26692 -10.26675 -10.26417 -10.26386
 Alpha  occ. eigenvalues --  -10.26208 -10.26155 -10.26136 -10.26026 -10.25991
 Alpha  occ. eigenvalues --  -10.25933 -10.25844 -10.25813 -10.25410 -10.25397
 Alpha  occ. eigenvalues --  -10.24871 -10.24804 -10.24760 -10.24729 -10.24689
 Alpha  occ. eigenvalues --  -10.24657  -3.16511  -3.16409  -1.91393  -1.91292
 Alpha  occ. eigenvalues --   -1.90979  -1.90880  -1.90821  -1.90717  -1.16638
 Alpha  occ. eigenvalues --   -1.16600  -1.08654  -1.08597  -1.07190  -1.06967
 Alpha  occ. eigenvalues --   -1.06941  -1.06609  -1.04553  -1.04494  -1.03732
 Alpha  occ. eigenvalues --   -1.03662  -1.03206  -1.03038  -1.02383  -1.02110
 Alpha  occ. eigenvalues --   -0.91985  -0.91943  -0.89493  -0.89491  -0.89159
 Alpha  occ. eigenvalues --   -0.89151  -0.88259  -0.88219  -0.87841  -0.87791
 Alpha  occ. eigenvalues --   -0.87683  -0.87645  -0.87247  -0.87120  -0.84999
 Alpha  occ. eigenvalues --   -0.84954  -0.83908  -0.83875  -0.82941  -0.82932
 Alpha  occ. eigenvalues --   -0.82652  -0.82620  -0.81593  -0.81555  -0.80567
 Alpha  occ. eigenvalues --   -0.80441  -0.78770  -0.78634  -0.77190  -0.77143
 Alpha  occ. eigenvalues --   -0.76905  -0.76897  -0.75894  -0.75837  -0.74870
 Alpha  occ. eigenvalues --   -0.74802  -0.72746  -0.72697  -0.71644  -0.71580
 Alpha  occ. eigenvalues --   -0.69879  -0.69756  -0.68845  -0.68826  -0.67613
 Alpha  occ. eigenvalues --   -0.67600  -0.67199  -0.67191  -0.65270  -0.65258
 Alpha  occ. eigenvalues --   -0.64825  -0.64769  -0.64652  -0.64592  -0.64241
 Alpha  occ. eigenvalues --   -0.64202  -0.62275  -0.62267  -0.60415  -0.60339
 Alpha  occ. eigenvalues --   -0.59796  -0.59776  -0.58991  -0.58959  -0.58475
 Alpha  occ. eigenvalues --   -0.58424  -0.57554  -0.57551  -0.57280  -0.57235
 Alpha  occ. eigenvalues --   -0.56281  -0.56202  -0.55947  -0.55884  -0.55493
 Alpha  occ. eigenvalues --   -0.55450  -0.55310  -0.55246  -0.54493  -0.54485
 Alpha  occ. eigenvalues --   -0.53912  -0.53866  -0.53271  -0.53226  -0.53194
 Alpha  occ. eigenvalues --   -0.53140  -0.52900  -0.52885  -0.52729  -0.52668
 Alpha  occ. eigenvalues --   -0.52409  -0.52399  -0.51885  -0.51881  -0.51658
 Alpha  occ. eigenvalues --   -0.51588  -0.51199  -0.51167  -0.50547  -0.50476
 Alpha  occ. eigenvalues --   -0.50004  -0.49979  -0.49891  -0.49866  -0.49487
 Alpha  occ. eigenvalues --   -0.49487  -0.49201  -0.49186  -0.49103  -0.49068
 Alpha  occ. eigenvalues --   -0.48564  -0.48556  -0.48434  -0.48417  -0.48374
 Alpha  occ. eigenvalues --   -0.48338  -0.47667  -0.47594  -0.47269  -0.47117
 Alpha  occ. eigenvalues --   -0.46769  -0.46708  -0.46553  -0.46527  -0.46331
 Alpha  occ. eigenvalues --   -0.46269  -0.46133  -0.46083  -0.45819  -0.45792
 Alpha  occ. eigenvalues --   -0.45208  -0.45174  -0.44548  -0.44512  -0.44479
 Alpha  occ. eigenvalues --   -0.44475  -0.44126  -0.44116  -0.44077  -0.44060
 Alpha  occ. eigenvalues --   -0.43991  -0.43938  -0.43550  -0.43464  -0.43384
 Alpha  occ. eigenvalues --   -0.43358  -0.42998  -0.42927  -0.42898  -0.42668
 Alpha  occ. eigenvalues --   -0.42625  -0.42553  -0.41981  -0.41963  -0.41675
 Alpha  occ. eigenvalues --   -0.41667  -0.41505  -0.41458  -0.41113  -0.40989
 Alpha  occ. eigenvalues --   -0.40841  -0.40797  -0.40722  -0.40698  -0.40543
 Alpha  occ. eigenvalues --   -0.40492  -0.40226  -0.40205  -0.39424  -0.39412
 Alpha  occ. eigenvalues --   -0.38441  -0.38350  -0.37719  -0.37653  -0.37292
 Alpha  occ. eigenvalues --   -0.37265  -0.37235  -0.37198  -0.36768  -0.36682
 Alpha  occ. eigenvalues --   -0.36215  -0.36163  -0.34257  -0.34252  -0.33858
 Alpha  occ. eigenvalues --   -0.33738  -0.33174  -0.33158  -0.31319  -0.31273
 Alpha  occ. eigenvalues --   -0.31007  -0.30972  -0.29998  -0.29951  -0.29421
 Alpha  occ. eigenvalues --   -0.29326  -0.29293  -0.29209  -0.24052  -0.24035
 Alpha  occ. eigenvalues --   -0.21116  -0.21099
 Alpha virt. eigenvalues --   -0.08791  -0.08746  -0.01722  -0.01683  -0.00031
 Alpha virt. eigenvalues --   -0.00028   0.02210   0.02229   0.03152   0.03230
 Alpha virt. eigenvalues --    0.04730   0.04746   0.05131   0.05169   0.06183

 Mulliken charges:
               1
     1  Mg   0.838782
     2  C   -0.002938
     3  C   -0.094133
     4  C   -0.045871
     5  C   -0.063961
     6  N   -0.256784
     7  C   -0.052452
     8  C   -0.014031
     9  C   -0.086988
    10  C    0.046326
    11  C    0.104822
    12  C    0.053481
    13  C   -0.071823
    14  H    0.036192
    15  N   -0.433133
    16  C    0.168416
    17  C   -0.177171
    18  C   -0.004026
    19  C    0.148710
    20  C    0.110192
    21  C    0.012286
    22  O   -0.249653
    23  C    0.062476
    24  N   -0.341123
    25  C    0.041236
    26  C   -0.028166
    27  C   -0.023977
    28  C    0.074834
    29  C    0.076189
    30  C    0.035135
    31  C   -0.004505
    32  N   -0.310482
    33  C    0.080424
    34  C   -0.169686
    35  C    0.008375
    36  C    0.083007
    37  C    0.127301
    38  C    0.046144
    39  O   -0.188385
    40  C   -0.005345
    41  C    0.212877
    42  O   -0.257042
    43  O   -0.304820
    44  C    0.157666
    45  H   -0.017639
    46  H   -0.016867
    47  H   -0.041480
    48  H    0.000933
    49  H   -0.004046
    50  H    0.025468
    51  H    0.016427
    52  H    0.016623
    53  H    0.011207
    54  H    0.044169
    55  H    0.017847
    56  H    0.017924
    57  H    0.005858
    58  H    0.026778
    59  H    0.039535
    60  H    0.037319
    61  H    0.035612
    62  H    0.031511
    63  H    0.016547
    64  H    0.009442
    65  H    0.023182
    66  H    0.012524
    67  H    0.004733
    68  H    0.006338
    69  H    0.004747
    70  H    0.008760
    71  H    0.018192
    72  H    0.029006
    73  H    0.047632
    74  H    0.009123
    75  H    0.045989
    76  H    0.035130
    77  H    0.042958
    78  H    0.046383
    79  H    0.053760
    80  Mg   0.837892
    81  C   -0.016846
    82  C   -0.087816
    83  C   -0.045530
    84  C   -0.064886
    85  N   -0.254572
    86  C   -0.049803
    87  C   -0.015105
    88  C   -0.090493
    89  C    0.045769
    90  C    0.114381
    91  C    0.062529
    92  C   -0.077900
    93  H    0.034924
    94  N   -0.423507
    95  C    0.162927
    96  C   -0.174653
    97  C   -0.007804
    98  C    0.152100
    99  C    0.099379
   100  C    0.015552
   101  O   -0.253196
   102  C    0.061206
   103  N   -0.350091
   104  C    0.037521
   105  C   -0.019836
   106  C   -0.034821
   107  C    0.088948
   108  C    0.073647
   109  C    0.034721
   110  C   -0.007675
   111  N   -0.324123
   112  C    0.078467
   113  C   -0.163095
   114  C    0.002280
   115  C    0.096196
   116  C    0.131483
   117  C    0.042412
   118  O   -0.187751
   119  C    0.000911
   120  C    0.211261
   121  O   -0.251014
   122  O   -0.305624
   123  C    0.152018
   124  H   -0.019687
   125  H   -0.015579
   126  H   -0.040399
   127  H   -0.000627
   128  H   -0.004342
   129  H    0.022484
   130  H    0.014415
   131  H    0.016253
   132  H    0.013911
   133  H    0.037696
   134  H    0.020789
   135  H    0.019573
   136  H    0.008744
   137  H    0.026116
   138  H    0.039787
   139  H    0.038234
   140  H    0.036390
   141  H    0.033899
   142  H    0.014397
   143  H    0.012454
   144  H    0.025134
   145  H    0.011623
   146  H    0.005699
   147  H    0.006271
   148  H    0.003692
   149  H    0.010923
   150  H    0.017957
   151  H    0.030090
   152  H    0.046067
   153  H    0.008538
   154  H    0.047025
   155  H    0.035061
   156  H    0.043969
   157  H    0.049466
   158  H    0.053593
 Sum of Mulliken charges =  -0.00000

 Dipole moment (field-independent basis, Debye):
    X=              1.3492    Y=             -1.5976    Z=              8.4117  Tot=              8.6677
 Quadrupole moment (field-independent basis, Debye-Ang):
   XX=           -437.7283   YY=           -531.6689   ZZ=           -465.4232
   XY=            -12.4933   XZ=             -8.8403   YZ=             58.2937

 Normal termination of Gaussian 16 at Sun Sep 12 18:34:16 2021.
