 Gaussian 16, Revision A.03,
 Gaussian 16:  ES64L-G16RevA.03 25-Dec-2016

 -----------------------------------
 #p cam-b3lyp/Def2SVP td=(nstates=5)
 -----------------------------------

 --------------------------------
 TDDFT excited states in gaussian
 --------------------------------
 Symbolic Z-matrix:
 Charge =  0 Multiplicity = 1

                         Standard orientation:
 ---------------------------------------------------------------------
 Center     Atomic      Atomic             Coordinates (Angstroms)
 Number     Number       Type             X           Y           Z
 ---------------------------------------------------------------------
      1         12           0       -5.220891   -0.688808   -0.054808
      2          6           0       -5.395187    2.777380    0.821192
      3          6           0       -6.001641    0.231671   -3.246393
      4          6           0       -5.519502   -3.767556   -0.753926
      5          6           0       -5.579186   -1.411819    3.335552
      6          7           0       -5.622023    1.285367   -0.972617
      7          6           0       -5.598353    2.542289   -0.540462
      8          6           0       -5.734644    3.591490   -1.684130
      9          6           0       -6.473414    2.686573   -2.769184
     10          6           0       -5.975918    1.321814   -2.326633
     11          6           0       -7.994043    2.716193   -2.653801
     12          6           0       -4.343746    4.088513   -2.203843
     13          6           0       -4.384611    5.341416   -3.083570
     14          1           0       -3.296990    6.302912   -2.983811
     15          7           0       -5.209747   -1.613074   -1.800791
     16          6           0       -5.540848   -1.080018   -3.001420
     17          6           0       -5.371825   -2.166431   -3.990267
     18          6           0       -5.098716   -3.424647   -3.241668
     19          6           0       -5.293532   -2.984866   -1.883722
     20          6           0       -5.425386   -1.946926   -5.471043
     21          6           0       -4.732204   -4.806932   -3.681087
     22          8           0       -4.767709   -5.805885   -2.883964
     23          6           0       -4.411594   -4.978790   -5.109624
     24          7           0       -5.727805   -2.361508    1.086572
     25          6           0       -5.726694   -3.587649    0.552195
     26          6           0       -5.840688   -4.644569    1.610432
     27          6           0       -5.675168   -3.890365    3.008120
     28          6           0       -5.570522   -2.437782    2.481507
     29          6           0       -7.148577   -5.447942    1.615793
     30          6           0       -4.570229   -4.410709    3.961415
     31          6           0       -3.207659   -4.141916    3.362874
     32          7           0       -5.271253    0.449119    1.792793
     33          6           0       -5.452340   -0.055015    3.088837
     34          6           0       -5.522804    1.104186    3.997328
     35          6           0       -5.393580    2.209922    3.159179
     36          6           0       -5.277740    1.770243    1.809529
     37          6           0       -5.744797    1.050079    5.401688
     38          6           0       -5.351141    3.661428    3.087165
     39          8           0       -5.309661    4.570029    3.917958
     40          6           0       -5.472860    4.091042    1.558622
     41          6           0       -4.403521    5.113928    1.287460
     42          8           0       -3.195922    4.800762    1.319042
     43          8           0       -4.968961    6.230802    0.804333
     44          6           0       -3.959765    7.276071    0.486387
     45          1           0       -6.469632    0.375348   -4.222243
     46          1           0       -5.518458   -4.843964   -0.937724
     47          1           0       -5.605215   -1.562770    4.416287
     48          1           0       -6.352040    4.455359   -1.437195
     49          1           0       -6.132313    2.904420   -3.781071
     50          1           0       -8.315507    3.253651   -1.761769
     51          1           0       -8.302314    1.671849   -2.600814
     52          1           0       -8.443806    3.115602   -3.563176
     53          1           0       -3.950936    3.369671   -2.922890
     54          1           0       -3.657884    4.254089   -1.372277
     55          1           0       -5.348465    5.846374   -3.013483
     56          1           0       -4.317479    5.029271   -4.125807
     57          1           0       -5.805654   -0.955877   -5.715506
     58          1           0       -6.175439   -2.631048   -5.867410
     59          1           0       -4.464512   -2.137738   -5.949212
     60          1           0       -5.268609   -4.673033   -5.710112
     61          1           0       -4.086801   -6.012512   -5.222666
     62          1           0       -3.596677   -4.303619   -5.372310
     63          1           0       -5.049638   -5.386441    1.508987
     64          1           0       -6.585249   -3.934277    3.606868
     65          1           0       -7.001634   -6.524368    1.524029
     66          1           0       -7.779824   -5.069519    0.812291
     67          1           0       -7.783090   -5.282461    2.486095
     68          1           0       -4.657122   -5.489101    4.089738
     69          1           0       -4.605959   -3.955014    4.951019
     70          1           0       -3.065983   -4.987409    2.690639
     71          1           0       -2.445191   -4.130928    4.142447
     72          1           0       -3.211886   -3.238103    2.753292
     73          1           0       -5.047059    1.758358    5.848309
     74          1           0       -5.589261    0.043271    5.788662
     75          1           0       -6.788208    1.360702    5.453302
     76          1           0       -6.473906    4.500514    1.426857
     77          1           0       -4.241070    8.172514    1.039100
     78          1           0       -3.916596    7.344636   -0.600738
     79          1           0       -2.952726    7.106020    0.868869
     80         12           0        5.365523   -0.842029    0.207526
     81          6           0        5.223359    2.712069   -0.269181
     82          6           0        4.567444   -1.166375   -3.092844
     83          6           0        5.040302   -3.960387    0.694876
     84          6           0        5.019523   -0.257651    3.625785
     85          7           0        4.971678    0.653845   -1.373450
     86          6           0        5.006881    1.975542   -1.452440
     87          6           0        4.878218    2.537390   -2.893731
     88          6           0        4.117219    1.294971   -3.569106
     89          6           0        4.605268    0.179125   -2.647505
     90          6           0        2.604354    1.381527   -3.454673
     91          6           0        6.274422    2.789014   -3.564027
     92          6           0        6.231116    3.622295   -4.846810
     93          1           0        7.333495    4.540946   -5.117603
     94          7           0        5.360248   -2.349866   -1.082802
     95          6           0        5.031371   -2.300453   -2.390734
     96          6           0        5.168787   -3.676548   -2.892394
     97          6           0        5.446161   -4.571743   -1.736367
     98          6           0        5.268490   -3.644864   -0.636640
     99          6           0        5.115233   -4.019356   -4.352884
    100          6           0        5.798799   -6.024968   -1.636463
    101          8           0        5.762048   -6.651484   -0.518901
    102          6           0        6.097839   -6.715353   -2.899575
    103          7           0        4.860894   -1.961887    1.884910
    104          6           0        4.842697   -3.305582    1.839210
    105          6           0        4.724363   -3.896904    3.223662
    106          6           0        4.911063   -2.669955    4.232296
    107          6           0        5.020874   -1.516931    3.210595
    108          6           0        3.409213   -4.612584    3.531181
    109          6           0        6.019022   -2.808822    5.312013
    110          6           0        7.381380   -2.806804    4.656749
    111          7           0        5.342611    0.893417    1.494298
    112          6           0        5.159502    0.914851    2.894332
    113          6           0        5.105527    2.332994    3.304687
    114          6           0        5.238971    3.043850    2.102455
    115          6           0        5.346795    2.133021    1.016975
    116          6           0        4.903436    2.808050    4.631188
    117          6           0        5.302460    4.357644    1.503626
    118          8           0        5.350203    5.508285    1.936614
    119          6           0        5.168179    4.201659   -0.072456
    120          6           0        6.244158    5.033553   -0.714898
    121          8           0        7.443727    4.744118   -0.560425
    122          8           0        5.677585    5.897159   -1.577196
    123          6           0        6.705584    6.737068   -2.247714
    124          1           0        4.100076   -1.381762   -4.054122
    125          1           0        5.030665   -5.026814    0.931767
    126          1           0        5.011959    0.007741    4.685117
    127          1           0        4.275790    3.433743   -2.979762
    128          1           0        4.460912    1.126938   -4.586462
    129          1           0        2.294000    2.207799   -2.832490
    130          1           0        2.287888    0.441835   -3.021248
    131          1           0        2.152697    1.421616   -4.450026
    132          1           0        6.653554    1.841548   -3.968155
    133          1           0        6.957114    3.234356   -2.866721
    134          1           0        5.267401    4.129643   -4.976429
    135          1           0        6.295026    2.945676   -5.702457
    136          1           0        4.734414   -3.181003   -4.949156
    137          1           0        4.357957   -4.802089   -4.470047
    138          1           0        6.069091   -4.390631   -4.733639
    139          1           0        5.240624   -6.639467   -3.564326
    140          1           0        6.413856   -7.720931   -2.615279
    141          1           0        6.926553   -6.196506   -3.394176
    142          1           0        5.508961   -4.621726    3.402967
    143          1           0        4.000215   -2.483389    4.819981
    144          1           0        3.547887   -5.663626    3.847650
    145          1           0        2.778560   -4.559739    2.653670
    146          1           0        2.790378   -4.135894    4.289474
    147          1           0        5.925169   -3.766453    5.829976
    148          1           0        5.986793   -2.030019    6.066621
    149          1           0        7.505708   -3.847487    4.342718
    150          1           0        8.149329   -2.515470    5.370492
    151          1           0        7.382225   -2.187253    3.752424
    152          1           0        5.602964    3.619618    4.781201
    153          1           0        5.048647    2.016509    5.363413
    154          1           0        3.858256    3.122619    4.568583
    155          1           0        4.168979    4.538650   -0.351058
    156          1           0        6.432341    7.781318   -2.067236
    157          1           0        6.728988    6.397197   -3.300188
    158          1           0        7.712886    6.710070   -1.848873
 ---------------------------------------------------------------------

 SCF Done:  E(RCAM-B3LYP) =  -4069.81144034     A.U. after   19 cycles

 Excitation energies and oscillator strengths:

 Excited State   1:      Singlet-A      1.6579 eV  747.83 nm  f=0.0300  <S**2>=0.000
     309 -> 315       -0.11429
     310 -> 316        0.12512
     311 -> 313       -0.46180
     312 -> 314        0.50866
 This state for optimization and/or second-order correction.
 Total Energy, E(TD-HF/TD-DFT) =  -4069.75051298
 Copying the excited state density for this state as the 1-particle RhoCI density.

 Excited State   2:      Singlet-A      1.6954 eV  731.31 nm  f=0.6859  <S**2>=0.000
     309 -> 315        0.13293
     310 -> 316        0.12023
     311 -> 313        0.50688
     312 -> 314        0.46031

 Excited State   3:      Singlet-A      2.1836 eV  567.80 nm  f=0.0261  <S**2>=0.000
     309 -> 313       -0.28933
     310 -> 314        0.57495
     311 -> 315        0.12116
     312 -> 316       -0.24251

 Excited State   4:      Singlet-A      2.1936 eV  565.21 nm  f=0.1581  <S**2>=0.000
     309 -> 313        0.57183
     310 -> 314        0.28647
     311 -> 315       -0.25004
     312 -> 316       -0.12623

 Excited State   5:      Singlet-A      2.4852 eV  498.89 nm  f=0.0000  <S**2>=0.000
     312 -> 313        0.70709

 The electronic state is 1-A.
 Alpha  occ. eigenvalues --  -46.87874 -46.87493 -19.26277 -19.26222 -19.19023
 Alpha  occ. eigenvalues --  -19.19022 -19.18909 -19.18565 -19.18215 -19.17852
 Alpha  occ. eigenvalues --  -14.42529 -14.42337 -14.41523 -14.41194 -14.39483
 Alpha  occ. eigenvalues --  -14.39187 -14.38660 -14.38421 -10.39087 -10.38946
 Alpha  occ. eigenvalues --  -10.35546 -10.35246 -10.34434 -10.34029 -10.31660
 Alpha  occ. eigenvalues --  -10.31642 -10.31478 -10.31144 -10.30990 -10.30876
 Alpha  occ. eigenvalues --  -10.30644 -10.30580 -10.30288 -10.30219 -10.30183
 Alpha  occ. eigenvalues --  -10.29988 -10.29986 -10.29719 -10.29709 -10.29338
 Alpha  occ. eigenvalues --  -10.29274 -10.29226 -10.28829 -10.28630 -10.28599
 Alpha  occ. eigenvalues --  -10.28595 -10.28440 -10.28235 -10.28197 -10.28020
 Alpha  occ. eigenvalues --  -10.27868 -10.27821 -10.27808 -10.27668 -10.27606
 Alpha  occ. eigenvalues --  -10.27567 -10.27517 -10.27508 -10.27474 -10.27374
 Alpha  occ. eigenvalues --  -10.27353 -10.27316 -10.27298 -10.27232 -10.27198
 Alpha  occ. eigenvalues --  -10.26860 -10.26802 -10.26599 -10.26544 -10.26305
 Alpha  occ. eigenvalues --  -10.26294 -10.26250 -10.26096 -10.26010 -10.25906
 Alpha  occ. eigenvalues --  -10.25903 -10.25766 -10.25594 -10.25487 -10.25265
 Alpha  occ. eigenvalues --  -10.24903 -10.24859 -10.24758 -10.24684 -10.24610
 Alpha  occ. eigenvalues --  -10.24523  -3.16616  -3.16242  -1.91498  -1.91124
 Alpha  occ. eigenvalues --   -1.91085  -1.90927  -1.90713  -1.90550  -1.16629
 Alpha  occ. eigenvalues --   -1.16513  -1.08668  -1.08458  -1.07310  -1.06819
 Alpha  occ. eigenvalues --   -1.06806  -1.06645  -1.04658  -1.04334  -1.03835
 Alpha  occ. eigenvalues --   -1.03498  -1.03309  -1.02869  -1.02486  -1.01940
 Alpha  occ. eigenvalues --   -0.92036  -0.91812  -0.89589  -0.89338  -0.89268
 Alpha  occ. eigenvalues --   -0.89025  -0.88354  -0.88071  -0.87940  -0.87752
 Alpha  occ. eigenvalues --   -0.87595  -0.87528  -0.87372  -0.86971  -0.85062
 Alpha  occ. eigenvalues --   -0.84868  -0.83998  -0.83731  -0.83068  -0.82794
 Alpha  occ. eigenvalues --   -0.82722  -0.82519  -0.81624  -0.81447  -0.80658
 Alpha  occ. eigenvalues --   -0.80291  -0.78886  -0.78473  -0.77295  -0.77002
 Alpha  occ. eigenvalues --   -0.76994  -0.76764  -0.75982  -0.75696  -0.74958
 Alpha  occ. eigenvalues --   -0.74658  -0.72848  -0.72527  -0.71739  -0.71429
 Alpha  occ. eigenvalues --   -0.69974  -0.69619  -0.68952  -0.68692  -0.67713
 Alpha  occ. eigenvalues --   -0.67443  -0.67310  -0.67076  -0.65360  -0.65134
 Alpha  occ. eigenvalues --   -0.64915  -0.64682  -0.64613  -0.64510  -0.64337
 Alpha  occ. eigenvalues --   -0.64054  -0.62325  -0.62134  -0.60529  -0.60187
 Alpha  occ. eigenvalues --   -0.59883  -0.59653  -0.59055  -0.58832  -0.58569
 Alpha  occ. eigenvalues --   -0.58265  -0.57627  -0.57379  -0.57372  -0.57078
 Alpha  occ. eigenvalues --   -0.56385  -0.56040  -0.56008  -0.55754  -0.55599
 Alpha  occ. eigenvalues --   -0.55389  -0.55304  -0.55098  -0.54563  -0.54347
 Alpha  occ. eigenvalues --   -0.53974  -0.53788  -0.53379  -0.53300  -0.53071
 Alpha  occ. eigenvalues --   -0.53000  -0.52969  -0.52850  -0.52762  -0.52538
 Alpha  occ. eigenvalues --   -0.52503  -0.52264  -0.51977  -0.51699  -0.51659
 Alpha  occ. eigenvalues --   -0.51528  -0.51255  -0.51039  -0.50688  -0.50346
 Alpha  occ. eigenvalues --   -0.50106  -0.50009  -0.49845  -0.49723  -0.49595
 Alpha  occ. eigenvalues --   -0.49347  -0.49283  -0.49166  -0.49050  -0.48950
 Alpha  occ. eigenvalues --   -0.48646  -0.48543  -0.48503  -0.48407  -0.48225
 Alpha  occ. eigenvalues --   -0.48191  -0.47770  -0.47456  -0.47370  -0.46976
 Alpha  occ. eigenvalues --   -0.46868  -0.46633  -0.46561  -0.46429  -0.46428
 Alpha  occ. eigenvalues --   -0.46218  -0.46114  -0.45918  -0.45868  -0.45654
 Alpha  occ. eigenvalues --   -0.45266  -0.45061  -0.44635  -0.44593  -0.44372
 Alpha  occ. eigenvalues --   -0.44326  -0.44218  -0.44167  -0.44082  -0.43980
 Alpha  occ. eigenvalues --   -0.43933  -0.43787  -0.43535  -0.43460  -0.43412
 Alpha  occ. eigenvalues --   -0.43239  -0.43092  -0.42788  -0.42750  -0.42739
 Alpha  occ. eigenvalues --   -0.42678  -0.42408  -0.42076  -0.41827  -0.41768
 Alpha  occ. eigenvalues --   -0.41612  -0.41502  -0.41329  -0.41210  -0.40949
 Alpha  occ. eigenvalues --   -0.40917  -0.40842  -0.40637  -0.40593  -0.40570
 Alpha  occ. eigenvalues --   -0.40349  -0.40326  -0.40119  -0.39509  -0.39287
 Alpha  occ. eigenvalues --   -0.38538  -0.38210  -0.37830  -0.37541  -0.37391
 Alpha  occ. eigenvalues --   -0.37342  -0.37116  -0.37055  -0.36738  -0.36636
 Alpha  occ. eigenvalues --   -0.36238  -0.36072  -0.34359  -0.34087  -0.33787
 Alpha  occ. eigenvalues --   -0.33717  -0.33255  -0.33009  -0.31437  -0.31125
 Alpha  occ. eigenvalues --   -0.31107  -0.30810  -0.30072  -0.29757  -0.29532
 Alpha  occ. eigenvalues --   -0.29393  -0.29160  -0.29019  -0.24154  -0.23866
 Alpha  occ. eigenvalues --   -0.21205  -0.20950
 Alpha virt. eigenvalues --   -0.08852  -0.08620  -0.01827  -0.01521  -0.00144
 Alpha virt. eigenvalues --    0.00129   0.02139   0.02397   0.03022   0.03381
 Alpha virt. eigenvalues --    0.04641   0.04874   0.05083   0.05312   0.06102

 Mulliken charges:
               1
     1  Mg   0.838473
     2  C   -0.002896
     3  C   -0.094700
     4  C   -0.045673
     5  C   -0.063992
     6  N   -0.256708
     7  C   -0.052528
     8  C   -0.013880
     9  C   -0.086881
    10  C    0.046094
    11  C    0.104809
    12  C    0.053680
    13  C   -0.071851
    14  H    0.036436
    15  N   -0.433056
    16  C    0.168126
    17  C   -0.177701
    18  C   -0.004225
    19  C    0.148646
    20  C    0.110291
    21  C    0.012134
    22  O   -0.249196
    23  C    0.062733
    24  N   -0.341127
    25  C    0.041139
    26  C   -0.028228
    27  C   -0.024051
    28  C    0.074996
    29  C    0.076084
    30  C    0.035088
    31  C   -0.004469
    32  N   -0.310555
    33  C    0.080607
    34  C   -0.169641
    35  C    0.008635
    36  C    0.083104
    37  C    0.127268
    38  C    0.046410
    39  O   -0.187568
    40  C   -0.005409
    41  C    0.213034
    42  O   -0.256747
    43  O   -0.305015
    44  C    0.157128
    45  H   -0.017758
    46  H   -0.016657
    47  H   -0.041389
    48  H    0.001320
    49  H   -0.004483
    50  H    0.025697
    51  H    0.016498
    52  H    0.016645
    53  H    0.010042
    54  H    0.044361
    55  H    0.018334
    56  H    0.017220
    57  H    0.005715
    58  H    0.026981
    59  H    0.038134
    60  H    0.037477
    61  H    0.035614
    62  H    0.030125
    63  H    0.016845
    64  H    0.009625
    65  H    0.023438
    66  H    0.012528
    67  H    0.004847
    68  H    0.006681
    69  H    0.004573
    70  H    0.009498
    71  H    0.017303
    72  H    0.028986
    73  H    0.047872
    74  H    0.009015
    75  H    0.046280
    76  H    0.035280
    77  H    0.043525
    78  H    0.045949
    79  H    0.055063
    80  Mg   0.838115
    81  C   -0.016401
    82  C   -0.088015
    83  C   -0.045305
    84  C   -0.064141
    85  N   -0.254463
    86  C   -0.049275
    87  C   -0.015069
    88  C   -0.090695
    89  C    0.045886
    90  C    0.114360
    91  C    0.062647
    92  C   -0.077458
    93  H    0.034449
    94  N   -0.423402
    95  C    0.162764
    96  C   -0.174985
    97  C   -0.007884
    98  C    0.151827
    99  C    0.099549
   100  C    0.015520
   101  O   -0.253427
   102  C    0.061287
   103  N   -0.349846
   104  C    0.037363
   105  C   -0.019769
   106  C   -0.034894
   107  C    0.089028
   108  C    0.073768
   109  C    0.034749
   110  C   -0.007591
   111  N   -0.324449
   112  C    0.078861
   113  C   -0.161900
   114  C    0.003289
   115  C    0.096296
   116  C    0.130930
   117  C    0.043728
   118  O   -0.187310
   119  C    0.000334
   120  C    0.211012
   121  O   -0.251366
   122  O   -0.305497
   123  C    0.152199
   124  H   -0.020922
   125  H   -0.015823
   126  H   -0.040129
   127  H   -0.000637
   128  H   -0.005329
   129  H    0.024437
   130  H    0.014641
   131  H    0.013966
   132  H    0.013765
   133  H    0.037739
   134  H    0.020286
   135  H    0.019053
   136  H    0.007801
   137  H    0.025695
   138  H    0.039238
   139  H    0.038160
   140  H    0.036073
   141  H    0.033508
   142  H    0.014048
   143  H    0.012656
   144  H    0.024517
   145  H    0.012267
   146  H    0.005086
   147  H    0.005809
   148  H    0.003781
   149  H    0.010716
   150  H    0.017699
   151  H    0.030234
   152  H    0.045580
   153  H    0.007990
   154  H    0.050425
   155  H    0.036866
   156  H    0.043608
   157  H    0.048947
   158  H    0.053426
 Sum of Mulliken charges =  -0.00000

 Dipole moment (field-independent basis, Debye):
    X=             -3.9308    Y=             -2.0703    Z=             -7.3710  Tot=              8.6063
 Quadrupole moment (field-independent basis, Debye-Ang):
   XX=           -518.4399   YY=           -547.6298   ZZ=           -451.6059
   XY=            -11.6495   XZ=              0.5310   YZ=            -44.7268

 Normal termination of Gaussian 16 at Sat Sep  4 05:24:16 2021.
