 Gaussian 16, Revision A.03,
 Gaussian 16:  ES64L-G16RevA.03 25-Dec-2016

 -----------------------------------
 #p cam-b3lyp/Def2SVP td=(nstates=5)
 -----------------------------------

 --------------------------------
 TDDFT excited states in gaussian
 --------------------------------
 Symbolic Z-matrix:
 Charge =  0 Multiplicity = 1

                         Standard orientation:
 ---------------------------------------------------------------------
 Center     Atomic      Atomic             Coordinates (Angstroms)
 Number     Number       Type             X           Y           Z
 ---------------------------------------------------------------------
      1         12           0       -7.857557   -0.701556    0.274467
      2          6           0       -8.042026    2.844185   -0.179301
      3          6           0       -8.818296   -1.018875   -2.984269
      4          6           0       -8.142343   -3.819972    0.775466
      5          6           0       -8.027006   -0.122665    3.706934
      6          7           0       -8.337837    0.797053   -1.282502
      7          6           0       -8.312020    2.124658   -1.345504
      8          6           0       -8.524659    2.679067   -2.785917
      9          6           0       -9.304216    1.441042   -3.419623
     10          6           0       -8.762331    0.333389   -2.533401
     11          6           0      -10.817049    1.517440   -3.240733
     12          6           0       -7.170945    2.943762   -3.526948
     13          6           0       -7.277843    3.784409   -4.802580
     14          1           0       -6.202197    4.710448   -5.123181
     15          7           0       -7.922435   -2.204278   -1.006341
     16          6           0       -8.324211   -2.149857   -2.298974
     17          6           0       -8.189379   -3.524928   -2.825929
     18          6           0       -7.857327   -4.419809   -1.682678
     19          6           0       -7.988225   -3.509709   -0.573641
     20          6           0       -8.323550   -3.866389   -4.278221
     21          6           0       -7.491893   -5.868255   -1.601478
     22          8           0       -7.469661   -6.502956   -0.491868
     23          6           0       -7.243399   -6.555834   -2.881528
     24          7           0       -8.277200   -1.833731    1.977321
     25          6           0       -8.284096   -3.170500    1.932764
     26          6           0       -8.325696   -3.762526    3.310340
     27          6           0       -8.099810   -2.546994    4.320889
     28          6           0       -8.046250   -1.391192    3.291558
     29          6           0       -9.618364   -4.501914    3.682263
     30          6           0       -6.938439   -2.683977    5.337192
     31          6           0       -5.613426   -2.660378    4.608575
     32          7           0       -7.830001    1.037399    1.573051
     33          6           0       -7.935148    1.047165    2.971451
     34          6           0       -7.976931    2.459873    3.391661
     35          6           0       -7.909447    3.178329    2.199557
     36          6           0       -7.856977    2.271711    1.102478
     37          6           0       -8.124559    2.928074    4.727112
     38          6           0       -7.894301    4.500931    1.595941
     39          8           0       -7.824300    5.651579    2.030224
     40          6           0       -8.102416    4.337466    0.025656
     41          6           0       -7.065341    5.183947   -0.660824
     42          8           0       -5.852829    4.899434   -0.581878
     43          8           0       -7.673173    6.046494   -1.489735
     44          6           0       -6.698950    6.896791   -2.224609
     45          1           0       -9.338750   -1.243009   -3.917453
     46          1           0       -8.133465   -4.888343    1.001169
     47          1           0       -7.994255    0.135422    4.767015
     48          1           0       -9.142245    3.575700   -2.841236
     49          1           0       -9.019860    1.269202   -4.457571
     50          1           0      -11.100259    2.347157   -2.593212
     51          1           0      -11.105209    0.567432   -2.790243
     52          1           0      -11.319976    1.555458   -4.207375
     53          1           0       -6.804550    2.008887   -3.951005
     54          1           0       -6.445462    3.401293   -2.853401
     55          1           0       -8.244779    4.283666   -4.871042
     56          1           0       -7.260057    3.109846   -5.658646
     57          1           0       -8.732018   -3.033621   -4.849357
     58          1           0       -9.082070   -4.645301   -4.353409
     59          1           0       -7.385931   -4.224001   -4.704033
     60          1           0       -8.135366   -6.489339   -3.504843
     61          1           0       -6.908258   -7.559797   -2.623480
     62          1           0       -6.454300   -6.028405   -3.418270
     63          1           0       -7.529109   -4.492856    3.446330
     64          1           0       -8.976635   -2.363354    4.942282
     65          1           0       -9.459009   -5.536990    3.985458
     66          1           0      -10.296650   -4.443629    2.831486
     67          1           0      -10.209271   -4.024690    4.463610
     68          1           0       -7.001075   -3.638795    5.858101
     69          1           0       -6.929934   -1.895499    6.089840
     70          1           0       -5.493305   -3.694690    4.288260
     71          1           0       -4.811660   -2.366033    5.286620
     72          1           0       -5.664022   -2.044837    3.710224
     73          1           0       -7.416050    3.748183    4.842894
     74          1           0       -7.932810    2.134116    5.448545
     75          1           0       -9.168752    3.240201    4.717391
     76          1           0       -9.115459    4.673723   -0.192970
     77          1           0       -6.965544    7.934998   -2.026395
     78          1           0       -6.713588    6.559693   -3.261216
     79          1           0       -5.670734    6.875476   -1.861764
     80         12           0        8.019192   -0.829963   -0.134371
     81          6           0        7.864687    2.641500    0.762360
     82          6           0        7.069826    0.093582   -3.277676
     83          6           0        7.708454   -3.908321   -0.837622
     84          6           0        7.831774   -1.573448    3.265305
     85          7           0        7.557230    1.143153   -1.020742
     86          6           0        7.592257    2.398603   -0.600071
     87          6           0        7.399139    3.457377   -1.718665
     88          6           0        6.604720    2.547232   -2.776676
     89          6           0        7.131563    1.174764   -2.362625
     90          6           0        5.098927    2.562325   -2.572481
     91          6           0        8.763818    3.962270   -2.305823
     92          6           0        8.663954    5.214577   -3.179617
     93          1           0        9.755169    6.183932   -3.134027
     94          7           0        7.950813   -1.744728   -1.894228
     95          6           0        7.562464   -1.213947   -3.072673
     96          6           0        7.673113   -2.299825   -4.058963
     97          6           0        8.000832   -3.558618   -3.335952
     98          6           0        7.876194   -3.113779   -1.962390
     99          6           0        7.551770   -2.071477   -5.537662
    100          6           0        8.353845   -4.938137   -3.803424
    101          8           0        8.366714   -5.938058   -3.001667
    102          6           0        8.592857   -5.100741   -5.244915
    103          7           0        7.589042   -2.503827    1.021270
    104          6           0        7.565235   -3.732729    0.476141
    105          6           0        7.508927   -4.801179    1.541794
    106          6           0        7.744879   -4.038659    2.927601
    107          6           0        7.810785   -2.585420    2.408783
    108          6           0        6.207363   -5.599255    1.615533
    109          6           0        8.900806   -4.555426    3.827297
    110          6           0       10.231695   -4.288077    3.161981
    111          7           0        8.059850    0.296728    1.708711
    112          6           0        7.941170   -0.210417    3.021260
    113          6           0        7.909794    0.949875    3.935136
    114          6           0        7.989854    2.061123    3.082381
    115          6           0        8.045422    1.624800    1.731075
    116          6           0        7.769967    0.890544    5.350435
    117          6           0        8.029289    3.504360    3.017446
    118          8           0        8.099858    4.409679    3.847604
    119          6           0        7.822496    3.948015    1.505222
    120          6           0        8.870085    4.975735    1.175279
    121          8           0       10.074714    4.667229    1.157688
    122          8           0        8.266860    6.090979    0.725008
    123          6           0        9.265254    7.135929    0.374138
    124          1           0        6.558316    0.247008   -4.228310
    125          1           0        7.706873   -4.985874   -1.017506
    126          1           0        7.873476   -1.724245    4.346135
    127          1           0        6.795766    4.311738   -1.436202
    128          1           0        6.900983    2.777522   -3.796761
    129          1           0        4.819588    3.090773   -1.673115
    130          1           0        4.800179    1.524134   -2.509519
    131          1           0        4.602228    2.965591   -3.459609
    132          1           0        9.121529    3.240814   -3.051664
    133          1           0        9.478912    4.124067   -1.522835
    134          1           0        7.696645    5.719282   -3.067601
    135          1           0        8.686782    4.908674   -4.228385
    136          1           0        7.146232   -1.076534   -5.759097
    137          1           0        6.787863   -2.764436   -5.906605
    138          1           0        8.486195   -2.259026   -6.070902
    139          1           0        7.706280   -4.794072   -5.794832
    140          1           0        8.918918   -6.134836   -5.372253
    141          1           0        9.399401   -4.422266   -5.544536
    142          1           0        8.298995   -5.528752    1.402073
    143          1           0        6.862423   -4.099210    3.581381
    144          1           0        6.357630   -6.690154    1.508669
    145          1           0        5.537297   -5.230921    0.850105
    146          1           0        5.625198   -5.450418    2.523341
    147          1           0        8.828266   -5.638617    3.952152
    148          1           0        8.905249   -4.116480    4.819416
    149          1           0       10.338752   -5.133453    2.475712
    150          1           0       11.032315   -4.273960    3.898762
    151          1           0       10.192709   -3.374996    2.556660
    152          1           0        8.477775    1.597082    5.763106
    153          1           0        7.946499   -0.115383    5.725565
    154          1           0        6.723847    1.190218    5.455794
    155          1           0        6.812471    4.350051    1.416962
    156          1           0        9.003312    8.032434    0.944530
    157          1           0        9.239495    7.215328   -0.728940
    158          1           0       10.289700    6.976370    0.689577
 ---------------------------------------------------------------------

 SCF Done:  E(RCAM-B3LYP) =  -4069.81171959     A.U. after   19 cycles

 Excitation energies and oscillator strengths:

 Excited State   1:      Singlet-A      1.6703 eV  742.29 nm  f=0.0400  <S**2>=0.000
     309 -> 315       -0.10232
     310 -> 316        0.13889
     311 -> 313       -0.40549
     312 -> 314        0.55375
 This state for optimization and/or second-order correction.
 Total Energy, E(TD-HF/TD-DFT) =  -4069.75033731
 Copying the excited state density for this state as the 1-particle RhoCI density.

 Excited State   2:      Singlet-A      1.6847 eV  735.94 nm  f=0.7162  <S**2>=0.000
     309 -> 315        0.14273
     310 -> 316        0.10379
     311 -> 313        0.55295
     312 -> 314        0.40498

 Excited State   3:      Singlet-A      2.1852 eV  567.38 nm  f=0.0624  <S**2>=0.000
     309 -> 313       -0.13229
     310 -> 314        0.62903
     312 -> 316       -0.26658

 Excited State   4:      Singlet-A      2.1930 eV  565.36 nm  f=0.1314  <S**2>=0.000
     309 -> 313        0.62697
     310 -> 314        0.13124
     311 -> 315       -0.27272

 Excited State   5:      Singlet-A      2.7644 eV  448.50 nm  f=0.0000  <S**2>=0.000
     312 -> 313        0.70710

 The electronic state is 1-A.
 Alpha  occ. eigenvalues --  -46.87836 -46.87586 -19.26338 -19.26258 -19.19076
 Alpha  occ. eigenvalues --  -19.19073 -19.18850 -19.18661 -19.18204 -19.17966
 Alpha  occ. eigenvalues --  -14.42491 -14.42421 -14.41487 -14.41286 -14.39442
 Alpha  occ. eigenvalues --  -14.39280 -14.38625 -14.38524 -10.39131 -10.39004
 Alpha  occ. eigenvalues --  -10.35483 -10.35340 -10.34425 -10.34142 -10.31740
 Alpha  occ. eigenvalues --  -10.31668 -10.31447 -10.31227 -10.30954 -10.30948
 Alpha  occ. eigenvalues --  -10.30608 -10.30544 -10.30325 -10.30284 -10.30243
 Alpha  occ. eigenvalues --  -10.30074 -10.29955 -10.29820 -10.29667 -10.29368
 Alpha  occ. eigenvalues --  -10.29330 -10.29292 -10.28805 -10.28632 -10.28621
 Alpha  occ. eigenvalues --  -10.28582 -10.28405 -10.28330 -10.28167 -10.28049
 Alpha  occ. eigenvalues --  -10.27928 -10.27829 -10.27768 -10.27622 -10.27595
 Alpha  occ. eigenvalues --  -10.27530 -10.27526 -10.27479 -10.27454 -10.27444
 Alpha  occ. eigenvalues --  -10.27420 -10.27407 -10.27399 -10.27310 -10.27200
 Alpha  occ. eigenvalues --  -10.26958 -10.26777 -10.26617 -10.26446 -10.26380
 Alpha  occ. eigenvalues --  -10.26279 -10.26209 -10.26082 -10.26055 -10.25908
 Alpha  occ. eigenvalues --  -10.25864 -10.25863 -10.25771 -10.25461 -10.25331
 Alpha  occ. eigenvalues --  -10.24869 -10.24824 -10.24797 -10.24715 -10.24679
 Alpha  occ. eigenvalues --  -10.24618  -3.16579  -3.16336  -1.91461  -1.91218
 Alpha  occ. eigenvalues --   -1.91047  -1.90889  -1.90807  -1.90644  -1.16687
 Alpha  occ. eigenvalues --   -1.16553  -1.08662  -1.08571  -1.07251  -1.06915
 Alpha  occ. eigenvalues --   -1.06859  -1.06695  -1.04623  -1.04418  -1.03799
 Alpha  occ. eigenvalues --   -1.03589  -1.03271  -1.02966  -1.02449  -1.02037
 Alpha  occ. eigenvalues --   -0.92012  -0.91907  -0.89553  -0.89425  -0.89240
 Alpha  occ. eigenvalues --   -0.89065  -0.88320  -0.88153  -0.87903  -0.87717
 Alpha  occ. eigenvalues --   -0.87716  -0.87609  -0.87313  -0.87062  -0.85032
 Alpha  occ. eigenvalues --   -0.84921  -0.83969  -0.83810  -0.83003  -0.82878
 Alpha  occ. eigenvalues --   -0.82695  -0.82578  -0.81631  -0.81516  -0.80639
 Alpha  occ. eigenvalues --   -0.80367  -0.78835  -0.78570  -0.77259  -0.77071
 Alpha  occ. eigenvalues --   -0.76982  -0.76820  -0.75969  -0.75755  -0.74933
 Alpha  occ. eigenvalues --   -0.74732  -0.72811  -0.72625  -0.71712  -0.71502
 Alpha  occ. eigenvalues --   -0.69938  -0.69694  -0.68920  -0.68751  -0.67680
 Alpha  occ. eigenvalues --   -0.67530  -0.67274  -0.67131  -0.65335  -0.65191
 Alpha  occ. eigenvalues --   -0.64895  -0.64695  -0.64664  -0.64576  -0.64304
 Alpha  occ. eigenvalues --   -0.64135  -0.62344  -0.62197  -0.60479  -0.60277
 Alpha  occ. eigenvalues --   -0.59851  -0.59715  -0.59026  -0.58918  -0.58543
 Alpha  occ. eigenvalues --   -0.58350  -0.57627  -0.57469  -0.57346  -0.57167
 Alpha  occ. eigenvalues --   -0.56348  -0.56132  -0.56030  -0.55806  -0.55559
 Alpha  occ. eigenvalues --   -0.55383  -0.55376  -0.55175  -0.54564  -0.54413
 Alpha  occ. eigenvalues --   -0.53947  -0.53829  -0.53336  -0.53267  -0.53159
 Alpha  occ. eigenvalues --   -0.53068  -0.52958  -0.52826  -0.52800  -0.52608
 Alpha  occ. eigenvalues --   -0.52469  -0.52340  -0.51943  -0.51806  -0.51666
 Alpha  occ. eigenvalues --   -0.51585  -0.51235  -0.51125  -0.50612  -0.50423
 Alpha  occ. eigenvalues --   -0.50065  -0.49958  -0.49908  -0.49802  -0.49559
 Alpha  occ. eigenvalues --   -0.49419  -0.49254  -0.49142  -0.49126  -0.49019
 Alpha  occ. eigenvalues --   -0.48635  -0.48495  -0.48484  -0.48478  -0.48307
 Alpha  occ. eigenvalues --   -0.48276  -0.47737  -0.47523  -0.47336  -0.47052
 Alpha  occ. eigenvalues --   -0.46836  -0.46636  -0.46607  -0.46476  -0.46397
 Alpha  occ. eigenvalues --   -0.46201  -0.46199  -0.46011  -0.45861  -0.45741
 Alpha  occ. eigenvalues --   -0.45235  -0.45139  -0.44617  -0.44549  -0.44436
 Alpha  occ. eigenvalues --   -0.44401  -0.44182  -0.44135  -0.44059  -0.44047
 Alpha  occ. eigenvalues --   -0.44012  -0.43871  -0.43537  -0.43474  -0.43429
 Alpha  occ. eigenvalues --   -0.43308  -0.43066  -0.42851  -0.42820  -0.42745
 Alpha  occ. eigenvalues --   -0.42692  -0.42489  -0.42048  -0.41894  -0.41743
 Alpha  occ. eigenvalues --   -0.41590  -0.41584  -0.41384  -0.41182  -0.40916
 Alpha  occ. eigenvalues --   -0.40910  -0.40865  -0.40660  -0.40627  -0.40607
 Alpha  occ. eigenvalues --   -0.40423  -0.40296  -0.40154  -0.39472  -0.39364
 Alpha  occ. eigenvalues --   -0.38506  -0.38281  -0.37807  -0.37579  -0.37356
 Alpha  occ. eigenvalues --   -0.37313  -0.37195  -0.37123  -0.36760  -0.36689
 Alpha  occ. eigenvalues --   -0.36235  -0.36142  -0.34325  -0.34178  -0.33821
 Alpha  occ. eigenvalues --   -0.33779  -0.33225  -0.33101  -0.31380  -0.31219
 Alpha  occ. eigenvalues --   -0.31075  -0.30898  -0.30064  -0.29869  -0.29487
 Alpha  occ. eigenvalues --   -0.29357  -0.29260  -0.29136  -0.24120  -0.23960
 Alpha  occ. eigenvalues --   -0.21166  -0.21043
 Alpha virt. eigenvalues --   -0.08812  -0.08719  -0.01788  -0.01612  -0.00097
 Alpha virt. eigenvalues --    0.00038   0.02165   0.02285   0.03073   0.03292
 Alpha virt. eigenvalues --    0.04670   0.04808   0.05048   0.05251   0.06112

 Mulliken charges:
               1
     1  Mg   0.838562
     2  C   -0.003055
     3  C   -0.094312
     4  C   -0.045802
     5  C   -0.063824
     6  N   -0.256771
     7  C   -0.052525
     8  C   -0.013990
     9  C   -0.086972
    10  C    0.046248
    11  C    0.104802
    12  C    0.053535
    13  C   -0.071578
    14  H    0.035527
    15  N   -0.433135
    16  C    0.168368
    17  C   -0.177245
    18  C   -0.003987
    19  C    0.148646
    20  C    0.110200
    21  C    0.012286
    22  O   -0.249521
    23  C    0.062495
    24  N   -0.341102
    25  C    0.041226
    26  C   -0.028210
    27  C   -0.023980
    28  C    0.074800
    29  C    0.076135
    30  C    0.035103
    31  C   -0.004523
    32  N   -0.310505
    33  C    0.080411
    34  C   -0.169550
    35  C    0.008428
    36  C    0.082997
    37  C    0.127274
    38  C    0.046199
    39  O   -0.188230
    40  C   -0.005406
    41  C    0.212957
    42  O   -0.257276
    43  O   -0.304728
    44  C    0.157718
    45  H   -0.017650
    46  H   -0.016757
    47  H   -0.041302
    48  H    0.000990
    49  H   -0.004224
    50  H    0.025543
    51  H    0.016554
    52  H    0.016636
    53  H    0.010971
    54  H    0.043972
    55  H    0.018080
    56  H    0.017798
    57  H    0.005755
    58  H    0.026904
    59  H    0.039341
    60  H    0.037352
    61  H    0.035788
    62  H    0.031344
    63  H    0.016579
    64  H    0.009570
    65  H    0.023281
    66  H    0.012551
    67  H    0.004841
    68  H    0.006431
    69  H    0.004889
    70  H    0.008733
    71  H    0.018235
    72  H    0.028898
    73  H    0.047813
    74  H    0.009257
    75  H    0.046089
    76  H    0.035216
    77  H    0.043109
    78  H    0.046191
    79  H    0.053529
    80  Mg   0.837887
    81  C   -0.016740
    82  C   -0.087776
    83  C   -0.045583
    84  C   -0.064827
    85  N   -0.254562
    86  C   -0.049587
    87  C   -0.015128
    88  C   -0.090565
    89  C    0.045829
    90  C    0.114353
    91  C    0.062551
    92  C   -0.077817
    93  H    0.034675
    94  N   -0.423452
    95  C    0.162875
    96  C   -0.174772
    97  C   -0.007971
    98  C    0.152107
    99  C    0.099469
   100  C    0.015425
   101  O   -0.253331
   102  C    0.061259
   103  N   -0.350022
   104  C    0.037554
   105  C   -0.019833
   106  C   -0.034818
   107  C    0.088998
   108  C    0.073655
   109  C    0.034740
   110  C   -0.007632
   111  N   -0.324169
   112  C    0.078593
   113  C   -0.163051
   114  C    0.002467
   115  C    0.096202
   116  C    0.131440
   117  C    0.042590
   118  O   -0.187580
   119  C    0.000823
   120  C    0.211228
   121  O   -0.251244
   122  O   -0.305392
   123  C    0.152085
   124  H   -0.019840
   125  H   -0.015741
   126  H   -0.040496
   127  H   -0.000195
   128  H   -0.004632
   129  H    0.023349
   130  H    0.014486
   131  H    0.016224
   132  H    0.013716
   133  H    0.037606
   134  H    0.021058
   135  H    0.019363
   136  H    0.008633
   137  H    0.025763
   138  H    0.039544
   139  H    0.038027
   140  H    0.036165
   141  H    0.033832
   142  H    0.014226
   143  H    0.012500
   144  H    0.024964
   145  H    0.011767
   146  H    0.005765
   147  H    0.006150
   148  H    0.003617
   149  H    0.010842
   150  H    0.017808
   151  H    0.030153
   152  H    0.045952
   153  H    0.008346
   154  H    0.047415
   155  H    0.035809
   156  H    0.044075
   157  H    0.049401
   158  H    0.053391
 Sum of Mulliken charges =  -0.00000

 Dipole moment (field-independent basis, Debye):
    X=             -4.2617    Y=             -2.3060    Z=             -7.3813  Tot=              8.8297
 Quadrupole moment (field-independent basis, Debye-Ang):
   XX=           -517.4866   YY=           -547.9996   ZZ=           -451.1463
   XY=              6.1319   XZ=             -1.8018   YZ=            -45.2608

 Normal termination of Gaussian 16 at Sun Sep 12 00:03:37 2021.
