 Gaussian 16, Revision A.03,
 Gaussian 16:  ES64L-G16RevA.03 25-Dec-2016

 -----------------------------------
 #p cam-b3lyp/Def2SVP td=(nstates=5)
 -----------------------------------

 --------------------------------
 TDDFT excited states in gaussian
 --------------------------------
 Symbolic Z-matrix:
 Charge =  0 Multiplicity = 1

                         Standard orientation:
 ---------------------------------------------------------------------
 Center     Atomic      Atomic             Coordinates (Angstroms)
 Number     Number       Type             X           Y           Z
 ---------------------------------------------------------------------
      1         12           0       -3.884805   -0.787689   -0.376380
      2          6           0       -4.416404    1.772633    2.067871
      3          6           0       -4.620656    1.541431   -2.758981
      4          6           0       -3.866848   -3.128806   -2.515416
      5          6           0       -4.308445   -3.114102    2.183697
      6          7           0       -4.431616    1.353014   -0.238424
      7          6           0       -4.542508    2.230138    0.754314
      8          6           0       -4.730570    3.697127    0.264467
      9          6           0       -5.338004    3.404190   -1.180251
     10          6           0       -4.733310    2.032834   -1.424490
     11          6           0       -6.858140    3.279188   -1.188137
     12          6           0       -3.372575    4.470718    0.168873
     13          6           0       -3.495191    5.989544    0.015620
     14          1           0       -2.506850    6.840547    0.660852
     15          7           0       -3.718135   -0.724201   -2.343876
     16          6           0       -4.049581    0.311587   -3.151696
     17          6           0       -3.740789   -0.130413   -4.528636
     18          6           0       -3.381422   -1.574665   -4.473098
     19          6           0       -3.670200   -1.877401   -3.094571
     20          6           0       -3.755743    0.789292   -5.710867
     21          6           0       -2.870374   -2.532848   -5.502101
     22          8           0       -2.844148   -3.795374   -5.302316
     23          6           0       -2.478645   -1.955203   -6.800529
     24          7           0       -4.278366   -2.833584   -0.245770
     25          6           0       -4.141632   -3.631920   -1.310171
     26          6           0       -4.198453   -5.078728   -0.918437
     27          6           0       -4.159668   -5.106409    0.677647
     28          6           0       -4.170179   -3.580275    0.940462
     29          6           0       -5.424854   -5.858241   -1.412715
     30          6           0       -3.049735   -5.961167    1.339356
     31          6           0       -1.695497   -5.348144    1.061256
     32          7           0       -4.114460   -0.718672    1.780826
     33          6           0       -4.299051   -1.808125    2.644361
     34          6           0       -4.513392   -1.257205    3.995144
     35          6           0       -4.454716    0.123949    3.819605
     36          6           0       -4.244846    0.417808    2.441964
     37          6           0       -4.784968   -2.012686    5.169848
     38          6           0       -4.545067    1.420373    4.471509
     39          8           0       -4.621574    1.799407    5.641112
     40          6           0       -4.645536    2.541644    3.345238
     41          6           0       -3.666380    3.628277    3.697077
     42          8           0       -2.437040    3.415512    3.668421
     43          8           0       -4.313926    4.800660    3.779194
     44          6           0       -3.394833    5.926144    4.096537
     45          1           0       -5.060883    2.120050   -3.573439
     46          1           0       -3.758076   -3.970833   -3.202145
     47          1           0       -4.363178   -3.781329    3.045825
     48          1           0       -5.435194    4.285749    0.852219
     49          1           0       -4.978799    4.114724   -1.924452
     50          1           0       -7.263523    3.283873   -0.176424
     51          1           0       -7.069485    2.328751   -1.678541
     52          1           0       -7.306734    4.047705   -1.818154
     53          1           0       -2.886160    4.227600   -0.775773
     54          1           0       -2.738724    4.244966    1.027124
     55          1           0       -4.503975    6.333248    0.246124
     56          1           0       -3.357886    6.238836   -1.036616
     57          1           0       -4.216811    1.745907   -5.468279
     58          1           0       -4.422356    0.346264   -6.450504
     59          1           0       -2.763028    0.919641   -6.141981
     60          1           0       -3.335921   -1.445773   -7.241104
     61          1           0       -2.054586   -2.775316   -7.378835
     62          1           0       -1.720492   -1.189823   -6.632161
     63          1           0       -3.338232   -5.622910   -1.306139
     64          1           0       -5.084740   -5.496758    1.102550
     65          1           0       -5.174589   -6.736845   -2.007800
     66          1           0       -6.056244   -5.171473   -1.975732
     67          1           0       -6.106102   -6.184501   -0.627302
     68          1           0       -3.040658   -6.964771    0.915513
     69          1           0       -3.167103   -6.058051    2.418749
     70          1           0       -1.448965   -5.739664    0.074967
     71          1           0       -0.968947   -5.677452    1.804823
     72          1           0       -1.759822   -4.263333    0.974466
     73          1           0       -4.174650   -1.576805    5.960726
     74          1           0       -4.551663   -3.067310    5.025139
     75          1           0       -5.854033   -1.833189    5.282712
     76          1           0       -5.674394    2.900172    3.350747
     77          1           0       -3.780282    6.412378    4.992774
     78          1           0       -3.315108    6.526176    3.189889
     79          1           0       -2.392309    5.651454    4.426430
     80         12           0        4.004039   -0.493430    0.386028
     81          6           0        3.959021    2.101032   -2.093045
     82          6           0        4.938629    1.886198    2.644029
     83          6           0        4.489949   -2.820311    2.487684
     84          6           0        4.191678   -2.793860   -2.225188
     85          7           0        4.368408    1.678577    0.181376
     86          6           0        4.260230    2.565998   -0.795923
     87          6           0        4.408616    4.043201   -0.342690
     88          6           0        5.263719    3.799696    0.994610
     89          6           0        4.807456    2.379192    1.321206
     90          6           0        6.763965    3.775956    0.753680
     91          6           0        3.025491    4.713086   -0.026081
     92          6           0        3.067371    6.235545    0.122709
     93          1           0        1.924594    7.012689   -0.349092
     94          7           0        4.142715   -0.428528    2.364704
     95          6           0        4.515449    0.625817    3.120150
     96          6           0        4.475591    0.156333    4.513766
     97          6           0        4.208342   -1.307652    4.508088
     98          6           0        4.292469   -1.585468    3.088287
     99          6           0        4.601694    1.082540    5.688352
    100          6           0        3.936372   -2.296562    5.600921
    101          8           0        3.968476   -3.560219    5.388864
    102          6           0        3.723501   -1.744341    6.946736
    103          7           0        4.510973   -2.498851    0.177156
    104          6           0        4.607976   -3.302827    1.250527
    105          6           0        4.709775   -4.752212    0.839025
    106          6           0        4.416454   -4.774129   -0.732932
    107          6           0        4.277727   -3.256811   -0.985654
    108          6           0        6.051846   -5.429546    1.115534
    109          6           0        3.279856   -5.712175   -1.223745
    110          6           0        1.944298   -5.209769   -0.724471
    111          7           0        3.880541   -0.413085   -1.769503
    112          6           0        4.011205   -1.491152   -2.672146
    113          6           0        3.968713   -0.924748   -4.035891
    114          6           0        3.838363    0.456973   -3.830131
    115          6           0        3.822481    0.734219   -2.436439
    116          6           0        4.094938   -1.661774   -5.247087
    117          6           0        3.721279    1.745038   -4.475005
    118          8           0        3.591841    2.125823   -5.637755
    119          6           0        3.921385    2.878858   -3.379197
    120          6           0        2.823409    3.892090   -3.553343
    121          8           0        1.637631    3.581506   -3.343410
    122          8           0        3.370340    5.109253   -3.725861
    123          6           0        2.320802    6.149778   -3.891962
    124          1           0        5.452166    2.505512    3.379978
    125          1           0        4.552226   -3.671656    3.169451
    126          1           0        4.145547   -3.454856   -3.093314
    127          1           0        4.961283    4.675150   -1.027512
    128          1           0        4.967375    4.486207    1.783429
    129          1           0        7.003568    3.809048   -0.298766
    130          1           0        7.117955    2.852732    1.193443
    131          1           0        7.248376    4.581419    1.313064
    132          1           0        2.716319    4.433520    0.989299
    133          1           0        2.293510    4.441909   -0.761797
    134          1           0        4.004420    6.661131   -0.256453
    135          1           0        3.073521    6.480093    1.187681
    136          1           0        4.955109    2.074840    5.382022
    137          1           0        5.406423    0.690563    6.319713
    138          1           0        3.685174    1.140476    6.279369
    139          1           0        4.598477   -1.171486    7.244583
    140          1           0        3.455657   -2.597128    7.573537
    141          1           0        2.884828   -1.040277    6.907376
    142          1           0        3.962126   -5.351129    1.344409
    143          1           0        5.293158   -5.109362   -1.306372
    144          1           0        5.962386   -6.334523    1.745687
    145          1           0        6.709838   -4.706736    1.579373
    146          1           0        6.614361   -5.718842    0.229491
    147          1           0        3.409709   -6.714280   -0.807743
    148          1           0        3.239902   -5.814237   -2.303094
    149          1           0        1.891431   -5.615988    0.290060
    150          1           0        1.135508   -5.590665   -1.344790
    151          1           0        1.940677   -4.116640   -0.642471
    152          1           0        3.344963   -1.276983   -5.925292
    153          1           0        3.968964   -2.729151   -5.077946
    154          1           0        5.121900   -1.408364   -5.523485
    155          1           0        4.909022    3.314544   -3.535160
    156          1           0        2.526893    6.663607   -4.835989
    157          1           0        2.355152    6.758735   -2.969068
    158          1           0        1.302916    5.813907   -4.051809
 ---------------------------------------------------------------------

 SCF Done:  E(RCAM-B3LYP) =  -4069.81295096     A.U. after   18 cycles

 Excitation energies and oscillator strengths:

 Excited State   1:      Singlet-A      1.6401 eV  755.94 nm  f=0.0097  <S**2>=0.000
     309 -> 315        0.12111
     310 -> 316        0.11139
     311 -> 313        0.50652
     312 -> 314        0.46594
 This state for optimization and/or second-order correction.
 Total Energy, E(TD-HF/TD-DFT) =  -4069.75267706
 Copying the excited state density for this state as the 1-particle RhoCI density.

 Excited State   2:      Singlet-A      1.7102 eV  724.96 nm  f=0.6750  <S**2>=0.000
     309 -> 315       -0.12353
     310 -> 316        0.13454
     311 -> 313       -0.46297
     312 -> 314        0.50331

 Excited State   3:      Singlet-A      2.1816 eV  568.32 nm  f=0.0116  <S**2>=0.000
     309 -> 313        0.54843
     310 -> 314       -0.34035
     311 -> 315       -0.22769
     312 -> 316        0.14007

 Excited State   4:      Singlet-A      2.1984 eV  563.97 nm  f=0.1584  <S**2>=0.000
     309 -> 313        0.33558
     310 -> 314        0.54300
     311 -> 315       -0.14922
     312 -> 316       -0.23992

 Excited State   5:      Singlet-A      2.3530 eV  526.92 nm  f=0.0000  <S**2>=0.000
     312 -> 313        0.70707

 The electronic state is 1-A.
 Alpha  occ. eigenvalues --  -46.87485 -46.87467 -19.26439 -19.26197 -19.19238
 Alpha  occ. eigenvalues --  -19.18912 -19.18507 -19.18471 -19.17999 -19.17934
 Alpha  occ. eigenvalues --  -14.42319 -14.42120 -14.41194 -14.41134 -14.39164
 Alpha  occ. eigenvalues --  -14.39056 -14.38445 -14.38276 -10.39150 -10.38959
 Alpha  occ. eigenvalues --  -10.35178 -10.35097 -10.34180 -10.34159 -10.31915
 Alpha  occ. eigenvalues --  -10.31662 -10.31160 -10.31098 -10.30843 -10.30568
 Alpha  occ. eigenvalues --  -10.30250 -10.30242 -10.30206 -10.30205 -10.29944
 Alpha  occ. eigenvalues --  -10.29868 -10.29758 -10.29650 -10.29311 -10.29239
 Alpha  occ. eigenvalues --  -10.29235 -10.28899 -10.28572 -10.28567 -10.28448
 Alpha  occ. eigenvalues --  -10.28329 -10.28243 -10.28036 -10.27987 -10.27842
 Alpha  occ. eigenvalues --  -10.27810 -10.27485 -10.27465 -10.27385 -10.27355
 Alpha  occ. eigenvalues --  -10.27332 -10.27282 -10.27240 -10.27238 -10.27235
 Alpha  occ. eigenvalues --  -10.27216 -10.27170 -10.27100 -10.27004 -10.26962
 Alpha  occ. eigenvalues --  -10.26943 -10.26515 -10.26367 -10.26123 -10.25973
 Alpha  occ. eigenvalues --  -10.25963 -10.25954 -10.25933 -10.25903 -10.25763
 Alpha  occ. eigenvalues --  -10.25754 -10.25698 -10.25600 -10.25284 -10.25230
 Alpha  occ. eigenvalues --  -10.24731 -10.24535 -10.24530 -10.24526 -10.24486
 Alpha  occ. eigenvalues --  -10.24426  -3.16234  -3.16209  -1.91116  -1.91091
 Alpha  occ. eigenvalues --   -1.90705  -1.90677  -1.90542  -1.90519  -1.16728
 Alpha  occ. eigenvalues --   -1.16539  -1.08628  -1.08410  -1.07018  -1.06876
 Alpha  occ. eigenvalues --   -1.06759  -1.06533  -1.04324  -1.04254  -1.03492
 Alpha  occ. eigenvalues --   -1.03444  -1.02909  -1.02872  -1.02093  -1.01949
 Alpha  occ. eigenvalues --   -0.91863  -0.91687  -0.89335  -0.89234  -0.88999
 Alpha  occ. eigenvalues --   -0.88885  -0.88065  -0.88013  -0.87661  -0.87577
 Alpha  occ. eigenvalues --   -0.87515  -0.87347  -0.86895  -0.86879  -0.84849
 Alpha  occ. eigenvalues --   -0.84683  -0.83737  -0.83682  -0.82726  -0.82611
 Alpha  occ. eigenvalues --   -0.82490  -0.82344  -0.81547  -0.81377  -0.80327
 Alpha  occ. eigenvalues --   -0.80316  -0.78446  -0.78436  -0.76987  -0.76920
 Alpha  occ. eigenvalues --   -0.76798  -0.76687  -0.75731  -0.75664  -0.74677
 Alpha  occ. eigenvalues --   -0.74636  -0.72544  -0.72467  -0.71445  -0.71390
 Alpha  occ. eigenvalues --   -0.69677  -0.69553  -0.68681  -0.68574  -0.67459
 Alpha  occ. eigenvalues --   -0.67342  -0.67027  -0.66900  -0.65141  -0.64997
 Alpha  occ. eigenvalues --   -0.64653  -0.64587  -0.64529  -0.64351  -0.64058
 Alpha  occ. eigenvalues --   -0.63982  -0.62243  -0.62109  -0.60146  -0.60092
 Alpha  occ. eigenvalues --   -0.59642  -0.59496  -0.58854  -0.58700  -0.58303
 Alpha  occ. eigenvalues --   -0.58220  -0.57515  -0.57373  -0.57088  -0.57026
 Alpha  occ. eigenvalues --   -0.56078  -0.56019  -0.55837  -0.55787  -0.55323
 Alpha  occ. eigenvalues --   -0.55198  -0.55146  -0.55108  -0.54414  -0.54316
 Alpha  occ. eigenvalues --   -0.53764  -0.53597  -0.53082  -0.53017  -0.53003
 Alpha  occ. eigenvalues --   -0.52907  -0.52786  -0.52663  -0.52444  -0.52376
 Alpha  occ. eigenvalues --   -0.52236  -0.52173  -0.51789  -0.51654  -0.51496
 Alpha  occ. eigenvalues --   -0.51297  -0.51093  -0.50933  -0.50226  -0.50142
 Alpha  occ. eigenvalues --   -0.49802  -0.49728  -0.49700  -0.49578  -0.49325
 Alpha  occ. eigenvalues --   -0.49210  -0.49067  -0.48994  -0.48921  -0.48826
 Alpha  occ. eigenvalues --   -0.48468  -0.48353  -0.48276  -0.48221  -0.48149
 Alpha  occ. eigenvalues --   -0.48110  -0.47450  -0.47391  -0.46979  -0.46953
 Alpha  occ. eigenvalues --   -0.46572  -0.46504  -0.46408  -0.46274  -0.46130
 Alpha  occ. eigenvalues --   -0.46055  -0.45970  -0.45904  -0.45755  -0.45603
 Alpha  occ. eigenvalues --   -0.45077  -0.44930  -0.44424  -0.44339  -0.44324
 Alpha  occ. eigenvalues --   -0.44184  -0.44024  -0.43934  -0.43864  -0.43818
 Alpha  occ. eigenvalues --   -0.43760  -0.43702  -0.43521  -0.43283  -0.43254
 Alpha  occ. eigenvalues --   -0.43093  -0.42922  -0.42784  -0.42750  -0.42553
 Alpha  occ. eigenvalues --   -0.42423  -0.42347  -0.41821  -0.41734  -0.41556
 Alpha  occ. eigenvalues --   -0.41429  -0.41313  -0.41251  -0.40859  -0.40851
 Alpha  occ. eigenvalues --   -0.40589  -0.40560  -0.40503  -0.40472  -0.40346
 Alpha  occ. eigenvalues --   -0.40306  -0.40049  -0.39912  -0.39417  -0.38997
 Alpha  occ. eigenvalues --   -0.38200  -0.38196  -0.37526  -0.37471  -0.37119
 Alpha  occ. eigenvalues --   -0.37050  -0.37021  -0.36961  -0.36793  -0.36558
 Alpha  occ. eigenvalues --   -0.36098  -0.35952  -0.34112  -0.33980  -0.33892
 Alpha  occ. eigenvalues --   -0.33627  -0.33016  -0.32876  -0.31073  -0.31008
 Alpha  occ. eigenvalues --   -0.30816  -0.30729  -0.29912  -0.29803  -0.29155
 Alpha  occ. eigenvalues --   -0.29111  -0.29054  -0.28999  -0.23873  -0.23764
 Alpha  occ. eigenvalues --   -0.20945  -0.20801
 Alpha virt. eigenvalues --   -0.08622  -0.08440  -0.01509  -0.01427   0.00157
 Alpha virt. eigenvalues --    0.00288   0.02304   0.02434   0.02530   0.04535
 Alpha virt. eigenvalues --    0.04827   0.05021   0.05124   0.05238   0.06019

 Mulliken charges:
               1
     1  Mg   0.839979
     2  C   -0.003068
     3  C   -0.089841
     4  C   -0.046734
     5  C   -0.064009
     6  N   -0.256872
     7  C   -0.052516
     8  C   -0.014408
     9  C   -0.087753
    10  C    0.047728
    11  C    0.104908
    12  C    0.051972
    13  C   -0.070433
    14  H    0.031930
    15  N   -0.433602
    16  C    0.171243
    17  C   -0.173500
    18  C   -0.003039
    19  C    0.149446
    20  C    0.109987
    21  C    0.012731
    22  O   -0.251762
    23  C    0.060916
    24  N   -0.341215
    25  C    0.041869
    26  C   -0.028230
    27  C   -0.023595
    28  C    0.074075
    29  C    0.076562
    30  C    0.036381
    31  C   -0.008156
    32  N   -0.310123
    33  C    0.079512
    34  C   -0.170684
    35  C    0.007362
    36  C    0.082207
    37  C    0.127695
    38  C    0.044836
    39  O   -0.191025
    40  C   -0.005141
    41  C    0.212752
    42  O   -0.258479
    43  O   -0.304366
    44  C    0.158651
    45  H   -0.017766
    46  H   -0.017901
    47  H   -0.042252
    48  H   -0.000427
    49  H   -0.002989
    50  H    0.024834
    51  H    0.016359
    52  H    0.016114
    53  H    0.018360
    54  H    0.042824
    55  H    0.016837
    56  H    0.018541
    57  H    0.005947
    58  H    0.025129
    59  H    0.046933
    60  H    0.036966
    61  H    0.034010
    62  H    0.037342
    63  H    0.015253
    64  H    0.008854
    65  H    0.022241
    66  H    0.012587
    67  H    0.004403
    68  H    0.004508
    69  H    0.004493
    70  H    0.009268
    71  H    0.021125
    72  H    0.029193
    73  H    0.045822
    74  H    0.009103
    75  H    0.045142
    76  H    0.034613
    77  H    0.042087
    78  H    0.046584
    79  H    0.051330
    80  Mg   0.839113
    81  C   -0.017147
    82  C   -0.085628
    83  C   -0.045654
    84  C   -0.064304
    85  N   -0.254749
    86  C   -0.049691
    87  C   -0.015592
    88  C   -0.091016
    89  C    0.047014
    90  C    0.114421
    91  C    0.061671
    92  C   -0.076880
    93  H    0.031533
    94  N   -0.423843
    95  C    0.165370
    96  C   -0.172645
    97  C   -0.006640
    98  C    0.152780
    99  C    0.099334
   100  C    0.016487
   101  O   -0.254157
   102  C    0.060087
   103  N   -0.350038
   104  C    0.037942
   105  C   -0.019983
   106  C   -0.034760
   107  C    0.088122
   108  C    0.073894
   109  C    0.036546
   110  C   -0.013101
   111  N   -0.323815
   112  C    0.077877
   113  C   -0.164048
   114  C    0.000797
   115  C    0.095797
   116  C    0.132126
   117  C    0.040651
   118  O   -0.191127
   119  C    0.001354
   120  C    0.210791
   121  O   -0.252730
   122  O   -0.304965
   123  C    0.153126
   124  H   -0.019646
   125  H   -0.015957
   126  H   -0.040397
   127  H   -0.001810
   128  H   -0.003495
   129  H    0.021935
   130  H    0.014425
   131  H    0.016018
   132  H    0.019156
   133  H    0.036599
   134  H    0.019900
   135  H    0.020607
   136  H    0.008850
   137  H    0.025285
   138  H    0.044225
   139  H    0.037755
   140  H    0.035870
   141  H    0.037932
   142  H    0.013943
   143  H    0.011983
   144  H    0.024609
   145  H    0.011554
   146  H    0.005478
   147  H    0.004781
   148  H    0.004059
   149  H    0.011263
   150  H    0.023584
   151  H    0.029968
   152  H    0.043042
   153  H    0.009711
   154  H    0.046327
   155  H    0.034729
   156  H    0.043133
   157  H    0.050182
   158  H    0.050429
 Sum of Mulliken charges =  -0.00000

 Dipole moment (field-independent basis, Debye):
    X=              0.5644    Y=              3.2233    Z=             -0.5330  Tot=              3.3154
 Quadrupole moment (field-independent basis, Debye-Ang):
   XX=           -488.8617   YY=           -462.5042   ZZ=           -539.6007
   XY=              3.3789   XZ=             30.6030   YZ=              1.0106

 Normal termination of Gaussian 16 at Wed Sep  8 18:42:51 2021.
