 Gaussian 16, Revision A.03,
 Gaussian 16:  ES64L-G16RevA.03 25-Dec-2016

 -----------------------------------
 #p cam-b3lyp/Def2SVP td=(nstates=5)
 -----------------------------------

 --------------------------------
 TDDFT excited states in gaussian
 --------------------------------
 Symbolic Z-matrix:
 Charge =  0 Multiplicity = 1

                         Standard orientation:
 ---------------------------------------------------------------------
 Center     Atomic      Atomic             Coordinates (Angstroms)
 Number     Number       Type             X           Y           Z
 ---------------------------------------------------------------------
      1         12           0        6.301375   -0.996816    0.258466
      2          6           0        6.723884    2.081878   -1.517861
      3          6           0        7.165328    0.693114    3.094094
      4          6           0        6.377850   -3.785350    1.766728
      5          6           0        6.586725   -2.632833   -2.805467
      6          7           0        6.851035    1.117734    0.615110
      7          6           0        6.916963    2.209458   -0.140513
      8          6           0        7.136090    3.516014    0.679406
      9          6           0        7.812763    2.887206    1.978910
     10          6           0        7.214262    1.493109    1.913990
     11          6           0        9.330809    2.775038    1.881674
     12          6           0        5.788232    4.233730    1.025665
     13          6           0        5.925609    5.671415    1.535119
     14          1           0        4.910709    6.645874    1.163965
     15          7           0        6.232459   -1.411657    2.188753
     16          6           0        6.608426   -0.599285    3.205605
     17          6           0        6.365933   -1.363018    4.448420
     18          6           0        5.997288   -2.753660    4.063312
     19          6           0        6.216114   -2.712352    2.640010
     20          6           0        6.443742   -0.756023    5.815626
     21          6           0        5.533098   -3.935704    4.854154
     22          8           0        5.490931   -5.112746    4.356792
     23          6           0        5.208816   -3.691651    6.271306
     24          7           0        6.678112   -2.947671   -0.381744
     25          6           0        6.590297   -3.980439    0.463634
     26          6           0        6.620697   -5.289334   -0.268354
     27          6           0        6.502941   -4.930952   -1.819950
     28          6           0        6.507823   -3.386490   -1.706447
     29          6           0        7.866249   -6.156231   -0.037916
     30          6           0        5.357545   -5.608602   -2.613219
     31          6           0        4.021684   -5.090752   -2.129066
     32          7           0        6.424463   -0.407117   -1.826756
     33          6           0        6.560884   -1.254360   -2.935919
     34          6           0        6.710861   -0.391939   -4.122428
     35          6           0        6.667606    0.905456   -3.615732
     36          6           0        6.527503    0.856321   -2.199311
     37          6           0        6.920394   -0.839315   -5.456738
     38          6           0        6.731889    2.321577   -3.938728
     39          8           0        6.752326    2.972443   -4.984409
     40          6           0        6.893315    3.138301   -2.581256
     41          6           0        5.903227    4.270606   -2.611596
     42          8           0        4.675793    4.048302   -2.574837
     43          8           0        6.551580    5.432778   -2.439736
     44          6           0        5.623374    6.594887   -2.430210
     45          1           0        7.648061    1.061052    4.001580
     46          1           0        6.299086   -4.769086    2.234164
     47          1           0        6.595558   -3.071647   -3.804876
     48          1           0        7.813639    4.234274    0.217396
     49          1           0        7.494215    3.394317    2.889453
     50          1           0        9.685713    3.026901    0.882409
     51          1           0        9.561540    1.735850    2.116927
     52          1           0        9.813701    3.371858    2.655882
     53          1           0        5.347931    3.766113    1.906307
     54          1           0        5.111654    4.217373    0.170504
     55          1           0        6.923416    6.067933    1.345214
     56          1           0        5.841684    5.658161    2.621848
     57          1           0        6.896873    0.234183    5.788999
     58          1           0        7.143948   -1.359737    6.392645
     59          1           0        5.474189   -0.740877    6.313692
     60          1           0        6.089271   -3.297514    6.779247
     61          1           0        4.809900   -4.630223    6.654449
     62          1           0        4.446975   -2.913790    6.330300
     63          1           0        5.778070   -5.917279    0.018162
     64          1           0        7.403987   -5.200384   -2.371491
     65          1           0        7.641459   -7.154352    0.338819
     66          1           0        8.528003   -5.621227    0.642629
     67          1           0        8.506262   -6.278165   -0.911377
     68          1           0        5.364579   -6.684904   -2.444490
     69          1           0        5.420952   -5.441042   -3.688465
     70          1           0        3.822310   -5.710690   -1.255706
     71          1           0        3.257690   -5.235970   -2.893550
     72          1           0        4.095459   -4.058588   -1.786020
     73          1           0        6.273847   -0.229751   -6.087910
     74          1           0        6.689434   -1.899329   -5.559838
     75          1           0        7.983429   -0.630116   -5.575270
     76          1           0        7.922364    3.495003   -2.550517
     77          1           0        5.966401    7.285989   -3.200239
     78          1           0        5.591456    6.957561   -1.402662
     79          1           0        4.604455    6.400744   -2.767035
     80         12           0       -6.906062   -0.313281   -0.209400
     81          6           0       -4.325403    2.052604    0.579213
     82          6           0       -9.119554    1.848029    1.227180
     83          6           0       -9.127200   -2.562559   -0.482656
     84          6           0       -4.407743   -2.722029   -0.528801
     85          7           0       -6.636412    1.664005    0.744482
     86          6           0       -5.618883    2.491059    0.931500
     87          6           0       -6.019984    3.896113    1.455421
     88          6           0       -7.417275    3.506077    2.144144
     89          6           0       -7.772114    2.282771    1.301377
     90          6           0       -7.272430    3.063774    3.590770
     91          6           0       -6.221346    4.931980    0.294191
     92          6           0       -6.310312    6.392195    0.743238
     93          1           0       -5.736235    7.421680   -0.118772
     94          7           0       -8.885238   -0.176930   -0.156324
     95          6           0       -9.619062    0.778071    0.452570
     96          6           0      -11.025375    0.416195    0.217007
     97          6           0      -11.062548   -0.918783   -0.439639
     98          6           0       -9.663364   -1.288544   -0.364528
     99          6           0      -12.166848    1.338400    0.533217
    100          6           0      -12.175481   -1.734000   -1.025299
    101          8           0      -12.017535   -2.969074   -1.329394
    102          6           0      -13.481601   -1.069843   -1.145418
    103          7           0       -6.811394   -2.389528   -0.260281
    104          6           0       -7.920624   -3.127942   -0.439981
    105          6           0       -7.575753   -4.571600   -0.718012
    106          6           0       -5.990643   -4.601887   -0.928020
    107          6           0       -5.668071   -3.120374   -0.634015
    108          6           0       -7.963568   -5.570102    0.372395
    109          6           0       -5.467885   -5.223521   -2.252021
    110          6           0       -5.861210   -4.351190   -3.422375
    111          7           0       -4.745537   -0.324122   -0.199430
    112          6           0       -3.897603   -1.446419   -0.323953
    113          6           0       -2.511939   -0.967432   -0.142474
    114          6           0       -2.652611    0.407334    0.099821
    115          6           0       -4.030078    0.756621    0.091400
    116          6           0       -1.342137   -1.778162   -0.162777
    117          6           0       -1.949691    1.640568    0.371359
    118          8           0       -0.766543    1.976016    0.408623
    119          6           0       -3.008814    2.737841    0.819311
    120          6           0       -2.724752    3.998866    0.050136
    121          8           0       -2.872098    4.033044   -1.184252
    122          8           0       -2.537545    5.010905    0.916803
    123          6           0       -2.263447    6.285519    0.201221
    124          1           0       -9.860523    2.345744    1.853384
    125          1           0       -9.845666   -3.359176   -0.689276
    126          1           0       -3.566091   -3.393716   -0.710851
    127          1           0       -5.346133    4.315318    2.192962
    128          1           0       -8.157243    4.290496    2.008099
    129          1           0       -6.236682    2.971432    3.882050
    130          1           0       -7.770859    2.105514    3.656702
    131          1           0       -7.827911    3.738310    4.248619
    132          1           0       -7.225795    4.804172   -0.129467
    133          1           0       -5.452673    4.827958   -0.446710
    134          1           0       -5.973857    6.526302    1.778500
    135          1           0       -7.362705    6.685571    0.763302
    136          1           0      -11.843197    2.179164    1.159125
    137          1           0      -12.863060    0.779524    1.167889
    138          1           0      -12.696153    1.675372   -0.360635
    139          1           0      -13.810355   -0.739267   -0.163015
    140          1           0      -14.124536   -1.781621   -1.666838
    141          1           0      -13.360867   -0.168502   -1.756667
    142          1           0       -8.057044   -4.916421   -1.624960
    143          1           0       -5.487661   -5.193591   -0.149095
    144          1           0       -8.623183   -6.380107    0.007895
    145          1           0       -8.438049   -5.027345    1.179120
    146          1           0       -7.127205   -6.050262    0.877524
    147          1           0       -5.931731   -6.198290   -2.421787
    148          1           0       -4.393222   -5.371627   -2.264905
    149          1           0       -6.886110   -4.670108   -3.634393
    150          1           0       -5.207243   -4.533373   -4.272769
    151          1           0       -5.898214   -3.295041   -3.131094
    152          1           0       -0.602943   -1.243650   -0.744500
    153          1           0       -1.546360   -2.760344   -0.583934
    154          1           0       -1.120839   -1.828059    0.906716
    155          1           0       -2.897699    2.880542    1.894883
    156          1           0       -1.314110    6.670373    0.586363
    157          1           0       -3.161091    6.913479    0.355033
    158          1           0       -2.053656    6.229141   -0.860501
 ---------------------------------------------------------------------

 SCF Done:  E(RCAM-B3LYP) =  -4069.81084945     A.U. after   19 cycles

 Excitation energies and oscillator strengths:

 Excited State   1:      Singlet-A      1.6749 eV  740.26 nm  f=0.4006  <S**2>=0.000
     309 -> 315        0.16641
     311 -> 313        0.65844
     312 -> 314       -0.19270
     309 <- 315        0.10036
 This state for optimization and/or second-order correction.
 Total Energy, E(TD-HF/TD-DFT) =  -4069.74929899
 Copying the excited state density for this state as the 1-particle RhoCI density.

 Excited State   2:      Singlet-A      1.6801 eV  737.95 nm  f=0.3888  <S**2>=0.000
     310 -> 316        0.16771
     311 -> 313        0.19272
     312 -> 314        0.65806
     310 <- 316        0.10034

 Excited State   3:      Singlet-A      2.1841 eV  567.67 nm  f=0.0103  <S**2>=0.000
     309 -> 313        0.54253
     310 -> 314       -0.34598
     311 -> 315       -0.22926
     312 -> 316        0.14563

 Excited State   4:      Singlet-A      2.1918 eV  565.67 nm  f=0.1753  <S**2>=0.000
     309 -> 313        0.34400
     310 -> 314        0.54000
     311 -> 315       -0.14900
     312 -> 316       -0.23474

 Excited State   5:      Singlet-A      2.5936 eV  478.04 nm  f=0.0000  <S**2>=0.000
     312 -> 313        0.70637

 The electronic state is 1-A.
 Alpha  occ. eigenvalues --  -46.87547 -46.87428 -19.26186 -19.25855 -19.18965
 Alpha  occ. eigenvalues --  -19.18613 -19.18536 -19.18531 -19.17871 -19.17809
 Alpha  occ. eigenvalues --  -14.42390 -14.42085 -14.41247 -14.41113 -14.39239
 Alpha  occ. eigenvalues --  -14.39046 -14.38478 -14.38219 -10.38908 -10.38607
 Alpha  occ. eigenvalues --  -10.35292 -10.35174 -10.34052 -10.34024 -10.31607
 Alpha  occ. eigenvalues --  -10.31293 -10.31193 -10.31038 -10.30920 -10.30542
 Alpha  occ. eigenvalues --  -10.30276 -10.30236 -10.30210 -10.30166 -10.30041
 Alpha  occ. eigenvalues --  -10.29901 -10.29777 -10.29598 -10.29329 -10.29294
 Alpha  occ. eigenvalues --  -10.29279 -10.28922 -10.28628 -10.28573 -10.28356
 Alpha  occ. eigenvalues --  -10.28286 -10.28138 -10.28054 -10.28003 -10.27874
 Alpha  occ. eigenvalues --  -10.27755 -10.27562 -10.27452 -10.27420 -10.27380
 Alpha  occ. eigenvalues --  -10.27373 -10.27369 -10.27349 -10.27278 -10.27257
 Alpha  occ. eigenvalues --  -10.27251 -10.27204 -10.27181 -10.27042 -10.26908
 Alpha  occ. eigenvalues --  -10.26774 -10.26593 -10.26330 -10.26218 -10.26170
 Alpha  occ. eigenvalues --  -10.26042 -10.25988 -10.25964 -10.25922 -10.25822
 Alpha  occ. eigenvalues --  -10.25697 -10.25696 -10.25537 -10.25312 -10.25217
 Alpha  occ. eigenvalues --  -10.24742 -10.24628 -10.24576 -10.24513 -10.24483
 Alpha  occ. eigenvalues --  -10.24459  -3.16296  -3.16168  -1.91179  -1.91048
 Alpha  occ. eigenvalues --   -1.90767  -1.90637  -1.90604  -1.90479  -1.16473
 Alpha  occ. eigenvalues --   -1.16195  -1.08472  -1.08260  -1.06943  -1.06867
 Alpha  occ. eigenvalues --   -1.06754  -1.06166  -1.04385  -1.04217  -1.03551
 Alpha  occ. eigenvalues --   -1.03421  -1.02924  -1.02886  -1.02064  -1.01995
 Alpha  occ. eigenvalues --   -0.91861  -0.91609  -0.89384  -0.89232  -0.89059
 Alpha  occ. eigenvalues --   -0.88811  -0.88116  -0.88005  -0.87661  -0.87575
 Alpha  occ. eigenvalues --   -0.87534  -0.87320  -0.87014  -0.86960  -0.84899
 Alpha  occ. eigenvalues --   -0.84618  -0.83769  -0.83671  -0.82832  -0.82692
 Alpha  occ. eigenvalues --   -0.82550  -0.82305  -0.81464  -0.81222  -0.80322
 Alpha  occ. eigenvalues --   -0.80248  -0.78521  -0.78473  -0.77041  -0.76904
 Alpha  occ. eigenvalues --   -0.76790  -0.76587  -0.75727  -0.75574  -0.74697
 Alpha  occ. eigenvalues --   -0.74612  -0.72582  -0.72444  -0.71474  -0.71344
 Alpha  occ. eigenvalues --   -0.69661  -0.69656  -0.68724  -0.68525  -0.67483
 Alpha  occ. eigenvalues --   -0.67307  -0.67099  -0.66844  -0.65164  -0.64914
 Alpha  occ. eigenvalues --   -0.64654  -0.64536  -0.64510  -0.64280  -0.64094
 Alpha  occ. eigenvalues --   -0.63970  -0.62141  -0.61925  -0.60232  -0.60134
 Alpha  occ. eigenvalues --   -0.59694  -0.59439  -0.58876  -0.58650  -0.58303
 Alpha  occ. eigenvalues --   -0.58165  -0.57405  -0.57208  -0.57119  -0.56982
 Alpha  occ. eigenvalues --   -0.56084  -0.55979  -0.55755  -0.55593  -0.55335
 Alpha  occ. eigenvalues --   -0.55204  -0.55127  -0.55034  -0.54361  -0.54186
 Alpha  occ. eigenvalues --   -0.53815  -0.53516  -0.53114  -0.53027  -0.52985
 Alpha  occ. eigenvalues --   -0.52877  -0.52775  -0.52572  -0.52560  -0.52439
 Alpha  occ. eigenvalues --   -0.52294  -0.52183  -0.51740  -0.51585  -0.51555
 Alpha  occ. eigenvalues --   -0.51251  -0.51071  -0.50859  -0.50380  -0.50289
 Alpha  occ. eigenvalues --   -0.49882  -0.49770  -0.49765  -0.49603  -0.49383
 Alpha  occ. eigenvalues --   -0.49174  -0.49084  -0.48986  -0.48871  -0.48750
 Alpha  occ. eigenvalues --   -0.48431  -0.48262  -0.48251  -0.48217  -0.48167
 Alpha  occ. eigenvalues --   -0.48124  -0.47484  -0.47372  -0.47010  -0.46980
 Alpha  occ. eigenvalues --   -0.46599  -0.46478  -0.46454  -0.46184  -0.46154
 Alpha  occ. eigenvalues --   -0.46035  -0.45962  -0.45827  -0.45687  -0.45473
 Alpha  occ. eigenvalues --   -0.45104  -0.44922  -0.44400  -0.44361  -0.44231
 Alpha  occ. eigenvalues --   -0.44205  -0.44017  -0.43966  -0.43850  -0.43820
 Alpha  occ. eigenvalues --   -0.43746  -0.43678  -0.43426  -0.43272  -0.43142
 Alpha  occ. eigenvalues --   -0.43051  -0.42803  -0.42756  -0.42695  -0.42449
 Alpha  occ. eigenvalues --   -0.42415  -0.42275  -0.41857  -0.41703  -0.41535
 Alpha  occ. eigenvalues --   -0.41363  -0.41358  -0.41178  -0.40882  -0.40812
 Alpha  occ. eigenvalues --   -0.40625  -0.40602  -0.40547  -0.40523  -0.40389
 Alpha  occ. eigenvalues --   -0.40272  -0.40135  -0.39819  -0.39324  -0.39204
 Alpha  occ. eigenvalues --   -0.38251  -0.38180  -0.37554  -0.37364  -0.37159
 Alpha  occ. eigenvalues --   -0.37091  -0.37015  -0.36882  -0.36613  -0.36325
 Alpha  occ. eigenvalues --   -0.36092  -0.35818  -0.34135  -0.33933  -0.33680
 Alpha  occ. eigenvalues --   -0.33304  -0.33056  -0.32827  -0.31172  -0.31066
 Alpha  occ. eigenvalues --   -0.30859  -0.30688  -0.29775  -0.29664  -0.29210
 Alpha  occ. eigenvalues --   -0.29112  -0.29078  -0.28969  -0.23922  -0.23724
 Alpha  occ. eigenvalues --   -0.21003  -0.20785
 Alpha virt. eigenvalues --   -0.08673  -0.08432  -0.01574  -0.01413   0.00083
 Alpha virt. eigenvalues --    0.00271   0.02350   0.02545   0.03352   0.03636
 Alpha virt. eigenvalues --    0.04830   0.05076   0.05345   0.05551   0.06275

 Mulliken charges:
               1
     1  Mg   0.842413
     2  C   -0.000718
     3  C   -0.093512
     4  C   -0.046582
     5  C   -0.064715
     6  N   -0.256644
     7  C   -0.051116
     8  C   -0.014828
     9  C   -0.087312
    10  C    0.047354
    11  C    0.105053
    12  C    0.053515
    13  C   -0.070912
    14  H    0.035161
    15  N   -0.432830
    16  C    0.169216
    17  C   -0.177115
    18  C   -0.004360
    19  C    0.148895
    20  C    0.110421
    21  C    0.011906
    22  O   -0.250801
    23  C    0.062527
    24  N   -0.341179
    25  C    0.041117
    26  C   -0.027900
    27  C   -0.023877
    28  C    0.074977
    29  C    0.076448
    30  C    0.035406
    31  C   -0.004568
    32  N   -0.310669
    33  C    0.081084
    34  C   -0.169664
    35  C    0.008306
    36  C    0.084531
    37  C    0.127184
    38  C    0.047164
    39  O   -0.188656
    40  C   -0.005978
    41  C    0.211767
    42  O   -0.252663
    43  O   -0.305695
    44  C    0.157932
    45  H   -0.018387
    46  H   -0.017925
    47  H   -0.042326
    48  H    0.000115
    49  H   -0.004234
    50  H    0.025074
    51  H    0.015933
    52  H    0.015800
    53  H    0.013398
    54  H    0.047830
    55  H    0.016375
    56  H    0.017246
    57  H    0.005691
    58  H    0.025819
    59  H    0.039477
    60  H    0.037007
    61  H    0.034529
    62  H    0.031784
    63  H    0.015597
    64  H    0.008972
    65  H    0.022357
    66  H    0.012525
    67  H    0.004227
    68  H    0.005382
    69  H    0.004564
    70  H    0.007724
    71  H    0.016694
    72  H    0.030667
    73  H    0.047951
    74  H    0.008468
    75  H    0.045331
    76  H    0.034194
    77  H    0.041598
    78  H    0.045609
    79  H    0.054794
    80  Mg   0.837777
    81  C   -0.016604
    82  C   -0.087900
    83  C   -0.045594
    84  C   -0.064990
    85  N   -0.254449
    86  C   -0.049999
    87  C   -0.014929
    88  C   -0.090465
    89  C    0.045616
    90  C    0.114528
    91  C    0.062572
    92  C   -0.077691
    93  H    0.035010
    94  N   -0.423371
    95  C    0.162744
    96  C   -0.174880
    97  C   -0.008000
    98  C    0.151980
    99  C    0.099487
   100  C    0.015441
   101  O   -0.253449
   102  C    0.061241
   103  N   -0.350060
   104  C    0.037353
   105  C   -0.019741
   106  C   -0.034846
   107  C    0.089038
   108  C    0.073754
   109  C    0.034764
   110  C   -0.007640
   111  N   -0.324296
   112  C    0.078666
   113  C   -0.162439
   114  C    0.002814
   115  C    0.096482
   116  C    0.130772
   117  C    0.042964
   118  O   -0.185189
   119  C    0.000322
   120  C    0.212428
   121  O   -0.249586
   122  O   -0.306510
   123  C    0.152050
   124  H   -0.020090
   125  H   -0.015826
   126  H   -0.040294
   127  H   -0.001104
   128  H   -0.004529
   129  H    0.021976
   130  H    0.014340
   131  H    0.015806
   132  H    0.013941
   133  H    0.038289
   134  H    0.020220
   135  H    0.019340
   136  H    0.008489
   137  H    0.025766
   138  H    0.039595
   139  H    0.038058
   140  H    0.036151
   141  H    0.033883
   142  H    0.014284
   143  H    0.012389
   144  H    0.024910
   145  H    0.011462
   146  H    0.005556
   147  H    0.005984
   148  H    0.003641
   149  H    0.010779
   150  H    0.017947
   151  H    0.030448
   152  H    0.047916
   153  H    0.008554
   154  H    0.046367
   155  H    0.033830
   156  H    0.042954
   157  H    0.048565
   158  H    0.055281
 Sum of Mulliken charges =  -0.00000

 Dipole moment (field-independent basis, Debye):
    X=             -1.6176    Y=              2.0085    Z=              6.3291  Tot=              6.8343
 Quadrupole moment (field-independent basis, Debye-Ang):
   XX=           -464.2301   YY=           -477.9728   ZZ=           -510.7107
   XY=            -30.8438   XZ=              7.0710   YZ=             43.9853

 Normal termination of Gaussian 16 at Sat Sep 11 11:14:10 2021.
