 Gaussian 16, Revision A.03,
 Gaussian 16:  ES64L-G16RevA.03 25-Dec-2016

 -----------------------------------
 #p cam-b3lyp/Def2SVP td=(nstates=5)
 -----------------------------------

 --------------------------------
 TDDFT excited states in gaussian
 --------------------------------
 Symbolic Z-matrix:
 Charge =  0 Multiplicity = 1

                         Standard orientation:
 ---------------------------------------------------------------------
 Center     Atomic      Atomic             Coordinates (Angstroms)
 Number     Number       Type             X           Y           Z
 ---------------------------------------------------------------------
      1         12           0      -15.788486    0.680806    0.355503
      2          6           0      -16.052297   -2.208325   -1.741052
      3          6           0      -16.596991   -1.337471    2.985320
      4          6           0      -16.007333    3.287491    2.148244
      5          6           0      -16.123553    2.617617   -2.522371
      6          7           0      -16.242250   -1.482361    0.479804
      7          6           0      -16.250929   -2.489739   -0.387539
      8          6           0      -16.416030   -3.884397    0.287032
      9          6           0      -17.132221   -3.428139    1.636438
     10          6           0      -16.598652   -2.009320    1.726889
     11          6           0      -18.652960   -3.375235    1.531293
     12          6           0      -15.039252   -4.572914    0.573659
     13          6           0      -15.113961   -6.061226    0.926790
     14          1           0      -14.051737   -6.943859    0.468546
     15          7           0      -15.755331    0.891489    2.319520
     16          6           0      -16.101746   -0.040252    3.239923
     17          6           0      -15.905588    0.597707    4.559473
     18          6           0      -15.598738    2.036599    4.328114
     19          6           0      -15.803310    2.136448    2.905595
     20          6           0      -15.966704   -0.153629    5.853888
     21          6           0      -15.196741    3.148020    5.245324
     22          8           0      -15.205120    4.371827    4.875461
     23          6           0      -14.873513    2.770143    6.633047
     24          7           0      -16.250064    2.669416   -0.080401
     25          6           0      -16.217544    3.609714    0.870266
     26          6           0      -16.302546    4.986066    0.280039
     27          6           0      -16.155080    4.799805   -1.298984
     28          6           0      -16.089115    3.253386   -1.349051
     29          6           0      -17.588968    5.766307    0.583939
     30          6           0      -15.035731    5.608913   -2.000996
     31          6           0      -13.681399    5.103775   -1.556340
     32          7           0      -15.866307    0.310390   -1.781734
     33          6           0      -16.032544    1.263321   -2.797097
     34          6           0      -16.132179    0.525560   -4.069829
     35          6           0      -16.032957   -0.814916   -3.702234
     36          6           0      -15.907326   -0.909829   -2.286783
     37          6           0      -16.350944    1.101829   -5.352206
     38          6           0      -16.028586   -2.190293   -4.173587
     39          8           0      -16.009857   -2.726958   -5.282250
     40          6           0      -16.163390   -3.152721   -2.912085
     41          6           0      -15.121507   -4.229383   -3.048422
     42          8           0      -13.906092   -3.956811   -2.972026
     43          8           0      -15.716563   -5.431413   -3.008749
     44          6           0      -14.735446   -6.544710   -3.109415
     45          1           0      -17.069786   -1.820992    3.842416
     46          1           0      -15.978364    4.218718    2.717819
     47          1           0      -16.144289    3.158996   -3.469964
     48          1           0      -17.055504   -4.579636   -0.257156
     49          1           0      -16.798186   -4.013904    2.492605
     50          1           0      -18.987268   -3.535634    0.506388
     51          1           0      -18.933745   -2.378355    1.871711
     52          1           0      -19.114140   -4.071998    2.231729
     53          1           0      -14.628664   -4.181759    1.504506
     54          1           0      -14.356926   -4.435388   -0.265891
     55          1           0      -16.090604   -6.480215    0.682814
     56          1           0      -15.039976   -6.159397    2.009882
     57          1           0      -16.373065   -1.154958    5.716940
     58          1           0      -16.699097    0.353183    6.481941
     59          1           0      -15.001761   -0.177492    6.360491
     60          1           0      -15.738974    2.284901    7.084783
     61          1           0      -14.521934    3.679951    7.118321
     62          1           0      -14.076860    2.025751    6.619863
     63          1           0      -15.492490    5.617669    0.642408
     64          1           0      -17.062960    5.085031   -1.831031
     65          1           0      -17.414035    6.728052    1.066794
     66          1           0      -18.230890    5.132762    1.195370
     67          1           0      -18.226515    5.950959   -0.280268
     68          1           0      -15.094231    6.659848   -1.719822
     69          1           0      -15.082144    5.553520   -3.088667
     70          1           0      -13.518490    5.636087   -0.619891
     71          1           0      -12.918517    5.363659   -2.290970
     72          1           0      -13.710018    4.038797   -1.325063
     73          1           0      -15.671417    0.592510   -6.035439
     74          1           0      -16.168649    2.176175   -5.339858
     75          1           0      -17.402057    0.858391   -5.506332
     76          1           0      -17.174966   -3.556954   -2.932885
     77          1           0      -15.039417   -7.165171   -3.952542
     78          1           0      -14.695430   -7.012391   -2.125505
     79          1           0      -13.723831   -6.269981   -3.410244
     80         12           0       15.958082    0.627195   -0.488132
     81          6           0       15.793789   -2.492802    1.277558
     82          6           0       15.162149    2.161964    2.452204
     83          6           0       15.652282    3.341560   -2.102496
     84          6           0       15.608323   -1.186160   -3.443662
     85          7           0       15.554968   -0.169968    1.535303
     86          6           0       15.581941   -1.367341    2.100901
     87          6           0       15.449819   -1.351255    3.647460
     88          6           0       14.696599    0.057704    3.809810
     89          6           0       15.191576    0.747212    2.540067
     90          6           0       13.183230   -0.056471    3.732380
     91          6           0       16.844454   -1.343231    4.366445
     92          6           0       16.796007   -1.638568    5.867178
     93          1           0       17.892636   -2.396659    6.463133
     94          7           0       15.962246    2.507118    0.147820
     95          6           0       15.633110    2.950274    1.379307
     96          6           0       15.779115    4.413376    1.332719
     97          6           0       16.062025    4.812028   -0.072897
     98          6           0       15.878543    3.543302   -0.748738
     99          6           0       15.727748    5.275749    2.560360
    100          6           0       16.423713    6.121442   -0.706006
    101          8           0       16.390833    6.286877   -1.976586
    102          6           0       16.727086    7.230820    0.209811
    103          7           0       15.460384    1.044714   -2.463059
    104          6           0       15.450563    2.308839   -2.921107
    105          6           0       15.335868    2.342700   -4.426458
    106          6           0       15.514881    0.827320   -4.905158
    107          6           0       15.617537    0.137129   -3.527312
    108          6           0       14.025192    2.899987   -4.981386
    109          6           0       16.623648    0.547661   -5.956395
    110          6           0       17.985991    0.781935   -5.344391
    111          7           0       15.924301   -1.462463   -1.036084
    112          6           0       15.741015   -2.002696   -2.327841
    113          6           0       15.678192   -3.471304   -2.180671
    114          6           0       15.807235   -3.684048   -0.799874
    115          6           0       15.920779   -2.435125   -0.131447
    116          6           0       15.473091   -4.405027   -3.235283
    117          6           0       15.862560   -4.680668    0.245299
    118          8           0       15.903117   -5.910039    0.272076
    119          6           0       15.729309   -3.948152    1.649598
    120          6           0       16.800107   -4.487172    2.558100
    121          8           0       18.001448   -4.283051    2.309702
    122          8           0       16.228199   -4.964214    3.678689
    123          6           0       17.250962   -5.499934    4.616123
    124          1           0       14.696162    2.722562    3.263043
    125          1           0       15.649279    4.243084   -2.719523
    126          1           0       15.599074   -1.826925   -4.327971
    127          1           0       14.841815   -2.147583    4.059736
    128          1           0       15.041374    0.590536    4.692189
    129          1           0       12.867707   -1.053203    3.461961
    130          1           0       12.872608    0.656032    2.979455
    131          1           0       12.731367    0.279642    4.670033
    132          1           0       17.229501   -0.315636    4.389512
    133          1           0       17.524332   -2.020181    3.886712
    134          1           0       15.829146   -2.055549    6.174206
    135          1           0       16.864154   -0.692348    6.409427
    136          1           0       15.341739    4.721986    3.425072
    137          1           0       14.975371    6.050194    2.375863
    138          1           0       16.683924    5.756585    2.777645
    139          1           0       15.869448    7.412928    0.853052
    140          1           0       17.049355    8.056331   -0.427799
    141          1           0       17.552580    6.928695    0.863957
    142          1           0       16.124963    2.944049   -4.860996
    143          1           0       14.602863    0.440589   -5.383180
    144          1           0       14.170407    3.756743   -5.666199
    145          1           0       13.394255    3.181406   -4.148767
    146          1           0       13.403373    2.178789   -5.509024
    147          1           0       16.535748    1.244031   -6.793949
    148          1           0       16.586541   -0.455939   -6.366753
    149          1           0       18.116812    1.863961   -5.440225
    150          1           0       18.752082    0.241292   -5.896536
    151          1           0       17.983002    0.543744   -4.274390
    152          1           0       16.167549   -5.218122   -3.070675
    153          1           0       15.623206   -3.943983   -4.209283
    154          1           0       14.425983   -4.667590   -3.062425
    155          1           0       14.728041   -4.151353    2.031373
    156          1           0       16.971200   -6.534672    4.836890
    157          1           0       17.276513   -4.792686    5.466365
    158          1           0       18.258394   -5.629251    4.238219
 ---------------------------------------------------------------------

 SCF Done:  E(RCAM-B3LYP) =  -4069.81178340     A.U. after   19 cycles

 Excitation energies and oscillator strengths:

 Excited State   1:      Singlet-A      1.6755 eV  739.98 nm  f=0.3592  <S**2>=0.000
     310 -> 316        0.17266
     312 -> 313        0.68230
     310 <- 316        0.10407
 This state for optimization and/or second-order correction.
 Total Energy, E(TD-HF/TD-DFT) =  -4069.75020927
 Copying the excited state density for this state as the 1-particle RhoCI density.

 Excited State   2:      Singlet-A      1.6799 eV  738.05 nm  f=0.4171  <S**2>=0.000
     309 -> 315        0.17457
     311 -> 314        0.68195
     309 <- 315        0.10454

 Excited State   3:      Singlet-A      2.1861 eV  567.15 nm  f=0.1015  <S**2>=0.000
     310 -> 313        0.64244
     312 -> 316       -0.27312

 Excited State   4:      Singlet-A      2.1925 eV  565.50 nm  f=0.0994  <S**2>=0.000
     309 -> 314        0.64067
     311 -> 315       -0.27825

 Excited State   5:      Singlet-A      3.0657 eV  404.43 nm  f=0.0000  <S**2>=0.000
     311 -> 313        0.70711

 The electronic state is 1-A.
 Alpha  occ. eigenvalues --  -46.87796 -46.87661 -19.26354 -19.26278 -19.19165
 Alpha  occ. eigenvalues --  -19.19015 -19.18817 -19.18714 -19.18167 -19.18053
 Alpha  occ. eigenvalues --  -14.42498 -14.42449 -14.41449 -14.41359 -14.39402
 Alpha  occ. eigenvalues --  -14.39352 -14.38600 -14.38586 -10.39094 -10.39074
 Alpha  occ. eigenvalues --  -10.35450 -10.35391 -10.34387 -10.34230 -10.31762
 Alpha  occ. eigenvalues --  -10.31671 -10.31403 -10.31310 -10.31024 -10.30907
 Alpha  occ. eigenvalues --  -10.30569 -10.30507 -10.30398 -10.30361 -10.30207
 Alpha  occ. eigenvalues --  -10.30140 -10.29920 -10.29894 -10.29630 -10.29437
 Alpha  occ. eigenvalues --  -10.29401 -10.29254 -10.28745 -10.28721 -10.28659
 Alpha  occ. eigenvalues --  -10.28532 -10.28405 -10.28364 -10.28142 -10.28113
 Alpha  occ. eigenvalues --  -10.28001 -10.27792 -10.27726 -10.27670 -10.27584
 Alpha  occ. eigenvalues --  -10.27515 -10.27502 -10.27484 -10.27482 -10.27468
 Alpha  occ. eigenvalues --  -10.27465 -10.27451 -10.27402 -10.27373 -10.27155
 Alpha  occ. eigenvalues --  -10.27052 -10.26700 -10.26696 -10.26414 -10.26414
 Alpha  occ. eigenvalues --  -10.26231 -10.26186 -10.26135 -10.26027 -10.26019
 Alpha  occ. eigenvalues --  -10.25934 -10.25850 -10.25842 -10.25437 -10.25392
 Alpha  occ. eigenvalues --  -10.24873 -10.24832 -10.24787 -10.24729 -10.24690
 Alpha  occ. eigenvalues --  -10.24690  -3.16539  -3.16411  -1.91420  -1.91293
 Alpha  occ. eigenvalues --   -1.91007  -1.90882  -1.90849  -1.90718  -1.16648
 Alpha  occ. eigenvalues --   -1.16627  -1.08661  -1.08625  -1.07218  -1.06966
 Alpha  occ. eigenvalues --   -1.06950  -1.06637  -1.04580  -1.04496  -1.03760
 Alpha  occ. eigenvalues --   -1.03664  -1.03233  -1.03039  -1.02411  -1.02112
 Alpha  occ. eigenvalues --   -0.91988  -0.91970  -0.89520  -0.89494  -0.89185
 Alpha  occ. eigenvalues --   -0.89153  -0.88287  -0.88219  -0.87869  -0.87794
 Alpha  occ. eigenvalues --   -0.87685  -0.87672  -0.87274  -0.87120  -0.85001
 Alpha  occ. eigenvalues --   -0.84980  -0.83937  -0.83875  -0.82969  -0.82931
 Alpha  occ. eigenvalues --   -0.82654  -0.82647  -0.81599  -0.81582  -0.80595
 Alpha  occ. eigenvalues --   -0.80444  -0.78797  -0.78636  -0.77217  -0.77145
 Alpha  occ. eigenvalues --   -0.76932  -0.76900  -0.75920  -0.75840  -0.74898
 Alpha  occ. eigenvalues --   -0.74802  -0.72773  -0.72699  -0.71671  -0.71581
 Alpha  occ. eigenvalues --   -0.69908  -0.69756  -0.68871  -0.68829  -0.67640
 Alpha  occ. eigenvalues --   -0.67602  -0.67217  -0.67202  -0.65284  -0.65273
 Alpha  occ. eigenvalues --   -0.64852  -0.64771  -0.64655  -0.64619  -0.64269
 Alpha  occ. eigenvalues --   -0.64203  -0.62294  -0.62281  -0.60443  -0.60339
 Alpha  occ. eigenvalues --   -0.59802  -0.59798  -0.58993  -0.58986  -0.58503
 Alpha  occ. eigenvalues --   -0.58426  -0.57582  -0.57556  -0.57308  -0.57236
 Alpha  occ. eigenvalues --   -0.56309  -0.56205  -0.55974  -0.55889  -0.55520
 Alpha  occ. eigenvalues --   -0.55453  -0.55339  -0.55248  -0.54522  -0.54488
 Alpha  occ. eigenvalues --   -0.53914  -0.53892  -0.53298  -0.53228  -0.53220
 Alpha  occ. eigenvalues --   -0.53143  -0.52913  -0.52904  -0.52756  -0.52669
 Alpha  occ. eigenvalues --   -0.52439  -0.52400  -0.51914  -0.51885  -0.51660
 Alpha  occ. eigenvalues --   -0.51614  -0.51202  -0.51194  -0.50574  -0.50475
 Alpha  occ. eigenvalues --   -0.50032  -0.49980  -0.49918  -0.49866  -0.49513
 Alpha  occ. eigenvalues --   -0.49489  -0.49213  -0.49204  -0.49106  -0.49093
 Alpha  occ. eigenvalues --   -0.48590  -0.48560  -0.48462  -0.48445  -0.48375
 Alpha  occ. eigenvalues --   -0.48339  -0.47694  -0.47595  -0.47296  -0.47118
 Alpha  occ. eigenvalues --   -0.46796  -0.46709  -0.46555  -0.46552  -0.46358
 Alpha  occ. eigenvalues --   -0.46271  -0.46161  -0.46086  -0.45824  -0.45819
 Alpha  occ. eigenvalues --   -0.45207  -0.45202  -0.44576  -0.44516  -0.44506
 Alpha  occ. eigenvalues --   -0.44477  -0.44144  -0.44129  -0.44086  -0.44078
 Alpha  occ. eigenvalues --   -0.44018  -0.43940  -0.43555  -0.43492  -0.43387
 Alpha  occ. eigenvalues --   -0.43384  -0.43026  -0.42933  -0.42902  -0.42696
 Alpha  occ. eigenvalues --   -0.42653  -0.42553  -0.42009  -0.41965  -0.41703
 Alpha  occ. eigenvalues --   -0.41670  -0.41531  -0.41460  -0.41140  -0.40990
 Alpha  occ. eigenvalues --   -0.40868  -0.40824  -0.40723  -0.40699  -0.40571
 Alpha  occ. eigenvalues --   -0.40493  -0.40230  -0.40229  -0.39442  -0.39424
 Alpha  occ. eigenvalues --   -0.38469  -0.38349  -0.37745  -0.37656  -0.37320
 Alpha  occ. eigenvalues --   -0.37266  -0.37261  -0.37201  -0.36774  -0.36710
 Alpha  occ. eigenvalues --   -0.36218  -0.36190  -0.34285  -0.34254  -0.33865
 Alpha  occ. eigenvalues --   -0.33766  -0.33185  -0.33176  -0.31347  -0.31273
 Alpha  occ. eigenvalues --   -0.31035  -0.30973  -0.30026  -0.29957  -0.29449
 Alpha  occ. eigenvalues --   -0.29327  -0.29321  -0.29212  -0.24080  -0.24036
 Alpha  occ. eigenvalues --   -0.21127  -0.21117
 Alpha virt. eigenvalues --   -0.08792  -0.08774  -0.01749  -0.01684  -0.00058
 Alpha virt. eigenvalues --   -0.00029   0.02201   0.02206   0.03120   0.03224
 Alpha virt. eigenvalues --    0.04720   0.04729   0.05103   0.05162   0.06179

 Mulliken charges:
               1
     1  Mg   0.838652
     2  C   -0.002973
     3  C   -0.094109
     4  C   -0.045873
     5  C   -0.063953
     6  N   -0.256790
     7  C   -0.052417
     8  C   -0.014036
     9  C   -0.086975
    10  C    0.046317
    11  C    0.104809
    12  C    0.053458
    13  C   -0.071833
    14  H    0.036200
    15  N   -0.433113
    16  C    0.168413
    17  C   -0.177162
    18  C   -0.004016
    19  C    0.148710
    20  C    0.110184
    21  C    0.012272
    22  O   -0.249662
    23  C    0.062481
    24  N   -0.341120
    25  C    0.041243
    26  C   -0.028182
    27  C   -0.023976
    28  C    0.074844
    29  C    0.076187
    30  C    0.035132
    31  C   -0.004500
    32  N   -0.310457
    33  C    0.080393
    34  C   -0.169712
    35  C    0.008378
    36  C    0.082983
    37  C    0.127312
    38  C    0.046123
    39  O   -0.188407
    40  C   -0.005320
    41  C    0.212895
    42  O   -0.257098
    43  O   -0.304805
    44  C    0.157680
    45  H   -0.017594
    46  H   -0.016869
    47  H   -0.041499
    48  H    0.000955
    49  H   -0.004015
    50  H    0.025481
    51  H    0.016432
    52  H    0.016673
    53  H    0.011201
    54  H    0.044132
    55  H    0.017878
    56  H    0.017957
    57  H    0.005894
    58  H    0.026811
    59  H    0.039537
    60  H    0.037356
    61  H    0.035601
    62  H    0.031495
    63  H    0.016525
    64  H    0.009462
    65  H    0.023182
    66  H    0.012552
    67  H    0.004751
    68  H    0.006341
    69  H    0.004737
    70  H    0.008751
    71  H    0.018132
    72  H    0.029004
    73  H    0.047584
    74  H    0.009101
    75  H    0.046016
    76  H    0.035164
    77  H    0.042971
    78  H    0.046418
    79  H    0.053711
    80  Mg   0.837823
    81  C   -0.016837
    82  C   -0.087794
    83  C   -0.045495
    84  C   -0.064862
    85  N   -0.254568
    86  C   -0.049841
    87  C   -0.015081
    88  C   -0.090492
    89  C    0.045754
    90  C    0.114363
    91  C    0.062517
    92  C   -0.077894
    93  H    0.034877
    94  N   -0.423497
    95  C    0.162938
    96  C   -0.174613
    97  C   -0.007784
    98  C    0.152116
    99  C    0.099361
   100  C    0.015588
   101  O   -0.253144
   102  C    0.061191
   103  N   -0.350041
   104  C    0.037538
   105  C   -0.019847
   106  C   -0.034829
   107  C    0.088909
   108  C    0.073629
   109  C    0.034744
   110  C   -0.007694
   111  N   -0.324100
   112  C    0.078446
   113  C   -0.163120
   114  C    0.002237
   115  C    0.096200
   116  C    0.131493
   117  C    0.042380
   118  O   -0.187884
   119  C    0.000892
   120  C    0.211261
   121  O   -0.251016
   122  O   -0.305635
   123  C    0.152032
   124  H   -0.019653
   125  H   -0.015533
   126  H   -0.040421
   127  H   -0.000664
   128  H   -0.004337
   129  H    0.022466
   130  H    0.014469
   131  H    0.016275
   132  H    0.013923
   133  H    0.037677
   134  H    0.020776
   135  H    0.019592
   136  H    0.008755
   137  H    0.026180
   138  H    0.039797
   139  H    0.038272
   140  H    0.036422
   141  H    0.033886
   142  H    0.014412
   143  H    0.012482
   144  H    0.025180
   145  H    0.011666
   146  H    0.005745
   147  H    0.006304
   148  H    0.003665
   149  H    0.010942
   150  H    0.017937
   151  H    0.030077
   152  H    0.045991
   153  H    0.008538
   154  H    0.046980
   155  H    0.035025
   156  H    0.043891
   157  H    0.049485
   158  H    0.053579
 Sum of Mulliken charges =  -0.00000

 Dipole moment (field-independent basis, Debye):
    X=             -3.8182    Y=              2.0279    Z=              6.7081  Tot=              7.9806
 Quadrupole moment (field-independent basis, Debye-Ang):
   XX=           -517.1145   YY=           -521.1623   ZZ=           -477.6874
   XY=             69.5274   XZ=            -21.2444   YZ=            -20.0770

 Normal termination of Gaussian 16 at Sat Sep  4 19:18:12 2021.
