 Gaussian 16, Revision A.03,
 Gaussian 16:  ES64L-G16RevA.03 25-Dec-2016

 -----------------------------------
 #p cam-b3lyp/Def2SVP td=(nstates=5)
 -----------------------------------

 --------------------------------
 TDDFT excited states in gaussian
 --------------------------------
 Symbolic Z-matrix:
 Charge =  0 Multiplicity = 1

                         Standard orientation:
 ---------------------------------------------------------------------
 Center     Atomic      Atomic             Coordinates (Angstroms)
 Number     Number       Type             X           Y           Z
 ---------------------------------------------------------------------
      1         12           0       -6.538709   -0.722470   -0.023416
      2          6           0       -6.728082    2.768069    0.746319
      3          6           0       -7.358328    0.093074   -3.233739
      4          6           0       -6.823087   -3.823387   -0.623468
      5          6           0       -6.857388   -1.341991    3.391302
      6          7           0       -6.962853    1.219496   -0.997846
      7          6           0       -6.943489    2.489385   -0.605192
      8          6           0       -7.098706    3.501568   -1.779401
      9          6           0       -7.842213    2.558464   -2.828090
     10          6           0       -7.330782    1.211454   -2.348584
     11          6           0       -9.361755    2.581607   -2.697860
     12          6           0       -5.716659    3.991363   -2.328744
     13          6           0       -5.775177    5.215989   -3.246470
     14          1           0       -4.693285    6.187293   -3.187936
     15          7           0       -6.538965   -1.700522   -1.739884
     16          6           0       -6.885980   -1.207282   -2.952972
     17          6           0       -6.719524   -2.322797   -3.909319
     18          6           0       -6.430081   -3.555277   -3.124903
     19          6           0       -6.614081   -3.074754   -1.779310
     20          6           0       -6.789704   -2.149832   -5.395559
     21          6           0       -6.058497   -4.948113   -3.524987
     22          8           0       -6.078946   -5.921992   -2.696908
     23          6           0       -5.751289   -5.162214   -4.950759
     24          7           0       -7.022349   -2.362160    1.174559
     25          6           0       -7.018190   -3.604301    0.678523
     26          6           0       -7.114057   -4.628511    1.770192
     27          6           0       -6.939523   -3.830105    3.141994
     28          6           0       -6.850324   -2.393951    2.569477
     29          6           0       -8.416224   -5.439957    1.814105
     30          6           0       -5.821339   -4.313219    4.099430
     31          6           0       -4.466840   -4.054178    3.478683
     32          7           0       -6.578111    0.472037    1.788392
     33          6           0       -6.742473    0.007288    3.101277
     34          6           0       -6.811701    1.193705    3.974026
     35          6           0       -6.698698    2.273656    3.100653
     36          6           0       -6.593584    1.792970    1.764171
     37          6           0       -7.018980    1.181855    5.381623
     38          6           0       -6.667057    3.722467    2.983172
     39          8           0       -6.623405    4.656733    3.784880
     40          6           0       -6.807333    4.103498    1.443378
     41          6           0       -5.747931    5.124498    1.129475
     42          8           0       -4.537931    4.820457    1.158193
     43          8           0       -6.325996    6.222036    0.617819
     44          6           0       -5.327364    7.263555    0.257087
     45          1           0       -7.837231    0.203220   -4.208655
     46          1           0       -6.816457   -4.904963   -0.773761
     47          1           0       -6.871348   -1.459410    4.476415
     48          1           0       -7.719525    4.368602   -1.552991
     49          1           0       -7.512968    2.746970   -3.849748
     50          1           0       -9.677823    3.144423   -1.819646
     51          1           0       -9.662224    1.537402   -2.609270
     52          1           0       -9.823526    2.949544   -3.614466
     53          1           0       -5.326229    3.253109   -3.029176
     54          1           0       -5.023516    4.187264   -1.509902
     55          1           0       -6.741742    5.716501   -3.182066
     56          1           0       -5.716515    4.872017   -4.279157
     57          1           0       -7.179305   -1.169405   -5.666700
     58          1           0       -7.539001   -2.850899   -5.762666
     59          1           0       -5.832458   -2.349074   -5.877549
     60          1           0       -6.616483   -4.880962   -5.551497
     61          1           0       -5.420509   -6.196783   -5.035029
     62          1           0       -4.943793   -4.490171   -5.242748
     63          1           0       -6.318960   -5.367936    1.683600
     64          1           0       -7.843124   -3.861381    3.751256
     65          1           0       -8.262767   -6.517722    1.754280
     66          1           0       -9.058240   -5.090901    1.005856
     67          1           0       -9.042960   -5.251675    2.685408
     68          1           0       -5.899443   -5.387647    4.262068
     69          1           0       -5.850133   -3.827199    5.074729
     70          1           0       -4.326171   -4.919225    2.831582
     71          1           0       -3.696557   -4.013899    4.249560
     72          1           0       -4.483548   -3.169818    2.841411
     73          1           0       -6.321649    1.908285    5.798753
     74          1           0       -6.852530    0.188626    5.798027
     75          1           0       -8.063937    1.487029    5.434427
     76          1           0       -7.812485    4.502045    1.309391
     77          1           0       -5.609225    8.174883    0.784601
     78          1           0       -5.295761    7.298544   -0.832032
     79          1           0       -4.315322    7.112148    0.634162
     80         12           0        6.696134   -0.816012    0.174509
     81          6           0        6.521209    2.750341   -0.185454
     82          6           0        5.868537   -1.040083   -3.126925
     83          6           0        6.400376   -3.951060    0.563638
     84          6           0        6.378830   -0.345283    3.613029
     85          7           0        6.275071    0.726878   -1.353382
     86          6           0        6.299040    2.050675   -1.389838
     87          6           0        6.151893    2.657740   -2.810888
     88          6           0        5.394213    1.431571   -3.518910
     89          6           0        5.900044    0.290579   -2.638612
     90          6           0        3.881896    1.501940   -3.387391
     91          6           0        7.539476    2.942377   -3.485895
     92          6           0        7.477072    3.816284   -4.740541
     93          1           0        8.569449    4.752244   -4.991867
     94          7           0        6.690226   -2.281353   -1.163887
     95          6           0        6.348238   -2.192409   -2.466356
     96          6           0        6.491646   -3.550392   -3.013609
     97          6           0        6.787353   -4.480172   -1.889874
     98          6           0        6.613073   -3.590810   -0.759058
     99          6           0        6.426586   -3.846255   -4.483871
    100          6           0        7.152442   -5.932918   -1.840451
    101          8           0        7.131546   -6.595505   -0.743467
    102          6           0        7.444616   -6.579638   -3.128034
    103          7           0        6.216759   -1.993619    1.819442
    104          6           0        6.208753   -3.335237    1.730405
    105          6           0        6.108595   -3.971946    3.096039
    106          6           0        6.295389   -2.776741    4.142071
    107          6           0        6.386108   -1.590428    3.157269
    108          6           0        4.802209   -4.707993    3.392663
    109          6           0        7.414889   -2.941301    5.206174
    110          6           0        8.770735   -2.906907    4.538433
    111          7           0        6.672016    0.876691    1.516982
    112          6           0        6.502402    0.851352    2.918650
    113          6           0        6.441200    2.254999    3.375226
    114          6           0        6.557285    3.005411    2.195435
    115          6           0        6.661748    2.131060    1.080044
    116          6           0        6.248280    2.685262    4.718272
    117          6           0        6.604538    4.338358    1.638910
    118          8           0        6.647387    5.474759    2.108478
    119          6           0        6.456151    4.232286    0.059951
    120          6           0        7.519198    5.093340   -0.565375
    121          8           0        8.722471    4.808940   -0.431744
    122          8           0        6.937440    5.979669   -1.393833
    123          6           0        7.952173    6.849234   -2.046513
    124          1           0        5.393543   -1.228129   -4.090206
    125          1           0        6.401485   -5.024637    0.765938
    126          1           0        6.379494   -0.114332    4.680427
    127          1           0        5.541587    3.551423   -2.862125
    128          1           0        5.729303    1.299344   -4.544388
    129          1           0        3.571094    2.305089   -2.735858
    130          1           0        3.577122    0.546152   -2.981663
    131          1           0        3.420265    1.570451   -4.376598
    132          1           0        7.922141    2.011621   -3.924073
    133          1           0        8.225375    3.370543   -2.781019
    134          1           0        6.508158    4.319613   -4.844514
    135          1           0        7.537997    3.168232   -5.618215
    136          1           0        6.033348   -2.992227   -5.049021
    137          1           0        5.674429   -4.630997   -4.619137
    138          1           0        7.379604   -4.197170   -4.885482
    139          1           0        6.580394   -6.489361   -3.781832
    140          1           0        7.771331   -7.591243   -2.879481
    141          1           0        8.264343   -6.038276   -3.613404
    142          1           0        6.900611   -4.695708    3.244318
    143          1           0        5.388861   -2.616763    4.744104
    144          1           0        4.952273   -5.767533    3.673592
    145          1           0        4.162641   -4.631997    2.523343
    146          1           0        4.187036   -4.261163    4.171830
    147          1           0        7.333662   -3.915913    5.693706
    148          1           0        7.383842   -2.187595    5.985881
    149          1           0        8.900230   -3.935834    4.189681
    150          1           0        9.543267   -2.632482    5.253920
    151          1           0        8.757862   -2.258469    3.654676
    152          1           0        6.942798    3.497281    4.887864
    153          1           0        6.406883    1.871695    5.423060
    154          1           0        5.200090    2.993079    4.675801
    155          1           0        5.451647    4.569880   -0.198107
    156          1           0        7.672440    7.884823   -1.829719
    157          1           0        7.968005    6.543755   -3.109617
    158          1           0        8.963484    6.817651   -1.658328
 ---------------------------------------------------------------------

 SCF Done:  E(RCAM-B3LYP) =  -4069.81159342     A.U. after   19 cycles

 Excitation energies and oscillator strengths:

 Excited State   1:      Singlet-A      1.6659 eV  744.25 nm  f=0.0273  <S**2>=0.000
     309 -> 315       -0.11036
     310 -> 316        0.13124
     311 -> 313       -0.44043
     312 -> 314        0.52669
 This state for optimization and/or second-order correction.
 Total Energy, E(TD-HF/TD-DFT) =  -4069.75037312
 Copying the excited state density for this state as the 1-particle RhoCI density.

 Excited State   2:      Singlet-A      1.6887 eV  734.20 nm  f=0.7142  <S**2>=0.000
     309 -> 315        0.13640
     310 -> 316        0.11355
     311 -> 313        0.52555
     312 -> 314        0.43958

 Excited State   3:      Singlet-A      2.1849 eV  567.45 nm  f=0.0438  <S**2>=0.000
     309 -> 313       -0.20070
     310 -> 314        0.61086
     312 -> 316       -0.25880

 Excited State   4:      Singlet-A      2.1929 eV  565.38 nm  f=0.1463  <S**2>=0.000
     309 -> 313        0.60862
     310 -> 314        0.19906
     311 -> 315       -0.26488

 Excited State   5:      Singlet-A      2.6498 eV  467.90 nm  f=0.0000  <S**2>=0.000
     312 -> 313        0.70710

 The electronic state is 1-A.
 Alpha  occ. eigenvalues --  -46.87850 -46.87552 -19.26296 -19.26259 -19.19066
 Alpha  occ. eigenvalues --  -19.19037 -19.18879 -19.18622 -19.18204 -19.17927
 Alpha  occ. eigenvalues --  -14.42504 -14.42392 -14.41501 -14.41250 -14.39458
 Alpha  occ. eigenvalues --  -14.39245 -14.38638 -14.38486 -10.39098 -10.38993
 Alpha  occ. eigenvalues --  -10.35514 -10.35301 -10.34423 -10.34105 -10.31682
 Alpha  occ. eigenvalues --  -10.31677 -10.31455 -10.31200 -10.30965 -10.30925
 Alpha  occ. eigenvalues --  -10.30621 -10.30558 -10.30285 -10.30262 -10.30248
 Alpha  occ. eigenvalues --  -10.30039 -10.29967 -10.29780 -10.29684 -10.29331
 Alpha  occ. eigenvalues --  -10.29311 -10.29291 -10.28805 -10.28631 -10.28605
 Alpha  occ. eigenvalues --  -10.28605 -10.28417 -10.28296 -10.28172 -10.28051
 Alpha  occ. eigenvalues --  -10.27888 -10.27844 -10.27782 -10.27641 -10.27568
 Alpha  occ. eigenvalues --  -10.27561 -10.27547 -10.27493 -10.27453 -10.27416
 Alpha  occ. eigenvalues --  -10.27393 -10.27376 -10.27361 -10.27273 -10.27192
 Alpha  occ. eigenvalues --  -10.26931 -10.26771 -10.26623 -10.26496 -10.26342
 Alpha  occ. eigenvalues --  -10.26284 -10.26229 -10.26071 -10.26046 -10.25927
 Alpha  occ. eigenvalues --  -10.25879 -10.25824 -10.25699 -10.25474 -10.25294
 Alpha  occ. eigenvalues --  -10.24881 -10.24838 -10.24756 -10.24736 -10.24646
 Alpha  occ. eigenvalues --  -10.24582  -3.16593  -3.16301  -1.91475  -1.91184
 Alpha  occ. eigenvalues --   -1.91061  -1.90904  -1.90772  -1.90609  -1.16646
 Alpha  occ. eigenvalues --   -1.16552  -1.08658  -1.08534  -1.07280  -1.06875
 Alpha  occ. eigenvalues --   -1.06850  -1.06659  -1.04635  -1.04390  -1.03813
 Alpha  occ. eigenvalues --   -1.03556  -1.03286  -1.02929  -1.02463  -1.02001
 Alpha  occ. eigenvalues --   -0.92018  -0.91875  -0.89568  -0.89390  -0.89243
 Alpha  occ. eigenvalues --   -0.89061  -0.88334  -0.88118  -0.87917  -0.87728
 Alpha  occ. eigenvalues --   -0.87670  -0.87582  -0.87339  -0.87026  -0.85038
 Alpha  occ. eigenvalues --   -0.84908  -0.83981  -0.83776  -0.83033  -0.82843
 Alpha  occ. eigenvalues --   -0.82701  -0.82562  -0.81620  -0.81496  -0.80642
 Alpha  occ. eigenvalues --   -0.80343  -0.78856  -0.78533  -0.77271  -0.77048
 Alpha  occ. eigenvalues --   -0.76979  -0.76805  -0.75967  -0.75741  -0.74942
 Alpha  occ. eigenvalues --   -0.74701  -0.72824  -0.72589  -0.71720  -0.71477
 Alpha  occ. eigenvalues --   -0.69954  -0.69661  -0.68928  -0.68735  -0.67692
 Alpha  occ. eigenvalues --   -0.67499  -0.67282  -0.67117  -0.65338  -0.65178
 Alpha  occ. eigenvalues --   -0.64898  -0.64667  -0.64666  -0.64556  -0.64317
 Alpha  occ. eigenvalues --   -0.64102  -0.62326  -0.62180  -0.60501  -0.60241
 Alpha  occ. eigenvalues --   -0.59858  -0.59699  -0.59035  -0.58887  -0.58551
 Alpha  occ. eigenvalues --   -0.58320  -0.57619  -0.57442  -0.57355  -0.57133
 Alpha  occ. eigenvalues --   -0.56361  -0.56099  -0.56008  -0.55795  -0.55575
 Alpha  occ. eigenvalues --   -0.55378  -0.55356  -0.55145  -0.54557  -0.54390
 Alpha  occ. eigenvalues --   -0.53950  -0.53824  -0.53353  -0.53277  -0.53126
 Alpha  occ. eigenvalues --   -0.53047  -0.52956  -0.52820  -0.52807  -0.52583
 Alpha  occ. eigenvalues --   -0.52484  -0.52306  -0.51956  -0.51749  -0.51673
 Alpha  occ. eigenvalues --   -0.51571  -0.51239  -0.51095  -0.50647  -0.50392
 Alpha  occ. eigenvalues --   -0.50083  -0.49979  -0.49887  -0.49769  -0.49570
 Alpha  occ. eigenvalues --   -0.49395  -0.49263  -0.49145  -0.49101  -0.49001
 Alpha  occ. eigenvalues --   -0.48633  -0.48516  -0.48490  -0.48457  -0.48272
 Alpha  occ. eigenvalues --   -0.48245  -0.47747  -0.47501  -0.47349  -0.47023
 Alpha  occ. eigenvalues --   -0.46847  -0.46610  -0.46609  -0.46466  -0.46408
 Alpha  occ. eigenvalues --   -0.46204  -0.46168  -0.45976  -0.45857  -0.45712
 Alpha  occ. eigenvalues --   -0.45248  -0.45106  -0.44619  -0.44566  -0.44414
 Alpha  occ. eigenvalues --   -0.44379  -0.44196  -0.44142  -0.44066  -0.44028
 Alpha  occ. eigenvalues --   -0.43981  -0.43842  -0.43529  -0.43457  -0.43438
 Alpha  occ. eigenvalues --   -0.43286  -0.43073  -0.42834  -0.42794  -0.42735
 Alpha  occ. eigenvalues --   -0.42685  -0.42455  -0.42057  -0.41870  -0.41750
 Alpha  occ. eigenvalues --   -0.41589  -0.41560  -0.41369  -0.41190  -0.40924
 Alpha  occ. eigenvalues --   -0.40888  -0.40887  -0.40636  -0.40618  -0.40610
 Alpha  occ. eigenvalues --   -0.40394  -0.40297  -0.40151  -0.39489  -0.39330
 Alpha  occ. eigenvalues --   -0.38518  -0.38252  -0.37806  -0.37573  -0.37370
 Alpha  occ. eigenvalues --   -0.37318  -0.37165  -0.37103  -0.36740  -0.36677
 Alpha  occ. eigenvalues --   -0.36231  -0.36118  -0.34337  -0.34145  -0.33794
 Alpha  occ. eigenvalues --   -0.33764  -0.33235  -0.33068  -0.31408  -0.31181
 Alpha  occ. eigenvalues --   -0.31086  -0.30867  -0.30062  -0.29832  -0.29505
 Alpha  occ. eigenvalues --   -0.29371  -0.29221  -0.29093  -0.24132  -0.23926
 Alpha  occ. eigenvalues --   -0.21180  -0.21009
 Alpha virt. eigenvalues --   -0.08827  -0.08683  -0.01803  -0.01578  -0.00116
 Alpha virt. eigenvalues --    0.00071   0.02157   0.02326   0.03056   0.03323
 Alpha virt. eigenvalues --    0.04664   0.04828   0.05076   0.05264   0.06122

 Mulliken charges:
               1
     1  Mg   0.838500
     2  C   -0.002949
     3  C   -0.094423
     4  C   -0.045818
     5  C   -0.063934
     6  N   -0.256751
     7  C   -0.052484
     8  C   -0.013956
     9  C   -0.086930
    10  C    0.046197
    11  C    0.104809
    12  C    0.053593
    13  C   -0.071777
    14  H    0.036162
    15  N   -0.433098
    16  C    0.168245
    17  C   -0.177432
    18  C   -0.004138
    19  C    0.148629
    20  C    0.110243
    21  C    0.012163
    22  O   -0.249452
    23  C    0.062607
    24  N   -0.341111
    25  C    0.041187
    26  C   -0.028194
    27  C   -0.024016
    28  C    0.074891
    29  C    0.076128
    30  C    0.035104
    31  C   -0.004482
    32  N   -0.310529
    33  C    0.080501
    34  C   -0.169587
    35  C    0.008545
    36  C    0.083032
    37  C    0.127268
    38  C    0.046305
    39  O   -0.187877
    40  C   -0.005389
    41  C    0.212989
    42  O   -0.256981
    43  O   -0.304874
    44  C    0.157444
    45  H   -0.017701
    46  H   -0.016773
    47  H   -0.041363
    48  H    0.001153
    49  H   -0.004301
    50  H    0.025613
    51  H    0.016485
    52  H    0.016642
    53  H    0.010618
    54  H    0.044236
    55  H    0.018144
    56  H    0.017541
    57  H    0.005765
    58  H    0.026888
    59  H    0.038788
    60  H    0.037406
    61  H    0.035617
    62  H    0.030803
    63  H    0.016624
    64  H    0.009585
    65  H    0.023315
    66  H    0.012546
    67  H    0.004837
    68  H    0.006515
    69  H    0.004749
    70  H    0.008952
    71  H    0.017947
    72  H    0.028903
    73  H    0.047855
    74  H    0.009115
    75  H    0.046173
    76  H    0.035254
    77  H    0.043335
    78  H    0.046137
    79  H    0.054234
    80  Mg   0.838044
    81  C   -0.016701
    82  C   -0.087911
    83  C   -0.045443
    84  C   -0.064444
    85  N   -0.254522
    86  C   -0.049510
    87  C   -0.015104
    88  C   -0.090615
    89  C    0.045869
    90  C    0.114401
    91  C    0.062593
    92  C   -0.077633
    93  H    0.034578
    94  N   -0.423455
    95  C    0.162868
    96  C   -0.174859
    97  C   -0.007900
    98  C    0.152001
    99  C    0.099501
   100  C    0.015484
   101  O   -0.253312
   102  C    0.061260
   103  N   -0.349950
   104  C    0.037530
   105  C   -0.019852
   106  C   -0.034863
   107  C    0.088967
   108  C    0.073671
   109  C    0.034751
   110  C   -0.007630
   111  N   -0.324272
   112  C    0.078650
   113  C   -0.162611
   114  C    0.002674
   115  C    0.096270
   116  C    0.131315
   117  C    0.042931
   118  O   -0.187482
   119  C    0.000658
   120  C    0.211164
   121  O   -0.251244
   122  O   -0.305488
   123  C    0.152130
   124  H   -0.020277
   125  H   -0.015703
   126  H   -0.040237
   127  H   -0.000540
   128  H   -0.004927
   129  H    0.023529
   130  H    0.014700
   131  H    0.015181
   132  H    0.013783
   133  H    0.037691
   134  H    0.020608
   135  H    0.019238
   136  H    0.008280
   137  H    0.025819
   138  H    0.039435
   139  H    0.038120
   140  H    0.036185
   141  H    0.033686
   142  H    0.014163
   143  H    0.012720
   144  H    0.024803
   145  H    0.011962
   146  H    0.005682
   147  H    0.006051
   148  H    0.003736
   149  H    0.010790
   150  H    0.017777
   151  H    0.030138
   152  H    0.045838
   153  H    0.008323
   154  H    0.048534
   155  H    0.035941
   156  H    0.043843
   157  H    0.049168
   158  H    0.053450
 Sum of Mulliken charges =  -0.00000

 Dipole moment (field-independent basis, Debye):
    X=             -3.9589    Y=             -2.2323    Z=             -7.5286  Tot=              8.7941
 Quadrupole moment (field-independent basis, Debye-Ang):
   XX=           -517.9632   YY=           -549.0395   ZZ=           -450.0508
   XY=            -12.2861   XZ=              1.6270   YZ=            -46.0212

 Normal termination of Gaussian 16 at Sat Sep 11 14:35:26 2021.
