 Gaussian 16, Revision A.03,
 Gaussian 16:  ES64L-G16RevA.03 25-Dec-2016

 -----------------------------------
 #p cam-b3lyp/Def2SVP td=(nstates=5)
 -----------------------------------

 --------------------------------
 TDDFT excited states in gaussian
 --------------------------------
 Symbolic Z-matrix:
 Charge =  0 Multiplicity = 1

                         Standard orientation:
 ---------------------------------------------------------------------
 Center     Atomic      Atomic             Coordinates (Angstroms)
 Number     Number       Type             X           Y           Z
 ---------------------------------------------------------------------
      1         12           0       -6.512333    0.630777    0.496711
      2          6           0       -6.925797   -2.064151   -1.822475
      3          6           0       -7.182091   -1.605292    2.985584
      4          6           0       -6.601186    3.072605    2.518147
      5          6           0       -6.999507    2.811676   -2.177611
      6          7           0       -6.977490   -1.533235    0.460234
      7          6           0       -7.046561   -2.461373   -0.488955
      8          6           0       -7.184077   -3.908734    0.071053
      9          6           0       -7.815046   -3.568718    1.495225
     10          6           0       -7.264256   -2.165208    1.676090
     11          6           0       -9.338801   -3.500986    1.486042
     12          6           0       -5.799037   -4.624885    0.214308
     13          6           0       -5.866182   -6.137957    0.441156
     14          1           0       -4.840945   -6.981528   -0.154349
     15          7           0       -6.361167    0.669826    2.466096
     16          6           0       -6.660946   -0.337039    3.321457
     17          6           0       -6.381324    0.183050    4.677185
     18          6           0       -6.075699    1.635407    4.553297
     19          6           0       -6.363139    1.859310    3.159517
     20          6           0       -6.372563   -0.677706    5.903061
     21          6           0       -5.610124    2.661335    5.537595
     22          8           0       -5.629300    3.912682    5.276181
     23          6           0       -5.208812    2.163022    6.865630
     24          7           0       -6.980887    2.651521    0.262862
     25          6           0       -6.883695    3.505498    1.287685
     26          6           0       -6.991011    4.928261    0.824903
     27          6           0       -6.938888    4.879379   -0.770292
     28          6           0       -6.889983    3.342920   -0.957835
     29          6           0       -8.250099    5.684111    1.271445
     30          6           0       -5.855751    5.742100   -1.465234
     31          6           0       -4.482112    5.194985   -1.147618
     32          7           0       -6.719775    0.447828   -1.656087
     33          6           0       -6.937154    1.486042   -2.573438
     34          6           0       -7.118559    0.862086   -3.897009
     35          6           0       -7.009891   -0.505641   -3.653369
     36          6           0       -6.801625   -0.723708   -2.261476
     37          6           0       -7.407570    1.548477   -5.109351
     38          6           0       -7.045842   -1.834852   -4.241385
     39          8           0       -7.097573   -2.273192   -5.391461
     40          6           0       -7.114493   -2.902753   -3.062106
     41          6           0       -6.092275   -3.967518   -3.353062
     42          8           0       -4.872054   -3.707327   -3.326075
     43          8           0       -6.694785   -5.166134   -3.382094
     44          6           0       -5.731445   -6.270259   -3.637118
     45          1           0       -7.607716   -2.159644    3.824320
     46          1           0       -6.530160    3.950683    3.163416
     47          1           0       -7.071357    3.433444   -3.071868
     48          1           0       -7.860878   -4.551561   -0.492097
     49          1           0       -7.436266   -4.227972    2.276015
     50          1           0       -9.734581   -3.570401    0.472898
     51          1           0       -9.589936   -2.536388    1.927601
     52          1           0       -9.764026   -4.254201    2.149840
     53          1           0       -5.330592   -4.317709    1.149328
     54          1           0       -5.166348   -4.417552   -0.649430
     55          1           0       -6.859294   -6.530369    0.220590
     56          1           0       -5.729156   -6.330181    1.505333
     57          1           0       -6.795349   -1.661762    5.704489
     58          1           0       -7.061914   -0.224568    6.615219
     59          1           0       -5.379600   -0.749249    6.347177
     60          1           0       -6.050391    1.643709    7.324549
     61          1           0       -4.820935    3.025841    7.405950
     62          1           0       -4.421096    1.419514    6.740538
     63          1           0       -6.155263    5.522836    1.191551
     64          1           0       -7.874031    5.213283   -1.220501
     65          1           0       -8.038225    6.599564    1.824401
     66          1           0       -8.860435    5.002312    1.862994
     67          1           0       -8.935950    5.945646    0.466072
     68          1           0       -5.888013    6.764838   -1.091186
     69          1           0       -5.966914    5.781634   -2.548900
     70          1           0       -4.259294    5.643254   -0.180024
     71          1           0       -3.761698    5.514780   -1.901240
     72          1           0       -4.506630    4.114054   -1.008069
     73          1           0       -6.774277    1.097843   -5.873443
     74          1           0       -7.215158    2.616970   -5.014990
     75          1           0       -8.468117    1.323430   -5.220927
     76          1           0       -8.129141   -3.299728   -3.057371
     77          1           0       -6.090350   -6.813909   -4.511113
     78          1           0       -5.637534   -6.821840   -2.701520
     79          1           0       -4.736952   -5.974343   -3.972909
     80         12           0        6.675294    0.589758   -0.640794
     81          6           0        6.639701   -2.331732    1.443125
     82          6           0        6.044778    2.418579    2.168566
     83          6           0        6.253672    3.122804   -2.504487
     84          6           0        6.163347   -1.519124   -3.367733
     85          7           0        6.399473    0.005012    1.474454
     86          6           0        6.468999   -1.127621    2.157568
     87          6           0        6.429228   -0.952298    3.699396
     88          6           0        5.676613    0.464970    3.760928
     89          6           0        6.089864    1.020464    2.399559
     90          6           0        4.162207    0.341565    3.786711
     91          6           0        7.864160   -0.868480    4.328651
     92          6           0        7.907471   -1.007545    5.851978
     93          1           0        9.043284   -1.698797    6.455780
     94          7           0        6.703458    2.525241   -0.202986
     95          6           0        6.445064    3.092628    0.993934
     96          6           0        6.577196    4.543299    0.788401
     97          6           0        6.772824    4.795221   -0.665210
     98          6           0        6.558762    3.463349   -1.194712
     99          6           0        6.592746    5.527616    1.921677
    100          6           0        7.086394    6.032810   -1.450228
    101          8           0        6.976579    6.066301   -2.726802
    102          6           0        7.435619    7.231081   -0.673265
    103          7           0        6.057635    0.800789   -2.614701
    104          6           0        6.011148    2.010933   -3.198918
    105          6           0        5.806646    1.889248   -4.690152
    106          6           0        5.968009    0.332798   -5.020321
    107          6           0        6.157762   -0.211509   -3.587454
    108          6           0        4.461111    2.384733   -5.219705
    109          6           0        7.014156   -0.052430   -6.101921
    110          6           0        8.408795    0.245362   -5.600222
    111          7           0        6.624376   -1.545302   -0.967865
    112          6           0        6.368393   -2.216087   -2.183845
    113          6           0        6.325329   -3.661769   -1.882882
    114          6           0        6.538061   -3.730833   -0.497791
    115          6           0        6.682009   -2.419497    0.030592
    116          6           0        6.064632   -4.699506   -2.821624
    117          6           0        6.662995   -4.614282    0.639130
    118          8           0        6.714186   -5.834296    0.789731
    119          6           0        6.608300   -3.741032    1.966093
    120          6           0        7.735333   -4.182187    2.859231
    121          8           0        8.918190   -4.003298    2.519425
    122          8           0        7.234817   -4.541829    4.055274
    123          6           0        8.315597   -4.976774    4.979687
    124          1           0        5.623832    3.059239    2.943963
    125          1           0        6.207206    3.955891   -3.209667
    126          1           0        6.106124   -2.247681   -4.179283
    127          1           0        5.852804   -1.702613    4.227180
    128          1           0        6.069439    1.086365    4.561501
    129          1           0        3.838512   -0.678116    3.639691
    130          1           0        3.801966    0.972249    2.984522
    131          1           0        3.764591    0.772032    4.710255
    132          1           0        8.242273    0.156491    4.222722
    133          1           0        8.519208   -1.590450    3.881115
    134          1           0        6.963764   -1.391822    6.257803
    135          1           0        8.000829   -0.010363    6.288951
    136          1           0        6.263094    5.065498    2.860395
    137          1           0        5.824987    6.277979    1.704038
    138          1           0        7.556580    6.029449    2.030513
    139          1           0        6.616540    7.477511   -0.001820
    140          1           0        7.713166    7.986832   -1.410617
    141          1           0        8.300871    6.999039   -0.042295
    142          1           0        6.563941    2.443538   -5.230851
    143          1           0        5.031996   -0.102276   -5.400372
    144          1           0        4.558880    3.166472   -5.996494
    145          1           0        3.878891    2.749741   -4.384046
    146          1           0        3.814297    1.612210   -5.632041
    147          1           0        6.871307    0.553754   -6.999857
    148          1           0        6.960078   -1.093041   -6.403894
    149          1           0        8.525649    1.311899   -5.814534
    150          1           0        9.144574   -0.348387   -6.138850
    151          1           0        8.471388    0.118783   -4.513157
    152          1           0        6.773670   -5.490447   -2.616276
    153          1           0        6.152980   -4.341172   -3.845132
    154          1           0        5.031659   -4.944128   -2.560085
    155          1           0        5.633119   -3.904998    2.426201
    156          1           0        8.057176   -5.983567    5.322123
    157          1           0        8.386574   -4.185585    5.749589
    158          1           0        9.299630   -5.143135    4.557256
 ---------------------------------------------------------------------

 SCF Done:  E(RCAM-B3LYP) =  -4069.81185846     A.U. after   19 cycles

 Excitation energies and oscillator strengths:

 Excited State   1:      Singlet-A      1.6732 eV  740.99 nm  f=0.3048  <S**2>=0.000
     310 -> 316        0.15381
     311 -> 313       -0.31423
     312 -> 314        0.60988
 This state for optimization and/or second-order correction.
 Total Energy, E(TD-HF/TD-DFT) =  -4069.75036890
 Copying the excited state density for this state as the 1-particle RhoCI density.

 Excited State   2:      Singlet-A      1.6804 eV  737.82 nm  f=0.4264  <S**2>=0.000
     309 -> 315        0.15590
     311 -> 313        0.60944
     312 -> 314        0.31414

 Excited State   3:      Singlet-A      2.1856 eV  567.27 nm  f=0.0996  <S**2>=0.000
     310 -> 314        0.64204
     312 -> 316       -0.27278

 Excited State   4:      Singlet-A      2.1918 eV  565.68 nm  f=0.0992  <S**2>=0.000
     309 -> 313        0.64032
     311 -> 315       -0.27745

 Excited State   5:      Singlet-A      2.6503 eV  467.81 nm  f=0.0000  <S**2>=0.000
     312 -> 313        0.70710

 The electronic state is 1-A.
 Alpha  occ. eigenvalues --  -46.87853 -46.87558 -19.26318 -19.26298 -19.19117
 Alpha  occ. eigenvalues --  -19.19043 -19.18906 -19.18624 -19.18217 -19.17973
 Alpha  occ. eigenvalues --  -14.42501 -14.42401 -14.41505 -14.41249 -14.39462
 Alpha  occ. eigenvalues --  -14.39251 -14.38642 -14.38498 -10.39104 -10.39044
 Alpha  occ. eigenvalues --  -10.35541 -10.35302 -10.34435 -10.34152 -10.31743
 Alpha  occ. eigenvalues --  -10.31677 -10.31449 -10.31217 -10.30959 -10.30937
 Alpha  occ. eigenvalues --  -10.30622 -10.30567 -10.30294 -10.30268 -10.30261
 Alpha  occ. eigenvalues --  -10.30025 -10.29977 -10.29780 -10.29691 -10.29332
 Alpha  occ. eigenvalues --  -10.29316 -10.29302 -10.28775 -10.28659 -10.28630
 Alpha  occ. eigenvalues --  -10.28523 -10.28421 -10.28311 -10.28146 -10.28073
 Alpha  occ. eigenvalues --  -10.27903 -10.27850 -10.27778 -10.27649 -10.27572
 Alpha  occ. eigenvalues --  -10.27560 -10.27551 -10.27512 -10.27454 -10.27390
 Alpha  occ. eigenvalues --  -10.27378 -10.27374 -10.27368 -10.27237 -10.27196
 Alpha  occ. eigenvalues --  -10.26982 -10.26714 -10.26647 -10.26526 -10.26337
 Alpha  occ. eigenvalues --  -10.26262 -10.26242 -10.26075 -10.26004 -10.25963
 Alpha  occ. eigenvalues --  -10.25893 -10.25820 -10.25730 -10.25496 -10.25227
 Alpha  occ. eigenvalues --  -10.24888 -10.24847 -10.24775 -10.24751 -10.24616
 Alpha  occ. eigenvalues --  -10.24584  -3.16596  -3.16308  -1.91477  -1.91190
 Alpha  occ. eigenvalues --   -1.91064  -1.90906  -1.90778  -1.90615  -1.16649
 Alpha  occ. eigenvalues --   -1.16609  -1.08672  -1.08584  -1.07309  -1.06901
 Alpha  occ. eigenvalues --   -1.06877  -1.06665  -1.04631  -1.04401  -1.03816
 Alpha  occ. eigenvalues --   -1.03561  -1.03291  -1.02931  -1.02467  -1.02008
 Alpha  occ. eigenvalues --   -0.92021  -0.91897  -0.89577  -0.89381  -0.89218
 Alpha  occ. eigenvalues --   -0.89081  -0.88344  -0.88098  -0.87923  -0.87720
 Alpha  occ. eigenvalues --   -0.87690  -0.87588  -0.87346  -0.87027  -0.85019
 Alpha  occ. eigenvalues --   -0.84924  -0.83993  -0.83757  -0.83050  -0.82836
 Alpha  occ. eigenvalues --   -0.82693  -0.82575  -0.81620  -0.81527  -0.80644
 Alpha  occ. eigenvalues --   -0.80362  -0.78861  -0.78538  -0.77267  -0.77057
 Alpha  occ. eigenvalues --   -0.76967  -0.76816  -0.75959  -0.75764  -0.74951
 Alpha  occ. eigenvalues --   -0.74685  -0.72828  -0.72597  -0.71720  -0.71482
 Alpha  occ. eigenvalues --   -0.69965  -0.69634  -0.68916  -0.68750  -0.67697
 Alpha  occ. eigenvalues --   -0.67509  -0.67258  -0.67131  -0.65322  -0.65199
 Alpha  occ. eigenvalues --   -0.64900  -0.64677  -0.64664  -0.64572  -0.64325
 Alpha  occ. eigenvalues --   -0.64090  -0.62330  -0.62209  -0.60510  -0.60239
 Alpha  occ. eigenvalues --   -0.59844  -0.59718  -0.59038  -0.58894  -0.58555
 Alpha  occ. eigenvalues --   -0.58332  -0.57625  -0.57483  -0.57364  -0.57134
 Alpha  occ. eigenvalues --   -0.56365  -0.56112  -0.56004  -0.55826  -0.55582
 Alpha  occ. eigenvalues --   -0.55388  -0.55374  -0.55146  -0.54565  -0.54395
 Alpha  occ. eigenvalues --   -0.53926  -0.53844  -0.53361  -0.53271  -0.53132
 Alpha  occ. eigenvalues --   -0.53064  -0.52960  -0.52826  -0.52818  -0.52588
 Alpha  occ. eigenvalues --   -0.52496  -0.52284  -0.51966  -0.51776  -0.51658
 Alpha  occ. eigenvalues --   -0.51588  -0.51242  -0.51113  -0.50655  -0.50384
 Alpha  occ. eigenvalues --   -0.50090  -0.49985  -0.49895  -0.49749  -0.49566
 Alpha  occ. eigenvalues --   -0.49406  -0.49267  -0.49131  -0.49123  -0.49027
 Alpha  occ. eigenvalues --   -0.48633  -0.48531  -0.48501  -0.48482  -0.48266
 Alpha  occ. eigenvalues --   -0.48247  -0.47746  -0.47508  -0.47353  -0.47020
 Alpha  occ. eigenvalues --   -0.46846  -0.46612  -0.46589  -0.46479  -0.46413
 Alpha  occ. eigenvalues --   -0.46211  -0.46170  -0.45980  -0.45859  -0.45739
 Alpha  occ. eigenvalues --   -0.45258  -0.45089  -0.44624  -0.44565  -0.44436
 Alpha  occ. eigenvalues --   -0.44392  -0.44202  -0.44126  -0.44071  -0.44047
 Alpha  occ. eigenvalues --   -0.43979  -0.43859  -0.43533  -0.43482  -0.43431
 Alpha  occ. eigenvalues --   -0.43299  -0.43076  -0.42870  -0.42809  -0.42744
 Alpha  occ. eigenvalues --   -0.42692  -0.42441  -0.42057  -0.41868  -0.41754
 Alpha  occ. eigenvalues --   -0.41580  -0.41568  -0.41378  -0.41188  -0.40918
 Alpha  occ. eigenvalues --   -0.40897  -0.40891  -0.40643  -0.40623  -0.40618
 Alpha  occ. eigenvalues --   -0.40380  -0.40256  -0.40170  -0.39500  -0.39302
 Alpha  occ. eigenvalues --   -0.38521  -0.38235  -0.37773  -0.37590  -0.37374
 Alpha  occ. eigenvalues --   -0.37299  -0.37158  -0.37116  -0.36745  -0.36712
 Alpha  occ. eigenvalues --   -0.36233  -0.36119  -0.34339  -0.34155  -0.33807
 Alpha  occ. eigenvalues --   -0.33800  -0.33239  -0.33075  -0.31434  -0.31182
 Alpha  occ. eigenvalues --   -0.31090  -0.30875  -0.30075  -0.29879  -0.29514
 Alpha  occ. eigenvalues --   -0.29378  -0.29230  -0.29112  -0.24134  -0.23934
 Alpha  occ. eigenvalues --   -0.21183  -0.21015
 Alpha virt. eigenvalues --   -0.08833  -0.08692  -0.01809  -0.01580  -0.00125
 Alpha virt. eigenvalues --    0.00061   0.02146   0.02301   0.03056   0.03320
 Alpha virt. eigenvalues --    0.04679   0.04818   0.05072   0.05215   0.06166

 Mulliken charges:
               1
     1  Mg   0.838617
     2  C   -0.002899
     3  C   -0.094004
     4  C   -0.046105
     5  C   -0.063993
     6  N   -0.256813
     7  C   -0.052318
     8  C   -0.013978
     9  C   -0.086999
    10  C    0.046309
    11  C    0.104781
    12  C    0.053407
    13  C   -0.072190
    14  H    0.037091
    15  N   -0.433102
    16  C    0.168269
    17  C   -0.177238
    18  C   -0.004305
    19  C    0.148649
    20  C    0.110157
    21  C    0.011862
    22  O   -0.249969
    23  C    0.062679
    24  N   -0.341155
    25  C    0.041264
    26  C   -0.028121
    27  C   -0.024006
    28  C    0.074902
    29  C    0.076170
    30  C    0.035138
    31  C   -0.004505
    32  N   -0.310519
    33  C    0.080505
    34  C   -0.169689
    35  C    0.008414
    36  C    0.083013
    37  C    0.127311
    38  C    0.046127
    39  O   -0.188232
    40  C   -0.005304
    41  C    0.212907
    42  O   -0.257133
    43  O   -0.304781
    44  C    0.157612
    45  H   -0.017482
    46  H   -0.017086
    47  H   -0.041389
    48  H    0.001094
    49  H   -0.003832
    50  H    0.025527
    51  H    0.016341
    52  H    0.016831
    53  H    0.011169
    54  H    0.044181
    55  H    0.017850
    56  H    0.018103
    57  H    0.006150
    58  H    0.026818
    59  H    0.039104
    60  H    0.037673
    61  H    0.035063
    62  H    0.030905
    63  H    0.016224
    64  H    0.009587
    65  H    0.023060
    66  H    0.012607
    67  H    0.004883
    68  H    0.006352
    69  H    0.004949
    70  H    0.008323
    71  H    0.018505
    72  H    0.028901
    73  H    0.047580
    74  H    0.009184
    75  H    0.046161
    76  H    0.035309
    77  H    0.043051
    78  H    0.046722
    79  H    0.053756
    80  Mg   0.838171
    81  C   -0.016977
    82  C   -0.087904
    83  C   -0.045421
    84  C   -0.063968
    85  N   -0.254541
    86  C   -0.049826
    87  C   -0.015091
    88  C   -0.090521
    89  C    0.045752
    90  C    0.114398
    91  C    0.062596
    92  C   -0.077668
    93  H    0.034557
    94  N   -0.423529
    95  C    0.162914
    96  C   -0.174635
    97  C   -0.007851
    98  C    0.152181
    99  C    0.099372
   100  C    0.015480
   101  O   -0.253209
   102  C    0.061232
   103  N   -0.349975
   104  C    0.037790
   105  C   -0.020042
   106  C   -0.034981
   107  C    0.088909
   108  C    0.073313
   109  C    0.034665
   110  C   -0.007628
   111  N   -0.324145
   112  C    0.078423
   113  C   -0.162718
   114  C    0.002143
   115  C    0.096319
   116  C    0.131459
   117  C    0.042374
   118  O   -0.188385
   119  C    0.000894
   120  C    0.211178
   121  O   -0.251023
   122  O   -0.305783
   123  C    0.152122
   124  H   -0.019738
   125  H   -0.015535
   126  H   -0.039935
   127  H   -0.001169
   128  H   -0.004588
   129  H    0.022151
   130  H    0.015110
   131  H    0.015706
   132  H    0.013989
   133  H    0.037633
   134  H    0.020351
   135  H    0.019537
   136  H    0.008677
   137  H    0.026218
   138  H    0.039527
   139  H    0.038247
   140  H    0.036198
   141  H    0.033761
   142  H    0.014130
   143  H    0.013723
   144  H    0.024816
   145  H    0.011871
   146  H    0.007136
   147  H    0.006414
   148  H    0.003849
   149  H    0.010782
   150  H    0.017711
   151  H    0.029862
   152  H    0.045558
   153  H    0.008784
   154  H    0.047718
   155  H    0.034673
   156  H    0.043509
   157  H    0.049335
   158  H    0.053572
 Sum of Mulliken charges =  -0.00000

 Dipole moment (field-independent basis, Debye):
    X=             -3.5225    Y=              1.8643    Z=              6.2830  Tot=              7.4404
 Quadrupole moment (field-independent basis, Debye-Ang):
   XX=           -519.0539   YY=           -511.8370   ZZ=           -487.1158
   XY=             35.2423   XZ=             -8.1712   YZ=            -11.7928

 Normal termination of Gaussian 16 at Sat Sep  4 09:48:06 2021.
