 Gaussian 16, Revision A.03,
 Gaussian 16:  ES64L-G16RevA.03 25-Dec-2016

 -----------------------------------
 #p cam-b3lyp/Def2SVP td=(nstates=5)
 -----------------------------------

 --------------------------------
 TDDFT excited states in gaussian
 --------------------------------
 Symbolic Z-matrix:
 Charge =  0 Multiplicity = 1

                         Standard orientation:
 ---------------------------------------------------------------------
 Center     Atomic      Atomic             Coordinates (Angstroms)
 Number     Number       Type             X           Y           Z
 ---------------------------------------------------------------------
      1         12           0        4.108508   -1.638059    0.089847
      2          6           0        5.459537    1.398669   -1.238767
      3          6           0        5.508946   -0.777996    3.080186
      4          6           0        3.318541   -4.515414    1.163811
      5          6           0        3.811215   -2.768871   -3.193223
      6          7           0        5.307106    0.114472    0.716459
      7          6           0        5.704683    1.237560    0.126733
      8          6           0        6.340428    2.261959    1.113552
      9          6           0        6.802475    1.254235    2.259415
     10          6           0        5.791069    0.145071    2.029764
     11          6           0        8.204484    0.692134    2.047483
     12          6           0        5.296080    3.298441    1.649066
     13          6           0        5.891129    4.520825    2.354084
     14          1           0        5.232792    5.809001    2.197424
     15          7           0        3.941569   -2.314222    1.938572
     16          6           0        4.572055   -1.833093    3.036883
     17          6           0        4.118933   -2.671974    4.167211
     18          6           0        3.321526   -3.798200    3.606986
     19          6           0        3.519831   -3.599768    2.193947
     20          6           0        4.406978   -2.346494    5.600683
     21          6           0        2.518230   -4.887545    4.244304
     22          8           0        2.096455   -5.897355    3.583271
     23          6           0        2.310530   -4.784857    5.700105
     24          7           0        3.835750   -3.480261   -0.853302
     25          6           0        3.437561   -4.555680   -0.164895
     26          6           0        3.039013   -5.674029   -1.081624
     27          6           0        3.016967   -5.053263   -2.552649
     28          6           0        3.514136   -3.626221   -2.214059
     29          6           0        3.947993   -6.910728   -1.063162
     30          6           0        1.703337   -5.204450   -3.360076
     31          6           0        0.609012   -4.380998   -2.718610
     32          7           0        4.379942   -0.790162   -1.889658
     33          6           0        4.222695   -1.448694   -3.117780
     34          6           0        4.620349   -0.497582   -4.171975
     35          6           0        4.999528    0.650065   -3.478451
     36          6           0        4.873263    0.420895   -2.078511
     37          6           0        4.655952   -0.768265   -5.568362
     38          6           0        5.505399    2.008275   -3.593421
     39          8           0        5.715224    2.779001   -4.531209
     40          6           0        5.939206    2.505740   -2.144226
     41          6           0        5.359884    3.879488   -1.942948
     42          8           0        4.126160    4.047491   -1.858887
     43          8           0        6.346529    4.738762   -1.645088
     44          6           0        5.835968    6.114780   -1.404140
     45          1           0        6.097717   -0.728908    3.998271
     46          1           0        2.938596   -5.487216    1.485808
     47          1           0        3.664510   -3.022668   -4.244659
     48          1           0        7.203774    2.797801    0.718670
     49          1           0        6.675869    1.682655    3.253472
     50          1           0        8.605337    0.977547    1.074973
     51          1           0        8.096699   -0.390791    2.111892
     52          1           0        8.864048    0.976909    2.867639
     53          1           0        4.743852    2.856502    2.478400
     54          1           0        4.636072    3.630657    0.846977
     55          1           0        6.960116    4.612017    2.159511
     56          1           0        5.824363    4.360558    3.430214
     57          1           0        5.150794   -1.555751    5.690172
     58          1           0        4.888001   -3.222371    6.035613
     59          1           0        3.500409   -2.110202    6.158026
     60          1           0        3.278430   -4.771082    6.201632
     61          1           0        1.640100   -5.601188    5.966522
     62          1           0        1.836367   -3.828486    5.922527
     63          1           0        2.045117   -6.045782   -0.835865
     64          1           0        3.776949   -5.497861   -3.195638
     65          1           0        3.423620   -7.836023   -0.823229
     66          1           0        4.756019   -6.724546   -0.356252
     67          1           0        4.502335   -7.084359   -1.985103
     68          1           0        1.370643   -6.241850   -3.352117
     69          1           0        1.799862   -4.895093   -4.400860
     70          1           0        0.236678   -5.039460   -1.934628
     71          1           0       -0.173397   -4.156791   -3.444404
     72          1           0        1.012302   -3.492034   -2.233238
     73          1           0        4.226811    0.105057   -6.059396
     74          1           0        4.098551   -1.672797   -5.810702
     75          1           0        5.728373   -0.884271   -5.724282
     76          1           0        7.028614    2.514587   -2.128924
     77          1           0        6.368722    6.778637   -2.085096
     78          1           0        5.937035    6.299937   -0.334603
     79          1           0        4.803026    6.304055   -1.698326
     80         12           0       -4.269920    1.640068    0.427849
     81          6           0       -5.366246   -1.619862   -0.596838
     82          6           0       -3.261169    2.148644   -2.790595
     83          6           0       -2.890425    4.330480    1.390206
     84          6           0       -4.305819    0.468212    3.709798
     85          7           0       -4.356968    0.355419   -1.370581
     86          6           0       -4.851442   -0.840307   -1.653574
     87          6           0       -4.864031   -1.189614   -3.165982
     88          6           0       -3.684939   -0.211922   -3.648416
     89          6           0       -3.790035    0.853689   -2.559333
     90          6           0       -2.306088   -0.845346   -3.565404
     91          6           0       -6.227822   -0.826830   -3.851905
     92          6           0       -6.422856   -1.420044   -5.248976
     93          1           0       -7.764619   -1.836726   -5.647110
     94          7           0       -3.676348    3.222440   -0.612509
     95          6           0       -3.327417    3.255263   -1.915751
     96          6           0       -2.949074    4.648999   -2.195968
     97          6           0       -2.945391    5.401283   -0.911919
     98          6           0       -3.154913    4.318716    0.028421
     99          6           0       -2.712682    5.164254   -3.585953
    100          6           0       -2.768190    6.852821   -0.583569
    101          8           0       -2.563630    7.251445    0.617298
    102          6           0       -2.748021    7.784488   -1.720714
    103          7           0       -3.479481    2.244685    2.253225
    104          6           0       -2.987578    3.485336    2.416670
    105          6           0       -2.731115    3.782737    3.874810
    106          6           0       -3.382800    2.565983    4.682527
    107          6           0       -3.845267    1.692984    3.495351
    108          6           0       -1.263496    3.931153    4.275354
    109          6           0       -4.418403    2.926024    5.782789
    110          6           0       -5.663376    3.504970    5.150143
    111          7           0       -4.917075   -0.161846    1.429008
    112          6           0       -4.816394   -0.455348    2.806625
    113          6           0       -5.283428   -1.844705    2.991029
    114          6           0       -5.604261   -2.274259    1.694479
    115          6           0       -5.335737   -1.233396    0.764953
    116          6           0       -5.321316   -2.552681    4.225301
    117          6           0       -6.099017   -3.375146    0.899509
    118          8           0       -6.568043   -4.484884    1.148959
    119          6           0       -5.847688   -3.043733   -0.634562
    120          6           0       -7.117532   -3.334276   -1.386628
    121          8           0       -8.144172   -2.664790   -1.175921
    122          8           0       -6.852926   -4.203740   -2.378791
    123          6           0       -8.079460   -4.514502   -3.160369
    124          1           0       -2.705163    2.325083   -3.711793
    125          1           0       -2.516798    5.276103    1.789807
    126          1           0       -4.439789    0.062587    4.714877
    127          1           0       -4.612342   -2.217789   -3.396847
    128          1           0       -3.901392    0.216758   -4.623478
    129          1           0       -2.334669   -1.810865   -3.082603
    130          1           0       -1.699023   -0.154800   -2.994730
    131          1           0       -1.853144   -0.894052   -4.559794
    132          1           0       -6.230696    0.242426   -4.099723
    133          1           0       -7.054175   -1.099812   -3.224818
    134          1           0       -5.694534   -2.210747   -5.466399
    135          1           0       -6.206019   -0.645239   -5.988336
    136          1           0       -2.624828    4.344287   -4.309384
    137          1           0       -1.723947    5.635699   -3.588367
    138          1           0       -3.456716    5.901968   -3.893924
    139          1           0       -1.943377    7.509613   -2.398540
    140          1           0       -2.702411    8.782346   -1.280179
    141          1           0       -3.683173    7.673184   -2.280813
    142          1           0       -3.217682    4.703260    4.173138
    143          1           0       -2.623288    1.983157    5.224079
    144          1           0       -1.037523    4.903296    4.752797
    145          1           0       -0.652987    3.789601    3.393431
    146          1           0       -0.886760    3.158625    4.943546
    147          1           0       -4.016958    3.699445    6.442192
    148          1           0       -4.696261    2.083198    6.406822
    149          1           0       -5.399275    4.556487    5.003002
    150          1           0       -6.516001    3.401924    5.818317
    151          1           0       -5.841509    3.068255    4.160599
    152          1           0       -6.267692   -3.076129    4.255058
    153          1           0       -5.211481   -1.879756    5.073170
    154          1           0       -4.452005   -3.204325    4.103131
    155          1           0       -5.019539   -3.667553   -0.973079
    156          1           0       -8.199571   -5.602202   -3.147340
    157          1           0       -7.934397   -4.035525   -4.146925
    158          1           0       -9.029682   -4.191873   -2.751166
 ---------------------------------------------------------------------

 SCF Done:  E(RCAM-B3LYP) =  -4069.81207127     A.U. after   19 cycles

 Excitation energies and oscillator strengths:

 Excited State   1:      Singlet-A      1.6531 eV  749.99 nm  f=0.0776  <S**2>=0.000
     309 -> 315        0.11511
     310 -> 316        0.12238
     311 -> 313        0.46862
     312 -> 314        0.50264
 This state for optimization and/or second-order correction.
 Total Energy, E(TD-HF/TD-DFT) =  -4069.75131957
 Copying the excited state density for this state as the 1-particle RhoCI density.

 Excited State   2:      Singlet-A      1.6989 eV  729.80 nm  f=0.6076  <S**2>=0.000
     309 -> 315        0.13190
     310 -> 316       -0.12260
     311 -> 313        0.50054
     312 -> 314       -0.46685

 Excited State   3:      Singlet-A      2.1849 eV  567.46 nm  f=0.0318  <S**2>=0.000
     309 -> 313        0.34626
     310 -> 314        0.54290
     311 -> 315       -0.14480
     312 -> 316       -0.22841

 Excited State   4:      Singlet-A      2.1952 eV  564.80 nm  f=0.1518  <S**2>=0.000
     309 -> 313        0.53947
     310 -> 314       -0.34279
     311 -> 315       -0.23663
     312 -> 316        0.15102

 Excited State   5:      Singlet-A      2.3435 eV  529.05 nm  f=0.0000  <S**2>=0.000
     312 -> 313        0.70708

 The electronic state is 1-A.
 Alpha  occ. eigenvalues --  -46.87908 -46.87437 -19.26394 -19.26207 -19.19146
 Alpha  occ. eigenvalues --  -19.19002 -19.18882 -19.18468 -19.18315 -19.17831
 Alpha  occ. eigenvalues --  -14.42556 -14.42272 -14.41563 -14.41151 -14.39510
 Alpha  occ. eigenvalues --  -14.39114 -14.38711 -14.38379 -10.39203 -10.38929
 Alpha  occ. eigenvalues --  -10.35513 -10.35142 -10.34533 -10.34013 -10.31769
 Alpha  occ. eigenvalues --  -10.31639 -10.31525 -10.31085 -10.31001 -10.30781
 Alpha  occ. eigenvalues --  -10.30699 -10.30627 -10.30314 -10.30183 -10.30130
 Alpha  occ. eigenvalues --  -10.30041 -10.29928 -10.29753 -10.29714 -10.29365
 Alpha  occ. eigenvalues --  -10.29188 -10.29168 -10.28823 -10.28555 -10.28517
 Alpha  occ. eigenvalues --  -10.28510 -10.28477 -10.28202 -10.28162 -10.27919
 Alpha  occ. eigenvalues --  -10.27918 -10.27838 -10.27756 -10.27698 -10.27627
 Alpha  occ. eigenvalues --  -10.27582 -10.27548 -10.27513 -10.27413 -10.27408
 Alpha  occ. eigenvalues --  -10.27280 -10.27265 -10.27263 -10.27213 -10.27077
 Alpha  occ. eigenvalues --  -10.26851 -10.26751 -10.26515 -10.26463 -10.26355
 Alpha  occ. eigenvalues --  -10.26316 -10.26148 -10.26138 -10.26062 -10.26042
 Alpha  occ. eigenvalues --  -10.25779 -10.25734 -10.25664 -10.25508 -10.25336
 Alpha  occ. eigenvalues --  -10.24964 -10.24910 -10.24893 -10.24645 -10.24636
 Alpha  occ. eigenvalues --  -10.24477  -3.16651  -3.16188  -1.91532  -1.91119
 Alpha  occ. eigenvalues --   -1.91070  -1.90961  -1.90659  -1.90495  -1.16746
 Alpha  occ. eigenvalues --   -1.16497  -1.08776  -1.08446  -1.07278  -1.06787
 Alpha  occ. eigenvalues --   -1.06768  -1.06719  -1.04688  -1.04267  -1.03871
 Alpha  occ. eigenvalues --   -1.03442  -1.03351  -1.02823  -1.02527  -1.01890
 Alpha  occ. eigenvalues --   -0.92090  -0.91769  -0.89650  -0.89323  -0.89271
 Alpha  occ. eigenvalues --   -0.88940  -0.88406  -0.88070  -0.88017  -0.87777
 Alpha  occ. eigenvalues --   -0.87578  -0.87463  -0.87374  -0.86837  -0.85067
 Alpha  occ. eigenvalues --   -0.84792  -0.84067  -0.83743  -0.83059  -0.82739
 Alpha  occ. eigenvalues --   -0.82696  -0.82431  -0.81698  -0.81414  -0.80703
 Alpha  occ. eigenvalues --   -0.80237  -0.78912  -0.78377  -0.77334  -0.77031
 Alpha  occ. eigenvalues --   -0.76936  -0.76726  -0.76027  -0.75625  -0.75008
 Alpha  occ. eigenvalues --   -0.74650  -0.72899  -0.72481  -0.71776  -0.71384
 Alpha  occ. eigenvalues --   -0.70052  -0.69632  -0.68966  -0.68617  -0.67750
 Alpha  occ. eigenvalues --   -0.67390  -0.67291  -0.66986  -0.65381  -0.65070
 Alpha  occ. eigenvalues --   -0.64969  -0.64728  -0.64570  -0.64463  -0.64391
 Alpha  occ. eigenvalues --   -0.64039  -0.62412  -0.62106  -0.60545  -0.60102
 Alpha  occ. eigenvalues --   -0.59901  -0.59579  -0.59101  -0.58789  -0.58620
 Alpha  occ. eigenvalues --   -0.58222  -0.57710  -0.57424  -0.57361  -0.57041
 Alpha  occ. eigenvalues --   -0.56431  -0.56079  -0.55979  -0.55704  -0.55621
 Alpha  occ. eigenvalues --   -0.55465  -0.55228  -0.55098  -0.54649  -0.54344
 Alpha  occ. eigenvalues --   -0.53977  -0.53706  -0.53413  -0.53313  -0.53031
 Alpha  occ. eigenvalues --   -0.53024  -0.52924  -0.52843  -0.52706  -0.52593
 Alpha  occ. eigenvalues --   -0.52395  -0.52277  -0.52082  -0.51702  -0.51684
 Alpha  occ. eigenvalues --   -0.51436  -0.51320  -0.51008  -0.50662  -0.50207
 Alpha  occ. eigenvalues --   -0.50156  -0.50008  -0.49761  -0.49677  -0.49604
 Alpha  occ. eigenvalues --   -0.49332  -0.49258  -0.49193  -0.48970  -0.48901
 Alpha  occ. eigenvalues --   -0.48706  -0.48574  -0.48533  -0.48359  -0.48222
 Alpha  occ. eigenvalues --   -0.48094  -0.47797  -0.47399  -0.47377  -0.46917
 Alpha  occ. eigenvalues --   -0.46888  -0.46638  -0.46518  -0.46479  -0.46349
 Alpha  occ. eigenvalues --   -0.46286  -0.46050  -0.45953  -0.45909  -0.45644
 Alpha  occ. eigenvalues --   -0.45313  -0.45054  -0.44707  -0.44601  -0.44324
 Alpha  occ. eigenvalues --   -0.44271  -0.44266  -0.44185  -0.44119  -0.43931
 Alpha  occ. eigenvalues --   -0.43879  -0.43699  -0.43617  -0.43482  -0.43388
 Alpha  occ. eigenvalues --   -0.43193  -0.43140  -0.42814  -0.42784  -0.42759
 Alpha  occ. eigenvalues --   -0.42713  -0.42376  -0.42136  -0.41821  -0.41802
 Alpha  occ. eigenvalues --   -0.41618  -0.41466  -0.41269  -0.41240  -0.40968
 Alpha  occ. eigenvalues --   -0.40891  -0.40789  -0.40686  -0.40530  -0.40475
 Alpha  occ. eigenvalues --   -0.40336  -0.40290  -0.40031  -0.39591  -0.39304
 Alpha  occ. eigenvalues --   -0.38576  -0.38204  -0.37819  -0.37467  -0.37435
 Alpha  occ. eigenvalues --   -0.37351  -0.37090  -0.36981  -0.36831  -0.36620
 Alpha  occ. eigenvalues --   -0.36306  -0.36049  -0.34403  -0.34040  -0.33895
 Alpha  occ. eigenvalues --   -0.33690  -0.33304  -0.32954  -0.31412  -0.31143
 Alpha  occ. eigenvalues --   -0.31033  -0.30754  -0.30175  -0.29742  -0.29563
 Alpha  occ. eigenvalues --   -0.29451  -0.29071  -0.28973  -0.24194  -0.23814
 Alpha  occ. eigenvalues --   -0.21245  -0.20889
 Alpha virt. eigenvalues --   -0.08890  -0.08552  -0.01857  -0.01466  -0.00154
 Alpha virt. eigenvalues --    0.00224   0.02067   0.02412   0.02840   0.03490
 Alpha virt. eigenvalues --    0.04626   0.04941   0.04976   0.05334   0.06125

 Mulliken charges:
               1
     1  Mg   0.838922
     2  C   -0.002739
     3  C   -0.094135
     4  C   -0.045459
     5  C   -0.064585
     6  N   -0.256849
     7  C   -0.052311
     8  C   -0.014085
     9  C   -0.087059
    10  C    0.046660
    11  C    0.104757
    12  C    0.053443
    13  C   -0.072509
    14  H    0.037967
    15  N   -0.433294
    16  C    0.168815
    17  C   -0.177047
    18  C   -0.003520
    19  C    0.149123
    20  C    0.110160
    21  C    0.012772
    22  O   -0.248284
    23  C    0.062324
    24  N   -0.341110
    25  C    0.041261
    26  C   -0.028641
    27  C   -0.023945
    28  C    0.074626
    29  C    0.075945
    30  C    0.035628
    31  C   -0.007972
    32  N   -0.310136
    33  C    0.079742
    34  C   -0.171412
    35  C    0.007884
    36  C    0.082431
    37  C    0.127708
    38  C    0.045145
    39  O   -0.189432
    40  C   -0.004949
    41  C    0.212566
    42  O   -0.257636
    43  O   -0.304649
    44  C    0.157880
    45  H   -0.017258
    46  H   -0.015976
    47  H   -0.042348
    48  H    0.000961
    49  H   -0.003787
    50  H    0.025526
    51  H    0.016440
    52  H    0.016966
    53  H    0.011089
    54  H    0.044591
    55  H    0.017635
    56  H    0.017903
    57  H    0.006036
    58  H    0.027366
    59  H    0.039377
    60  H    0.037364
    61  H    0.036745
    62  H    0.030925
    63  H    0.017594
    64  H    0.009637
    65  H    0.024131
    66  H    0.012701
    67  H    0.004773
    68  H    0.007402
    69  H    0.003425
    70  H    0.011285
    71  H    0.017023
    72  H    0.029351
    73  H    0.045708
    74  H    0.008302
    75  H    0.046490
    76  H    0.035385
    77  H    0.042718
    78  H    0.047316
    79  H    0.053267
    80  Mg   0.837671
    81  C   -0.016669
    82  C   -0.086202
    83  C   -0.044379
    84  C   -0.065600
    85  N   -0.254471
    86  C   -0.050207
    87  C   -0.014921
    88  C   -0.091414
    89  C    0.044980
    90  C    0.112232
    91  C    0.062738
    92  C   -0.077487
    93  H    0.034217
    94  N   -0.424140
    95  C    0.162654
    96  C   -0.170363
    97  C   -0.006970
    98  C    0.153138
    99  C    0.097778
   100  C    0.016626
   101  O   -0.254206
   102  C    0.060699
   103  N   -0.349959
   104  C    0.037517
   105  C   -0.019743
   106  C   -0.034293
   107  C    0.088563
   108  C    0.073821
   109  C    0.035012
   110  C   -0.007502
   111  N   -0.323935
   112  C    0.077945
   113  C   -0.163535
   114  C    0.002373
   115  C    0.095625
   116  C    0.131228
   117  C    0.042404
   118  O   -0.188593
   119  C    0.000848
   120  C    0.211155
   121  O   -0.251206
   122  O   -0.305772
   123  C    0.152159
   124  H   -0.016506
   125  H   -0.016051
   126  H   -0.041910
   127  H   -0.001738
   128  H   -0.004291
   129  H    0.023537
   130  H    0.017698
   131  H    0.015853
   132  H    0.014021
   133  H    0.037394
   134  H    0.019986
   135  H    0.019746
   136  H    0.009745
   137  H    0.031535
   138  H    0.038667
   139  H    0.040668
   140  H    0.035221
   141  H    0.033295
   142  H    0.013975
   143  H    0.010446
   144  H    0.023939
   145  H    0.013553
   146  H    0.003152
   147  H    0.005096
   148  H    0.002942
   149  H    0.010718
   150  H    0.017433
   151  H    0.030834
   152  H    0.045426
   153  H    0.007199
   154  H    0.047486
   155  H    0.034912
   156  H    0.043429
   157  H    0.049285
   158  H    0.053429
 Sum of Mulliken charges =  -0.00000

 Dipole moment (field-independent basis, Debye):
    X=              4.8619    Y=              0.9117    Z=              0.7400  Tot=              5.0017
 Quadrupole moment (field-independent basis, Debye-Ang):
   XX=           -526.6604   YY=           -533.5107   ZZ=           -459.8416
   XY=            -17.8838   XZ=             48.5394   YZ=             25.8019

 Normal termination of Gaussian 16 at Fri Sep  3 19:42:04 2021.
