 Gaussian 16, Revision A.03,
 Gaussian 16:  ES64L-G16RevA.03 25-Dec-2016

 -----------------------------------
 #p cam-b3lyp/Def2SVP td=(nstates=5)
 -----------------------------------

 --------------------------------
 TDDFT excited states in gaussian
 --------------------------------
 Symbolic Z-matrix:
 Charge =  0 Multiplicity = 1

                         Standard orientation:
 ---------------------------------------------------------------------
 Center     Atomic      Atomic             Coordinates (Angstroms)
 Number     Number       Type             X           Y           Z
 ---------------------------------------------------------------------
      1         12           0        5.071287   -1.225256    0.183659
      2          6           0        5.949033    1.831721   -1.458495
      3          6           0        6.365678    0.112834    3.043227
      4          6           0        4.722340   -4.068991    1.543080
      5          6           0        4.904287   -2.699201   -2.969952
      6          7           0        6.008360    0.734094    0.612013
      7          6           0        6.230863    1.840440   -0.090599
      8          6           0        6.721621    3.036375    0.779039
      9          6           0        7.339070    2.221380    2.002369
     10          6           0        6.497840    0.961003    1.903853
     11          6           0        8.805572    1.849509    1.808497
     12          6           0        5.543415    3.958287    1.241249
     13          6           0        5.961750    5.316085    1.812857
     14          1           0        5.120635    6.474610    1.552681
     15          7           0        5.026262   -1.736473    2.091401
     16          6           0        5.592423   -1.065534    3.123190
     17          6           0        5.279740   -1.847729    4.338542
     18          6           0        4.648867   -3.126012    3.907166
     19          6           0        4.799707   -3.038622    2.477135
     20          6           0        5.533755   -1.347053    5.727265
     21          6           0        4.020644   -4.253034    4.664325
     22          8           0        3.743189   -5.372246    4.112094
     23          6           0        3.817043   -4.041099    6.108856
     24          7           0        5.059500   -3.170005   -0.574924
     25          6           0        4.830575   -4.219952    0.221437
     26          6           0        4.588982   -5.467428   -0.575667
     27          6           0        4.459520   -5.001501   -2.097477
     28          6           0        4.746911   -3.491698   -1.907290
     29          6           0        5.668924   -6.552475   -0.464266
     30          6           0        3.172779   -5.417900   -2.853340
     31          6           0        1.977461   -4.702745   -2.264386
     32          7           0        5.193095   -0.542490   -1.873047
     33          6           0        5.119468   -1.332441   -3.029433
     34          6           0        5.361777   -0.440357   -4.178146
     35          6           0        5.577349    0.811596   -3.605445
     36          6           0        5.502107    0.703056   -2.187401
     37          6           0        5.420350   -0.836811   -5.543367
     38          6           0        5.878147    2.211013   -3.860417
     39          8           0        5.962334    2.909619   -4.871533
     40          6           0        6.251426    2.903603   -2.475928
     41          6           0        5.480124    4.192403   -2.389926
     42          8           0        4.236148    4.188067   -2.290574
     43          8           0        6.334132    5.209711   -2.199409
     44          6           0        5.630977    6.514499   -2.075892
     45          1           0        6.951562    0.334852    3.937313
     46          1           0        4.492094   -5.049691    1.964568
     47          1           0        4.784044   -3.071962   -3.988796
     48          1           0        7.492860    3.650401    0.313648
     49          1           0        7.162790    2.721150    2.954670
     50          1           0        9.149178    2.094364    0.803558
     51          1           0        8.857793    0.773715    1.977120
     52          1           0        9.425944    2.304374    2.581163
     53          1           0        5.071260    3.523611    2.122264
     54          1           0        4.832737    4.112725    0.428592
     55          1           0        7.003647    5.541238    1.583364
     56          1           0        5.931559    5.252673    2.900638
     57          1           0        6.155145   -0.452401    5.723038
     58          1           0        6.142497   -2.098206    6.230167
     59          1           0        4.608916   -1.191197    6.282885
     60          1           0        4.778302   -3.839460    6.582009
     61          1           0        3.276103   -4.915954    6.467829
     62          1           0        3.210944   -3.146126    6.252443
     63          1           0        3.662920   -5.953103   -0.270781
     64          1           0        5.268772   -5.391919   -2.715019
     65          1           0        5.288067   -7.516137   -0.125137
     66          1           0        6.449239   -6.184245    0.201171
     67          1           0        6.231966   -6.732668   -1.379651
     68          1           0        2.995216   -6.486752   -2.739439
     69          1           0        3.211052   -5.199953   -3.920713
     70          1           0        1.714347   -5.329097   -1.412750
     71          1           0        1.162353   -4.664950   -2.987838
     72          1           0        2.252239   -3.722194   -1.875153
     73          1           0        4.862654   -0.086116   -6.103190
     74          1           0        4.998208   -1.831419   -5.685328
     75          1           0        6.496340   -0.811476   -5.715008
     76          1           0        7.327974    3.070899   -2.489327
     77          1           0        6.053187    7.179261   -2.829592
     78          1           0        5.716303    6.814830   -1.031418
     79          1           0        4.578135    6.523494   -2.360111
     80         12           0       -5.236189    1.191063    0.469763
     81          6           0       -5.830404   -2.085200   -0.868908
     82          6           0       -4.207196    2.115403   -2.648154
     83          6           0       -4.279744    3.949813    1.711496
     84          6           0       -5.211279   -0.259719    3.638403
     85          7           0       -5.084673    0.070438   -1.431158
     86          6           0       -5.396952   -1.152150   -1.833772
     87          6           0       -5.312284   -1.364998   -3.369057
     88          6           0       -4.267571   -0.195976   -3.716641
     89          6           0       -4.555916    0.744785   -2.548522
     90          6           0       -2.816722   -0.638945   -3.626246
     91          6           0       -6.691033   -1.133746   -4.081495
     92          6           0       -6.756299   -1.622451   -5.530167
     93          1           0       -8.012862   -2.182592   -6.019833
     94          7           0       -4.838125    2.925532   -0.408720
     95          6           0       -4.456046    3.120861   -1.688232
     96          6           0       -4.268623    4.572584   -1.834991
     97          6           0       -4.411486    5.201934   -0.494014
     98          6           0       -4.496560    4.022114    0.343175
     99          6           0       -4.062950    5.236068   -3.165746
    100          6           0       -4.450552    6.629357   -0.038898
    101          8           0       -4.342291    6.944700    1.198707
    102          6           0       -4.525392    7.651670   -1.092826
    103          7           0       -4.596954    1.734945    2.371839
    104          6           0       -4.289716    3.012063    2.659047
    105          6           0       -4.124039    3.211970    4.146651
    106          6           0       -4.623593    1.850771    4.821321
    107          6           0       -4.920836    1.030788    3.546698
    108          6           0       -2.705309    3.524501    4.621951
    109          6           0       -5.733939    1.966701    5.901314
    110          6           0       -7.027186    2.422820    5.265033
    111          7           0       -5.655171   -0.763906    1.288649
    112          6           0       -5.558052   -1.161261    2.640230
    113          6           0       -5.830822   -2.612375    2.688092
    114          6           0       -6.046763   -2.965760    1.347571
    115          6           0       -5.897783   -1.819942    0.520284
    116          6           0       -5.808038   -3.425015    3.856514
    117          6           0       -6.356389   -4.049633    0.443112
    118          8           0       -6.672501   -5.230895    0.578840
    119          6           0       -6.105530   -3.552739   -1.045702
    120          6           0       -7.297401   -3.947328   -1.874106
    121          8           0       -8.414106   -3.446338   -1.653681
    122          8           0       -6.881861   -4.681215   -2.922488
    123          6           0       -8.027097   -5.087199   -3.780060
    124          1           0       -3.652519    2.447118   -3.526324
    125          1           0       -4.055586    4.898774    2.204153
    126          1           0       -5.318782   -0.767016    4.599529
    127          1           0       -4.911402   -2.324458   -3.673220
    128          1           0       -4.511032    0.283317   -4.661284
    129          1           0       -2.724659   -1.638057   -3.226952
    130          1           0       -2.331152    0.075301   -2.974222
    131          1           0       -2.330080   -0.537051   -4.600469
    132          1           0       -6.836284   -0.057340   -4.239604
    133          1           0       -7.490337   -1.571861   -3.515977
    134          1           0       -5.917554   -2.283385   -5.780405
    135          1           0       -6.627116   -0.763001   -6.192487
    136          1           0       -3.837806    4.503023   -3.950190
    137          1           0       -3.150705    5.837139   -3.085768
    138          1           0       -4.893119    5.888938   -3.443684
    139          1           0       -3.668979    7.550776   -1.755275
    140          1           0       -4.634475    8.603529   -0.569423
    141          1           0       -5.417355    7.462924   -1.700594
    142          1           0       -4.744371    4.027023    4.498781
    143          1           0       -3.807304    1.332210    5.345337
    144          1           0       -2.633475    4.472484    5.187847
    145          1           0       -2.053274    3.546506    3.758871
    146          1           0       -2.245169    2.755060    5.239562
    147          1           0       -5.466319    2.726649    6.639560
    148          1           0       -5.910284    1.041938    6.440490
    149          1           0       -6.908938    3.509479    5.217369
    150          1           0       -7.877657    2.145129    5.884423
    151          1           0       -7.110651    2.054859    4.235826
    152          1           0       -6.671922   -4.073980    3.801300
    153          1           0       -5.820839   -2.820880    4.761288
    154          1           0       -4.852337   -3.937802    3.718826
    155          1           0       -5.187601   -4.024637   -1.398267
    156          1           0       -7.993516   -6.177946   -3.862608
    157          1           0       -7.919522   -4.507643   -4.716166
    158          1           0       -9.025739   -4.935464   -3.387448
 ---------------------------------------------------------------------

 SCF Done:  E(RCAM-B3LYP) =  -4069.81204504     A.U. after   19 cycles

 Excitation energies and oscillator strengths:

 Excited State   1:      Singlet-A      1.6632 eV  745.45 nm  f=0.1301  <S**2>=0.000
     309 -> 315        0.11257
     310 -> 316        0.12815
     311 -> 313        0.45071
     312 -> 314        0.51800
 This state for optimization and/or second-order correction.
 Total Energy, E(TD-HF/TD-DFT) =  -4069.75092340
 Copying the excited state density for this state as the 1-particle RhoCI density.

 Excited State   2:      Singlet-A      1.6901 eV  733.58 nm  f=0.5768  <S**2>=0.000
     309 -> 315        0.13434
     310 -> 316       -0.11637
     311 -> 313        0.51674
     312 -> 314       -0.44976

 Excited State   3:      Singlet-A      2.1858 eV  567.22 nm  f=0.0592  <S**2>=0.000
     309 -> 313        0.22370
     310 -> 314        0.60282
     312 -> 316       -0.25520

 Excited State   4:      Singlet-A      2.1934 eV  565.25 nm  f=0.1322  <S**2>=0.000
     309 -> 313        0.60057
     310 -> 314       -0.22176
     311 -> 315       -0.26148

 Excited State   5:      Singlet-A      2.4803 eV  499.87 nm  f=0.0000  <S**2>=0.000
     312 -> 313        0.70709

 The electronic state is 1-A.
 Alpha  occ. eigenvalues --  -46.87887 -46.87490 -19.26408 -19.26234 -19.19155
 Alpha  occ. eigenvalues --  -19.19036 -19.18879 -19.18550 -19.18292 -19.17892
 Alpha  occ. eigenvalues --  -14.42537 -14.42319 -14.41537 -14.41200 -14.39491
 Alpha  occ. eigenvalues --  -14.39175 -14.38686 -14.38432 -10.39210 -10.38964
 Alpha  occ. eigenvalues --  -10.35511 -10.35226 -10.34511 -10.34072 -10.31799
 Alpha  occ. eigenvalues --  -10.31657 -10.31501 -10.31125 -10.30989 -10.30836
 Alpha  occ. eigenvalues --  -10.30672 -10.30602 -10.30286 -10.30239 -10.30184
 Alpha  occ. eigenvalues --  -10.30012 -10.29981 -10.29756 -10.29728 -10.29342
 Alpha  occ. eigenvalues --  -10.29254 -10.29230 -10.28820 -10.28579 -10.28539
 Alpha  occ. eigenvalues --  -10.28512 -10.28458 -10.28225 -10.28191 -10.27930
 Alpha  occ. eigenvalues --  -10.27894 -10.27822 -10.27815 -10.27676 -10.27577
 Alpha  occ. eigenvalues --  -10.27560 -10.27513 -10.27496 -10.27467 -10.27428
 Alpha  occ. eigenvalues --  -10.27315 -10.27290 -10.27287 -10.27269 -10.27200
 Alpha  occ. eigenvalues --  -10.26901 -10.26764 -10.26533 -10.26465 -10.26304
 Alpha  occ. eigenvalues --  -10.26268 -10.26239 -10.26114 -10.26073 -10.25989
 Alpha  occ. eigenvalues --  -10.25779 -10.25763 -10.25705 -10.25484 -10.25351
 Alpha  occ. eigenvalues --  -10.24938 -10.24871 -10.24785 -10.24698 -10.24661
 Alpha  occ. eigenvalues --  -10.24532  -3.16630  -3.16240  -1.91511  -1.91122
 Alpha  occ. eigenvalues --   -1.91098  -1.90940  -1.90711  -1.90547  -1.16758
 Alpha  occ. eigenvalues --   -1.16526  -1.08754  -1.08505  -1.07277  -1.06821
 Alpha  occ. eigenvalues --   -1.06803  -1.06776  -1.04669  -1.04316  -1.03847
 Alpha  occ. eigenvalues --   -1.03494  -1.03327  -1.02876  -1.02503  -1.01944
 Alpha  occ. eigenvalues --   -0.92071  -0.91821  -0.89607  -0.89363  -0.89263
 Alpha  occ. eigenvalues --   -0.88961  -0.88367  -0.88105  -0.87984  -0.87757
 Alpha  occ. eigenvalues --   -0.87630  -0.87509  -0.87356  -0.86924  -0.85058
 Alpha  occ. eigenvalues --   -0.84824  -0.84021  -0.83773  -0.83040  -0.82766
 Alpha  occ. eigenvalues --   -0.82728  -0.82479  -0.81690  -0.81454  -0.80690
 Alpha  occ. eigenvalues --   -0.80285  -0.78889  -0.78448  -0.77305  -0.77018
 Alpha  occ. eigenvalues --   -0.76978  -0.76753  -0.76015  -0.75662  -0.74978
 Alpha  occ. eigenvalues --   -0.74684  -0.72870  -0.72532  -0.71757  -0.71422
 Alpha  occ. eigenvalues --   -0.69991  -0.69658  -0.68953  -0.68654  -0.67731
 Alpha  occ. eigenvalues --   -0.67442  -0.67289  -0.67032  -0.65369  -0.65103
 Alpha  occ. eigenvalues --   -0.64950  -0.64709  -0.64614  -0.64500  -0.64355
 Alpha  occ. eigenvalues --   -0.64077  -0.62405  -0.62144  -0.60524  -0.60170
 Alpha  occ. eigenvalues --   -0.59887  -0.59613  -0.59078  -0.58836  -0.58598
 Alpha  occ. eigenvalues --   -0.58270  -0.57698  -0.57407  -0.57399  -0.57092
 Alpha  occ. eigenvalues --   -0.56408  -0.56082  -0.56033  -0.55742  -0.55606
 Alpha  occ. eigenvalues --   -0.55433  -0.55286  -0.55131  -0.54624  -0.54374
 Alpha  occ. eigenvalues --   -0.53970  -0.53729  -0.53389  -0.53305  -0.53072
 Alpha  occ. eigenvalues --   -0.53014  -0.52976  -0.52831  -0.52745  -0.52528
 Alpha  occ. eigenvalues --   -0.52473  -0.52305  -0.52042  -0.51731  -0.51696
 Alpha  occ. eigenvalues --   -0.51481  -0.51294  -0.51051  -0.50645  -0.50284
 Alpha  occ. eigenvalues --   -0.50110  -0.49995  -0.49811  -0.49723  -0.49595
 Alpha  occ. eigenvalues --   -0.49313  -0.49313  -0.49180  -0.49024  -0.48931
 Alpha  occ. eigenvalues --   -0.48692  -0.48546  -0.48525  -0.48395  -0.48260
 Alpha  occ. eigenvalues --   -0.48166  -0.47778  -0.47426  -0.47381  -0.46948
 Alpha  occ. eigenvalues --   -0.46887  -0.46632  -0.46556  -0.46454  -0.46379
 Alpha  occ. eigenvalues --   -0.46261  -0.46108  -0.45951  -0.45933  -0.45679
 Alpha  occ. eigenvalues --   -0.45279  -0.45091  -0.44685  -0.44582  -0.44366
 Alpha  occ. eigenvalues --   -0.44302  -0.44235  -0.44169  -0.44109  -0.43963
 Alpha  occ. eigenvalues --   -0.43931  -0.43766  -0.43603  -0.43463  -0.43420
 Alpha  occ. eigenvalues --   -0.43226  -0.43120  -0.42809  -0.42797  -0.42754
 Alpha  occ. eigenvalues --   -0.42747  -0.42422  -0.42099  -0.41834  -0.41798
 Alpha  occ. eigenvalues --   -0.41608  -0.41513  -0.41300  -0.41223  -0.40945
 Alpha  occ. eigenvalues --   -0.40887  -0.40823  -0.40652  -0.40562  -0.40536
 Alpha  occ. eigenvalues --   -0.40365  -0.40295  -0.40064  -0.39523  -0.39329
 Alpha  occ. eigenvalues --   -0.38543  -0.38232  -0.37818  -0.37493  -0.37402
 Alpha  occ. eigenvalues --   -0.37345  -0.37128  -0.37024  -0.36826  -0.36651
 Alpha  occ. eigenvalues --   -0.36289  -0.36084  -0.34379  -0.34089  -0.33899
 Alpha  occ. eigenvalues --   -0.33728  -0.33282  -0.33007  -0.31409  -0.31124
 Alpha  occ. eigenvalues --   -0.31111  -0.30806  -0.30152  -0.29800  -0.29542
 Alpha  occ. eigenvalues --   -0.29426  -0.29145  -0.29039  -0.24172  -0.23866
 Alpha  occ. eigenvalues --   -0.21220  -0.20944
 Alpha virt. eigenvalues --   -0.08867  -0.08615  -0.01835  -0.01520  -0.00141
 Alpha virt. eigenvalues --    0.00154   0.02093   0.02363   0.03014   0.03385
 Alpha virt. eigenvalues --    0.04640   0.04904   0.04972   0.05296   0.06117

 Mulliken charges:
               1
     1  Mg   0.838677
     2  C   -0.003051
     3  C   -0.094042
     4  C   -0.045638
     5  C   -0.064228
     6  N   -0.256847
     7  C   -0.052398
     8  C   -0.014067
     9  C   -0.087063
    10  C    0.046516
    11  C    0.104764
    12  C    0.053441
    13  C   -0.072176
    14  H    0.036910
    15  N   -0.433218
    16  C    0.168645
    17  C   -0.177026
    18  C   -0.003744
    19  C    0.148914
    20  C    0.110144
    21  C    0.012527
    22  O   -0.248807
    23  C    0.062419
    24  N   -0.341128
    25  C    0.041324
    26  C   -0.028421
    27  C   -0.023946
    28  C    0.074762
    29  C    0.076020
    30  C    0.035140
    31  C   -0.004569
    32  N   -0.310221
    33  C    0.079979
    34  C   -0.170734
    35  C    0.008019
    36  C    0.082544
    37  C    0.127578
    38  C    0.045379
    39  O   -0.189263
    40  C   -0.005032
    41  C    0.212768
    42  O   -0.257901
    43  O   -0.304549
    44  C    0.157939
    45  H   -0.017327
    46  H   -0.016250
    47  H   -0.041895
    48  H    0.000911
    49  H   -0.003774
    50  H    0.025484
    51  H    0.016487
    52  H    0.016915
    53  H    0.011401
    54  H    0.043957
    55  H    0.017767
    56  H    0.018226
    57  H    0.006062
    58  H    0.027190
    59  H    0.039522
    60  H    0.037433
    61  H    0.036232
    62  H    0.031133
    63  H    0.017273
    64  H    0.009537
    65  H    0.023860
    66  H    0.012569
    67  H    0.004818
    68  H    0.007221
    69  H    0.004027
    70  H    0.010361
    71  H    0.016642
    72  H    0.028459
    73  H    0.046246
    74  H    0.008746
    75  H    0.046306
    76  H    0.035349
    77  H    0.042821
    78  H    0.047069
    79  H    0.052883
    80  Mg   0.837977
    81  C   -0.016733
    82  C   -0.086676
    83  C   -0.045214
    84  C   -0.065219
    85  N   -0.254522
    86  C   -0.049917
    87  C   -0.015088
    88  C   -0.090411
    89  C    0.045246
    90  C    0.113741
    91  C    0.062535
    92  C   -0.077642
    93  H    0.034227
    94  N   -0.423812
    95  C    0.162692
    96  C   -0.172436
    97  C   -0.007792
    98  C    0.152750
    99  C    0.098589
   100  C    0.015871
   101  O   -0.253960
   102  C    0.061060
   103  N   -0.349969
   104  C    0.037614
   105  C   -0.019759
   106  C   -0.034507
   107  C    0.088691
   108  C    0.073911
   109  C    0.034897
   110  C   -0.007532
   111  N   -0.323988
   112  C    0.078142
   113  C   -0.163413
   114  C    0.002209
   115  C    0.095944
   116  C    0.131444
   117  C    0.042236
   118  O   -0.188499
   119  C    0.000948
   120  C    0.211236
   121  O   -0.251154
   122  O   -0.305721
   123  C    0.152134
   124  H   -0.016965
   125  H   -0.016106
   126  H   -0.041288
   127  H   -0.001259
   128  H   -0.004111
   129  H    0.021343
   130  H    0.017049
   131  H    0.017282
   132  H    0.013964
   133  H    0.037347
   134  H    0.020496
   135  H    0.019872
   136  H    0.009989
   137  H    0.028798
   138  H    0.039125
   139  H    0.039404
   140  H    0.035620
   141  H    0.033674
   142  H    0.014040
   143  H    0.011328
   144  H    0.024210
   145  H    0.012579
   146  H    0.004094
   147  H    0.005382
   148  H    0.003270
   149  H    0.010718
   150  H    0.017570
   151  H    0.030610
   152  H    0.045553
   153  H    0.007779
   154  H    0.047293
   155  H    0.034794
   156  H    0.043480
   157  H    0.049499
   158  H    0.053437
 Sum of Mulliken charges =  -0.00000

 Dipole moment (field-independent basis, Debye):
    X=              4.7773    Y=              2.1492    Z=              1.0061  Tot=              5.3342
 Quadrupole moment (field-independent basis, Debye-Ang):
   XX=           -522.4590   YY=           -531.1030   ZZ=           -466.0020
   XY=            -15.8617   XZ=             45.6936   YZ=             25.8271

 Normal termination of Gaussian 16 at Sat Sep  4 01:31:17 2021.
