 Gaussian 16, Revision A.03,
 Gaussian 16:  ES64L-G16RevA.03 25-Dec-2016

 -----------------------------------
 #p cam-b3lyp/Def2SVP td=(nstates=5)
 -----------------------------------

 --------------------------------
 TDDFT excited states in gaussian
 --------------------------------
 Symbolic Z-matrix:
 Charge =  0 Multiplicity = 1

                         Standard orientation:
 ---------------------------------------------------------------------
 Center     Atomic      Atomic             Coordinates (Angstroms)
 Number     Number       Type             X           Y           Z
 ---------------------------------------------------------------------
      1         12           0        4.935918   -1.122322    0.296877
      2          6           0        5.503327    1.954622   -1.441707
      3          6           0        5.816048    0.507195    3.162729
      4          6           0        4.882420   -3.925700    1.778374
      5          6           0        5.209914   -2.739312   -2.778173
      6          7           0        5.558886    0.966505    0.683345
      7          6           0        5.678340    2.061953   -0.060224
      8          6           0        5.932981    3.351582    0.776072
      9          6           0        6.563970    2.685533    2.080001
     10          6           0        5.914531    1.315739    1.991580
     11          6           0        8.078111    2.516936    2.006142
     12          6           0        4.607590    4.116507    1.107674
     13          6           0        4.790608    5.543152    1.633547
     14          1           0        3.819392    6.558723    1.255786
     15          7           0        4.819609   -1.552246    2.221582
     16          6           0        5.209095   -0.764197    3.252390
     17          6           0        4.917547   -1.529770    4.483479
     18          6           0        4.503179   -2.901820    4.078668
     19          6           0        4.746842   -2.855545    2.659561
     20          6           0        4.995615   -0.938932    5.857730
     21          6           0        3.981817   -4.072785    4.850131
     22          8           0        3.903547   -5.242699    4.340475
     23          6           0        3.643638   -3.829868    6.264228
     24          7           0        5.249404   -3.079975   -0.356542
     25          6           0        5.108823   -4.116522    0.477000
     26          6           0        5.101960   -5.418746   -0.267382
     27          6           0        5.023385   -5.041709   -1.817034
     28          6           0        5.084570   -3.499663   -1.688116
     29          6           0        6.310004   -6.334249   -0.025524
     30          6           0        3.866509   -5.668119   -2.635367
     31          6           0        2.543303   -5.104648   -2.167690
     32          7           0        5.115494   -0.518277   -1.780122
     33          6           0        5.238171   -1.359691   -2.895311
     34          6           0        5.440070   -0.492530   -4.070614
     35          6           0        5.437369    0.800790   -3.551806
     36          6           0        5.272181    0.743780   -2.138386
     37          6           0        5.654572   -0.935046   -5.405755
     38          6           0        5.560267    2.216416   -3.859627
     39          8           0        5.622444    2.875769   -4.898318
     40          6           0        5.729941    3.013753   -2.491675
     41          6           0        4.783844    4.182932   -2.526714
     42          8           0        3.548467    4.006883   -2.511962
     43          8           0        5.472593    5.318094   -2.332875
     44          6           0        4.588790    6.514343   -2.326761
     45          1           0        6.297270    0.848130    4.081495
     46          1           0        4.758959   -4.910070    2.234675
     47          1           0        5.218687   -3.168804   -3.781623
     48          1           0        6.644630    4.047977    0.332211
     49          1           0        6.249782    3.195816    2.990286
     50          1           0        8.458676    2.764504    1.015283
     51          1           0        8.265622    1.467615    2.234740
     52          1           0        8.570311    3.087816    2.793931
     53          1           0        4.135528    3.657686    1.976409
     54          1           0        3.945067    4.133731    0.241595
     55          1           0        5.805638    5.903397    1.463706
     56          1           0        4.688337    5.522946    2.718596
     57          1           0        5.486102    0.033630    5.848260
     58          1           0        5.662975   -1.574055    6.439932
     59          1           0        4.019241   -0.891768    6.340225
     60          1           0        4.529821   -3.474073    6.790192
     61          1           0        3.203388   -4.756212    6.631538
     62          1           0        2.910770   -3.024331    6.318662
     63          1           0        4.231668   -6.017013   -0.000747
     64          1           0        5.922612   -5.339875   -2.356628
     65          1           0        6.041595   -7.326623    0.337595
     66          1           0        6.980132   -5.831031    0.670889
     67          1           0        6.959283   -6.472152   -0.889721
     68          1           0        3.830212   -6.745445   -2.477257
     69          1           0        3.953902   -5.493056   -3.707732
     70          1           0        2.306347   -5.724720   -1.303865
     71          1           0        1.787088   -5.213726   -2.945798
     72          1           0        2.650241   -4.079258   -1.813253
     73          1           0        5.041940   -0.295601   -6.041177
     74          1           0        5.385578   -1.984558   -5.523100
     75          1           0        6.726542   -0.765111   -5.505046
     76          1           0        6.771049    3.330972   -2.440803
     77          1           0        4.970256    7.199127   -3.084249
     78          1           0        4.553620    6.868364   -1.296306
     79          1           0        3.568973    6.362030   -2.681884
     80         12           0       -5.595372   -0.171036   -0.243095
     81          6           0       -2.929014    2.126355    0.458042
     82          6           0       -7.692575    2.018459    1.319733
     83          6           0       -7.876857   -2.366898   -0.444246
     84          6           0       -3.169065   -2.629573   -0.706050
     85          7           0       -5.238445    1.786485    0.722799
     86          6           0       -4.195095    2.588285    0.874103
     87          6           0       -4.540340    3.994466    1.433567
     88          6           0       -5.913703    3.625834    2.179803
     89          6           0       -6.333670    2.422361    1.338395
     90          6           0       -5.713976    3.160537    3.612619
     91          6           0       -4.770248    5.050436    0.295988
     92          6           0       -4.805883    6.505911    0.767224
     93          1           0       -4.248015    7.534299   -0.106673
     94          7           0       -7.566573    0.008110   -0.098735
     95          6           0       -8.250478    0.970549    0.554920
     96          6           0       -9.673786    0.642996    0.378653
     97          6           0       -9.770643   -0.681650   -0.292639
     98          6           0       -8.378205   -1.083132   -0.285691
     99          6           0      -10.778732    1.585665    0.757987
    100          6           0      -10.926945   -1.464017   -0.837679
    101          8           0      -10.810799   -2.697955   -1.164380
    102          6           0      -12.221788   -0.769676   -0.890042
    103          7           0       -5.550079   -2.247969   -0.324748
    104          6           0       -6.682671   -2.959233   -0.463464
    105          6           0       -6.383394   -4.406164   -0.775266
    106          6           0       -4.810430   -4.468443   -1.057190
    107          6           0       -4.441535   -2.998588   -0.759175
    108          6           0       -6.744253   -5.410827    0.318735
    109          6           0       -4.361940   -5.083118   -2.411333
    110          6           0       -4.787675   -4.186279   -3.551428
    111          7           0       -3.437387   -0.229574   -0.331104
    112          6           0       -2.621506   -1.368450   -0.508224
    113          6           0       -1.218602   -0.922635   -0.383554
    114          6           0       -1.317109    0.451427   -0.117579
    115          6           0       -2.685309    0.831029   -0.059160
    116          6           0       -0.069527   -1.758556   -0.467157
    117          6           0       -0.574980    1.665027    0.137592
    118          8           0        0.615930    1.973794    0.125539
    119          6           0       -1.587797    2.779063    0.647025
    120          6           0       -1.310168    4.044017   -0.118032
    121          8           0       -1.512083    4.098457   -1.343955
    122          8           0       -1.061333    5.039651    0.752125
    123          6           0       -0.790936    6.317663    0.041225
    124          1           0       -8.393174    2.523685    1.985151
    125          1           0       -8.621720   -3.144573   -0.628295
    126          1           0       -2.351856   -3.317051   -0.934591
    127          1           0       -3.824691    4.388527    2.145144
    128          1           0       -6.641106    4.428149    2.087447
    129          1           0       -4.668533    3.041404    3.855505
    130          1           0       -6.230489    2.212659    3.688795
    131          1           0       -6.223911    3.838006    4.303508
    132          1           0       -5.795376    4.950620   -0.083359
    133          1           0       -4.038225    4.939740   -0.480234
    134          1           0       -4.420260    6.618295    1.787818
    135          1           0       -5.849409    6.822090    0.838668
    136          1           0      -10.408327    2.410387    1.379301
    137          1           0      -11.458155    1.033550    1.416337
    138          1           0      -11.339948    1.946494   -0.106598
    139          1           0      -12.498453   -0.445512    0.110378
    140          1           0      -12.903452   -1.459871   -1.390875
    141          1           0      -12.108313    0.137131   -1.494560
    142          1           0       -6.912668   -4.727768   -1.663822
    143          1           0       -4.286426   -5.081758   -0.309458
    144          1           0       -7.437750   -6.201015   -0.025848
    145          1           0       -7.169580   -4.868934    1.152986
    146          1           0       -5.897102   -5.916204    0.779299
    147          1           0       -4.854875   -6.045009   -2.572374
    148          1           0       -3.292577   -5.254657   -2.474748
    149          1           0       -5.828031   -4.479604   -3.720902
    150          1           0       -4.176908   -4.371077   -4.432828
    151          1           0       -4.787649   -3.133696   -3.245302
    152          1           0        0.654645   -1.232480   -1.074860
    153          1           0       -0.314658   -2.730111   -0.891153
    154          1           0        0.198455   -1.828066    0.590494
    155          1           0       -1.425218    2.904431    1.718199
    156          1           0        0.183224    6.676181    0.387882
    157          1           0       -1.666324    6.963051    0.243529
    158          1           0       -0.630450    6.271323   -1.029544
 ---------------------------------------------------------------------

 SCF Done:  E(RCAM-B3LYP) =  -4069.81082102     A.U. after   19 cycles

 Excitation energies and oscillator strengths:

 Excited State   1:      Singlet-A      1.6696 eV  742.58 nm  f=0.3832  <S**2>=0.000
     309 -> 315        0.14916
     311 -> 313        0.59440
     312 -> 314       -0.34298
 This state for optimization and/or second-order correction.
 Total Energy, E(TD-HF/TD-DFT) =  -4069.74946274
 Copying the excited state density for this state as the 1-particle RhoCI density.

 Excited State   2:      Singlet-A      1.6816 eV  737.29 nm  f=0.4145  <S**2>=0.000
     310 -> 316        0.15048
     311 -> 313        0.34277
     312 -> 314        0.59372

 Excited State   3:      Singlet-A      2.1777 eV  569.33 nm  f=0.0010  <S**2>=0.000
     309 -> 313       -0.44789
     310 -> 314        0.46480
     311 -> 315        0.18603
     312 -> 316       -0.19162

 Excited State   4:      Singlet-A      2.1916 eV  565.73 nm  f=0.1749  <S**2>=0.000
     309 -> 313        0.46096
     310 -> 314        0.44355
     311 -> 315       -0.19933
     312 -> 316       -0.19377

 Excited State   5:      Singlet-A      2.3728 eV  522.52 nm  f=0.0000  <S**2>=0.000
     312 -> 313        0.70530

 The electronic state is 1-A.
 Alpha  occ. eigenvalues --  -46.87539 -46.87225 -19.26112 -19.25654 -19.18831
 Alpha  occ. eigenvalues --  -19.18608 -19.18437 -19.18229 -19.17929 -19.17638
 Alpha  occ. eigenvalues --  -14.42387 -14.41870 -14.41237 -14.40953 -14.39232
 Alpha  occ. eigenvalues --  -14.38866 -14.38471 -14.38019 -10.38800 -10.38319
 Alpha  occ. eigenvalues --  -10.35288 -10.35078 -10.34046 -10.33845 -10.31581
 Alpha  occ. eigenvalues --  -10.31216 -10.31191 -10.30911 -10.30828 -10.30330
 Alpha  occ. eigenvalues --  -10.30273 -10.30232 -10.30030 -10.30021 -10.30004
 Alpha  occ. eigenvalues --  -10.29785 -10.29770 -10.29454 -10.29332 -10.29277
 Alpha  occ. eigenvalues --  -10.29136 -10.28776 -10.28627 -10.28572 -10.28277
 Alpha  occ. eigenvalues --  -10.28124 -10.28058 -10.28031 -10.27890 -10.27808
 Alpha  occ. eigenvalues --  -10.27561 -10.27556 -10.27405 -10.27372 -10.27360
 Alpha  occ. eigenvalues --  -10.27345 -10.27294 -10.27265 -10.27215 -10.27205
 Alpha  occ. eigenvalues --  -10.27145 -10.27097 -10.27080 -10.26890 -10.26846
 Alpha  occ. eigenvalues --  -10.26580 -10.26567 -10.26326 -10.26112 -10.26038
 Alpha  occ. eigenvalues --  -10.26035 -10.25982 -10.25870 -10.25821 -10.25809
 Alpha  occ. eigenvalues --  -10.25764 -10.25558 -10.25422 -10.25294 -10.25159
 Alpha  occ. eigenvalues --  -10.24752 -10.24663 -10.24622 -10.24568 -10.24316
 Alpha  occ. eigenvalues --  -10.24303  -3.16289  -3.15954  -1.91171  -1.90833
 Alpha  occ. eigenvalues --   -1.90760  -1.90596  -1.90423  -1.90267  -1.16385
 Alpha  occ. eigenvalues --   -1.15979  -1.08470  -1.08082  -1.06862  -1.06848
 Alpha  occ. eigenvalues --   -1.06632  -1.05879  -1.04380  -1.04008  -1.03544
 Alpha  occ. eigenvalues --   -1.03252  -1.02917  -1.02715  -1.01989  -1.01889
 Alpha  occ. eigenvalues --   -0.91849  -0.91418  -0.89374  -0.89154  -0.89059
 Alpha  occ. eigenvalues --   -0.88598  -0.88106  -0.87913  -0.87700  -0.87572
 Alpha  occ. eigenvalues --   -0.87381  -0.87139  -0.87012  -0.86831  -0.84897
 Alpha  occ. eigenvalues --   -0.84436  -0.83757  -0.83622  -0.82826  -0.82605
 Alpha  occ. eigenvalues --   -0.82543  -0.82151  -0.81448  -0.81072  -0.80312
 Alpha  occ. eigenvalues --   -0.80091  -0.78529  -0.78331  -0.77049  -0.76802
 Alpha  occ. eigenvalues --   -0.76779  -0.76436  -0.75724  -0.75418  -0.74686
 Alpha  occ. eigenvalues --   -0.74515  -0.72593  -0.72296  -0.71467  -0.71193
 Alpha  occ. eigenvalues --   -0.69648  -0.69641  -0.68721  -0.68364  -0.67477
 Alpha  occ. eigenvalues --   -0.67159  -0.67095  -0.66648  -0.65158  -0.64723
 Alpha  occ. eigenvalues --   -0.64646  -0.64520  -0.64360  -0.64140  -0.64083
 Alpha  occ. eigenvalues --   -0.63850  -0.62106  -0.61770  -0.60226  -0.60010
 Alpha  occ. eigenvalues --   -0.59696  -0.59237  -0.58867  -0.58494  -0.58290
 Alpha  occ. eigenvalues --   -0.58010  -0.57378  -0.57105  -0.57035  -0.56827
 Alpha  occ. eigenvalues --   -0.56090  -0.55835  -0.55722  -0.55428  -0.55330
 Alpha  occ. eigenvalues --   -0.55110  -0.55082  -0.54939  -0.54330  -0.54051
 Alpha  occ. eigenvalues --   -0.53811  -0.53308  -0.53115  -0.53020  -0.52868
 Alpha  occ. eigenvalues --   -0.52743  -0.52727  -0.52569  -0.52433  -0.52329
 Alpha  occ. eigenvalues --   -0.52285  -0.52103  -0.51797  -0.51553  -0.51444
 Alpha  occ. eigenvalues --   -0.51075  -0.51064  -0.50716  -0.50376  -0.50199
 Alpha  occ. eigenvalues --   -0.49880  -0.49764  -0.49720  -0.49468  -0.49378
 Alpha  occ. eigenvalues --   -0.49075  -0.49016  -0.48987  -0.48714  -0.48587
 Alpha  occ. eigenvalues --   -0.48421  -0.48254  -0.48205  -0.48135  -0.48031
 Alpha  occ. eigenvalues --   -0.47983  -0.47472  -0.47247  -0.46999  -0.46849
 Alpha  occ. eigenvalues --   -0.46594  -0.46450  -0.46358  -0.46147  -0.45984
 Alpha  occ. eigenvalues --   -0.45957  -0.45906  -0.45700  -0.45668  -0.45327
 Alpha  occ. eigenvalues --   -0.45092  -0.44832  -0.44399  -0.44377  -0.44127
 Alpha  occ. eigenvalues --   -0.44080  -0.44016  -0.43961  -0.43824  -0.43762
 Alpha  occ. eigenvalues --   -0.43585  -0.43520  -0.43412  -0.43266  -0.43003
 Alpha  occ. eigenvalues --   -0.42896  -0.42788  -0.42714  -0.42562  -0.42442
 Alpha  occ. eigenvalues --   -0.42365  -0.42098  -0.41848  -0.41599  -0.41521
 Alpha  occ. eigenvalues --   -0.41353  -0.41202  -0.41014  -0.40876  -0.40668
 Alpha  occ. eigenvalues --   -0.40622  -0.40600  -0.40442  -0.40414  -0.40380
 Alpha  occ. eigenvalues --   -0.40140  -0.40130  -0.39574  -0.39314  -0.39198
 Alpha  occ. eigenvalues --   -0.38242  -0.38085  -0.37548  -0.37191  -0.37148
 Alpha  occ. eigenvalues --   -0.37086  -0.36893  -0.36686  -0.36540  -0.36150
 Alpha  occ. eigenvalues --   -0.36047  -0.35614  -0.34129  -0.33750  -0.33571
 Alpha  occ. eigenvalues --   -0.33036  -0.33029  -0.32637  -0.31167  -0.30966
 Alpha  occ. eigenvalues --   -0.30849  -0.30505  -0.29781  -0.29487  -0.29208
 Alpha  occ. eigenvalues --   -0.29082  -0.28960  -0.28795  -0.23912  -0.23531
 Alpha  occ. eigenvalues --   -0.20999  -0.20619
 Alpha virt. eigenvalues --   -0.08669  -0.08266  -0.01567  -0.01253   0.00088
 Alpha virt. eigenvalues --    0.00427   0.02353   0.02705   0.03372   0.03806
 Alpha virt. eigenvalues --    0.04827   0.05102   0.05455   0.05809   0.06148

 Mulliken charges:
               1
     1  Mg   0.837132
     2  C    0.006518
     3  C   -0.093459
     4  C   -0.047493
     5  C   -0.065640
     6  N   -0.256014
     7  C   -0.046029
     8  C   -0.017855
     9  C   -0.088032
    10  C    0.049768
    11  C    0.105273
    12  C    0.056320
    13  C   -0.069063
    14  H    0.028613
    15  N   -0.432495
    16  C    0.170125
    17  C   -0.177874
    18  C   -0.005301
    19  C    0.148203
    20  C    0.110755
    21  C    0.010904
    22  O   -0.251677
    23  C    0.062935
    24  N   -0.340541
    25  C    0.040705
    26  C   -0.027750
    27  C   -0.024058
    28  C    0.074503
    29  C    0.076647
    30  C    0.037037
    31  C   -0.008626
    32  N   -0.311192
    33  C    0.080634
    34  C   -0.170373
    35  C    0.007444
    36  C    0.086849
    37  C    0.127233
    38  C    0.048816
    39  O   -0.189088
    40  C   -0.008213
    41  C    0.210034
    42  O   -0.246502
    43  O   -0.306370
    44  C    0.158762
    45  H   -0.019180
    46  H   -0.019088
    47  H   -0.043780
    48  H   -0.001058
    49  H   -0.005060
    50  H    0.024763
    51  H    0.015586
    52  H    0.014982
    53  H    0.015358
    54  H    0.053905
    55  H    0.015652
    56  H    0.016488
    57  H    0.005492
    58  H    0.025326
    59  H    0.038308
    60  H    0.037010
    61  H    0.033953
    62  H    0.030961
    63  H    0.014417
    64  H    0.008977
    65  H    0.021859
    66  H    0.012830
    67  H    0.003959
    68  H    0.005259
    69  H    0.004627
    70  H    0.007370
    71  H    0.015338
    72  H    0.032008
    73  H    0.047823
    74  H    0.007734
    75  H    0.045035
    76  H    0.033355
    77  H    0.040953
    78  H    0.043895
    79  H    0.053376
    80  Mg   0.838118
    81  C   -0.016439
    82  C   -0.087894
    83  C   -0.045647
    84  C   -0.065368
    85  N   -0.254383
    86  C   -0.050118
    87  C   -0.014854
    88  C   -0.090444
    89  C    0.045590
    90  C    0.114599
    91  C    0.062617
    92  C   -0.077528
    93  H    0.034966
    94  N   -0.423385
    95  C    0.162794
    96  C   -0.174880
    97  C   -0.008003
    98  C    0.152054
    99  C    0.099501
   100  C    0.015466
   101  O   -0.253420
   102  C    0.061236
   103  N   -0.350109
   104  C    0.037458
   105  C   -0.019789
   106  C   -0.034837
   107  C    0.088880
   108  C    0.073668
   109  C    0.034703
   110  C   -0.007586
   111  N   -0.324422
   112  C    0.079573
   113  C   -0.162021
   114  C    0.003083
   115  C    0.097142
   116  C    0.116755
   117  C    0.045631
   118  O   -0.181000
   119  C   -0.001211
   120  C    0.215398
   121  O   -0.247198
   122  O   -0.307781
   123  C    0.152613
   124  H   -0.020184
   125  H   -0.015815
   126  H   -0.040171
   127  H   -0.001472
   128  H   -0.004551
   129  H    0.021576
   130  H    0.014355
   131  H    0.015672
   132  H    0.013936
   133  H    0.038864
   134  H    0.019846
   135  H    0.019256
   136  H    0.008444
   137  H    0.025741
   138  H    0.039620
   139  H    0.038025
   140  H    0.036152
   141  H    0.033901
   142  H    0.014240
   143  H    0.012867
   144  H    0.024862
   145  H    0.011436
   146  H    0.005878
   147  H    0.005925
   148  H    0.003527
   149  H    0.010783
   150  H    0.017668
   151  H    0.030645
   152  H    0.055095
   153  H    0.011938
   154  H    0.050711
   155  H    0.032702
   156  H    0.039923
   157  H    0.047790
   158  H    0.057286
 Sum of Mulliken charges =  -0.00000

 Dipole moment (field-independent basis, Debye):
    X=             -1.6871    Y=              2.2491    Z=              6.3105  Tot=              6.9085
 Quadrupole moment (field-independent basis, Debye-Ang):
   XX=           -482.1784   YY=           -479.9320   ZZ=           -510.2749
   XY=            -29.3341   XZ=              5.6837   YZ=             45.2811

 Normal termination of Gaussian 16 at Fri Sep 10 18:43:15 2021.
