 Gaussian 16, Revision A.03,
 Gaussian 16:  ES64L-G16RevA.03 25-Dec-2016

 -----------------------------------
 #p cam-b3lyp/Def2SVP td=(nstates=5)
 -----------------------------------

 --------------------------------
 TDDFT excited states in gaussian
 --------------------------------
 Symbolic Z-matrix:
 Charge =  0 Multiplicity = 1

                         Standard orientation:
 ---------------------------------------------------------------------
 Center     Atomic      Atomic             Coordinates (Angstroms)
 Number     Number       Type             X           Y           Z
 ---------------------------------------------------------------------
      1         12           0       15.597874   -0.851679    0.282392
      2          6           0       15.858908    2.331367   -1.333868
      3          6           0       16.445028    0.721647    3.189287
      4          6           0       15.818215   -3.710016    1.638114
      5          6           0       15.892262   -2.310600   -2.868885
      6          7           0       16.066353    1.262512    0.742143
      7          6           0       16.072716    2.394310    0.044888
      8          6           0       16.253212    3.663986    0.929601
      9          6           0       16.979894    2.996813    2.182123
     10          6           0       16.438397    1.584010    2.052926
     11          6           0       18.499155    2.954207    2.053541
     12          6           0       14.883673    4.304846    1.336287
     13          6           0       14.971178    5.718239    1.919397
     14          1           0       13.909993    6.667101    1.617909
     15          7           0       15.582896   -1.370103    2.188661
     16          6           0       15.944240   -0.597220    3.240976
     17          6           0       15.757206   -1.434889    4.445139
     18          6           0       15.439094   -2.817672    3.992578
     19          6           0       15.628911   -2.692278    2.570037
     20          6           0       15.835856   -0.897965    5.841304
     21          6           0       15.039284   -4.058278    4.726867
     22          8           0       15.036348   -5.208233    4.168147
     23          6           0       14.732210   -3.903096    6.160278
     24          7           0       16.042673   -2.748450   -0.467308
     25          6           0       16.013716   -3.827077    0.323077
     26          6           0       16.084258   -5.093165   -0.478161
     27          6           0       15.922296   -4.658898   -2.006209
     28          6           0       15.865498   -3.123730   -1.810503
     29          6           0       17.368733   -5.917551   -0.315301
     30          6           0       14.791003   -5.341671   -2.815170
     31          6           0       13.444332   -4.906973   -2.281679
     32          7           0       15.656795   -0.148348   -1.770143
     33          6           0       15.806992   -0.929498   -2.925097
     34          6           0       15.898598   -0.000241   -4.066218
     35          6           0       15.811404    1.265689   -3.490317
     36          6           0       15.700421    1.136177   -2.076386
     37          6           0       16.101022   -0.367494   -5.425845
     38          6           0       15.810946    2.698300   -3.738275
     39          8           0       15.784569    3.403593   -4.747908
     40          6           0       15.964272    3.448523   -2.342036
     41          6           0       14.927833    4.537978   -2.295234
     42          8           0       13.711557    4.262348   -2.249777
     43          8           0       15.530750    5.715865   -2.072486
     44          6           0       14.555655    6.835574   -1.985328
     45          1           0       16.929317    1.061383    4.106885
     46          1           0       15.789083   -4.719445    2.053616
     47          1           0       15.900210   -2.695427   -3.890305
     48          1           0       16.891584    4.433577    0.495280
     49          1           0       16.658038    3.441364    3.123667
     50          1           0       18.824272    3.273106    1.063327
     51          1           0       18.777072    1.914761    2.229062
     52          1           0       18.971607    3.529325    2.850287
     53          1           0       14.479908    3.773319    2.197980
     54          1           0       14.192204    4.304938    0.492963
     55          1           0       15.947951    6.166038    1.734195
     56          1           0       14.908560    5.644257    3.005125
     57          1           0       16.247085    0.110543    5.859975
     58          1           0       16.571266   -1.501071    6.373417
     59          1           0       14.876156   -0.950067    6.355690
     60          1           0       15.605125   -3.499371    6.673672
     61          1           0       14.379788   -4.876563    6.499410
     62          1           0       13.940130   -3.162329    6.273513
     63          1           0       15.273908   -5.770388   -0.211463
     64          1           0       16.823052   -4.860582   -2.586413
     65          1           0       17.192597   -6.942731    0.011328
     66          1           0       18.020636   -5.391614    0.381623
     67          1           0       17.996507   -5.966163   -1.204657
     68          1           0       14.845724   -6.424102   -2.704292
     69          1           0       14.826965   -5.115208   -3.880850
     70          1           0       13.287402   -5.579903   -1.439438
     71          1           0       12.672589   -5.043917   -3.039880
     72          1           0       13.481897   -3.892104   -1.885300
     73          1           0       15.417944    0.246569   -6.012615
     74          1           0       15.912152   -1.429427   -5.581499
     75          1           0       17.152054   -0.107585   -5.550883
     76          1           0       16.978097    3.846304   -2.309592
     77          1           0       14.855115    7.580139   -2.723014
     78          1           0       14.528328    7.141976   -0.939491
     79          1           0       13.539408    6.616523   -2.314870
     80         12           0      -16.152246   -0.508370   -0.210867
     81          6           0      -13.676847    2.056035    0.207747
     82          6           0      -18.205178    1.357603    1.773642
     83          6           0      -18.182529   -2.946588   -0.188598
     84          6           0      -13.574140   -2.645947   -1.175149
     85          7           0      -15.864746    1.438072    0.799564
     86          6           0      -14.904783    2.349919    0.836413
     87          6           0      -15.309880    3.682994    1.520787
     88          6           0      -16.500280    3.127151    2.444290
     89          6           0      -16.912734    1.916737    1.609148
     90          6           0      -16.028320    2.632588    3.801492
     91          6           0      -15.829838    4.748600    0.493100
     92          6           0      -15.950282    6.170292    1.046301
     93          1           0      -15.652625    7.290388    0.157908
     94          7           0      -18.083951   -0.566981    0.240435
     95          6           0      -18.758025    0.282399    1.043831
     96          6           0      -20.146794   -0.202328    1.066890
     97          6           0      -20.202115   -1.501840    0.343773
     98          6           0      -18.790367   -1.737540    0.116842
     99          6           0      -21.275024    0.588916    1.662247
    100          6           0      -21.336891   -2.392189   -0.063400
    101          8           0      -21.138992   -3.590279   -0.473574
    102          6           0      -22.692074   -1.852663    0.120602
    103          7           0      -15.893061   -2.560907   -0.416432
    104          6           0      -16.948550   -3.393866   -0.422181
    105          6           0      -16.545235   -4.782466   -0.857515
    106          6           0      -15.038803   -4.649093   -1.377580
    107          6           0      -14.790990   -3.158990   -1.055777
    108          6           0      -16.617590   -5.864594    0.219584
    109          6           0      -14.743876   -5.153454   -2.816792
    110          6           0      -15.438998   -4.268584   -3.826340
    111          7           0      -14.041589   -0.310414   -0.627980
    112          6           0      -13.143823   -1.338136   -0.991146
    113          6           0      -11.796152   -0.736411   -1.055316
    114          6           0      -12.001613    0.605169   -0.699766
    115          6           0      -13.376934    0.819439   -0.413244
    116          6           0      -10.589874   -1.428165   -1.359451
    117          6           0      -11.366120    1.886345   -0.491369
    118          8           0      -10.232960    2.332620   -0.666125
    119          6           0      -12.402278    2.853328    0.228161
    120          6           0      -12.388490    4.171120   -0.496931
    121          8           0      -12.785108    4.249598   -1.672995
    122          8           0      -12.116725    5.154119    0.380691
    123          6           0      -12.102967    6.481898   -0.289110
    124          1           0      -18.843703    1.750853    2.565170
    125          1           0      -18.857304   -3.798284   -0.301611
    126          1           0      -12.732616   -3.223545   -1.563591
    127          1           0      -14.538925    4.129884    2.136979
    128          1           0      -17.316639    3.841811    2.508985
    129          1           0      -14.951023    2.627207    3.876018
    130          1           0      -16.419459    1.628518    3.901008
    131          1           0      -16.494572    3.218089    4.599077
    132          1           0      -16.884620    4.544439    0.268379
    133          1           0      -15.221093    4.754886   -0.390087
    134          1           0      -15.423873    6.286912    2.001413
    135          1           0      -16.997932    6.359102    1.292889
    136          1           0      -20.904283    1.426321    2.266161
    137          1           0      -21.778033   -0.064313    2.383449
    138          1           0      -22.001134    0.915216    0.914609
    139          1           0      -22.842071   -1.602605    1.168187
    140          1           0      -23.364148   -2.597718   -0.309613
    141          1           0      -22.774966   -0.915799   -0.441570
    142          1           0      -17.168998   -5.128705   -1.672468
    143          1           0      -14.339906   -5.225719   -0.753974
    144          1           0      -17.265779   -6.716392   -0.060335
    145          1           0      -16.963441   -5.409354    1.138108
    146          1           0      -15.658424   -6.285017    0.516990
    147          1           0      -15.147585   -6.159363   -2.955734
    148          1           0      -13.685455   -5.196017   -3.051138
    149          1           0      -16.454577   -4.674785   -3.852643
    150          1           0      -14.957658   -4.345903   -4.799163
    151          1           0      -15.506230   -3.236057   -3.464381
    152          1           0      -10.032147   -0.797513   -2.038945
    153          1           0      -10.790587   -2.404347   -1.795982
    154          1           0      -10.153171   -1.507264   -0.360302
    155          1           0      -12.088256    2.954756    1.267720
    156          1           0      -11.131682    6.938100   -0.074224
    157          1           0      -13.001107    7.011951    0.079858
    158          1           0      -12.108484    6.496707   -1.372719
 ---------------------------------------------------------------------

 SCF Done:  E(RCAM-B3LYP) =  -4069.81173926     A.U. after   19 cycles

 Excitation energies and oscillator strengths:

 Excited State   1:      Singlet-A      1.6756 eV  739.95 nm  f=0.3783  <S**2>=0.000
     309 -> 316        0.17291
     311 -> 313        0.68330
     309 <- 316        0.10421
 This state for optimization and/or second-order correction.
 Total Energy, E(TD-HF/TD-DFT) =  -4069.75016291
 Copying the excited state density for this state as the 1-particle RhoCI density.

 Excited State   2:      Singlet-A      1.6799 eV  738.05 nm  f=0.4034  <S**2>=0.000
     310 -> 315        0.17484
     312 -> 314        0.68295
     310 <- 315        0.10470

 Excited State   3:      Singlet-A      2.1861 eV  567.14 nm  f=0.0944  <S**2>=0.000
     309 -> 313        0.64200
     311 -> 316       -0.27296

 Excited State   4:      Singlet-A      2.1925 eV  565.50 nm  f=0.1056  <S**2>=0.000
     310 -> 314        0.64024
     312 -> 315       -0.27808

 Excited State   5:      Singlet-A      3.0471 eV  406.89 nm  f=0.0000  <S**2>=0.000
     312 -> 313        0.70708

 The electronic state is 1-A.
 Alpha  occ. eigenvalues --  -46.87734 -46.87660 -19.26343 -19.26216 -19.19155
 Alpha  occ. eigenvalues --  -19.18951 -19.18755 -19.18714 -19.18106 -19.18046
 Alpha  occ. eigenvalues --  -14.42497 -14.42388 -14.41388 -14.41358 -14.39351
 Alpha  occ. eigenvalues --  -14.39340 -14.38598 -14.38524 -10.39085 -10.39011
 Alpha  occ. eigenvalues --  -10.35391 -10.35388 -10.34326 -10.34224 -10.31749
 Alpha  occ. eigenvalues --  -10.31609 -10.31343 -10.31308 -10.31023 -10.30847
 Alpha  occ. eigenvalues --  -10.30507 -10.30445 -10.30396 -10.30359 -10.30146
 Alpha  occ. eigenvalues --  -10.30140 -10.29893 -10.29859 -10.29569 -10.29436
 Alpha  occ. eigenvalues --  -10.29399 -10.29193 -10.28719 -10.28686 -10.28653
 Alpha  occ. eigenvalues --  -10.28472 -10.28403 -10.28302 -10.28141 -10.28055
 Alpha  occ. eigenvalues --  -10.27999 -10.27731 -10.27669 -10.27665 -10.27522
 Alpha  occ. eigenvalues --  -10.27517 -10.27482 -10.27467 -10.27464 -10.27441
 Alpha  occ. eigenvalues --  -10.27422 -10.27390 -10.27375 -10.27341 -10.27094
 Alpha  occ. eigenvalues --  -10.27047 -10.26691 -10.26638 -10.26416 -10.26351
 Alpha  occ. eigenvalues --  -10.26176 -10.26135 -10.26122 -10.26028 -10.25957
 Alpha  occ. eigenvalues --  -10.25933 -10.25844 -10.25781 -10.25399 -10.25380
 Alpha  occ. eigenvalues --  -10.24870 -10.24770 -10.24727 -10.24726 -10.24689
 Alpha  occ. eigenvalues --  -10.24621  -3.16477  -3.16409  -1.91358  -1.91292
 Alpha  occ. eigenvalues --   -1.90945  -1.90880  -1.90787  -1.90717  -1.16638
 Alpha  occ. eigenvalues --   -1.16564  -1.08653  -1.08563  -1.07156  -1.06966
 Alpha  occ. eigenvalues --   -1.06940  -1.06573  -1.04519  -1.04494  -1.03699
 Alpha  occ. eigenvalues --   -1.03662  -1.03172  -1.03038  -1.02349  -1.02110
 Alpha  occ. eigenvalues --   -0.91985  -0.91909  -0.89493  -0.89458  -0.89151
 Alpha  occ. eigenvalues --   -0.89125  -0.88226  -0.88219  -0.87808  -0.87790
 Alpha  occ. eigenvalues --   -0.87683  -0.87611  -0.87213  -0.87120  -0.84999
 Alpha  occ. eigenvalues --   -0.84919  -0.83875  -0.83875  -0.82931  -0.82907
 Alpha  occ. eigenvalues --   -0.82652  -0.82586  -0.81593  -0.81521  -0.80533
 Alpha  occ. eigenvalues --   -0.80440  -0.78736  -0.78634  -0.77156  -0.77143
 Alpha  occ. eigenvalues --   -0.76897  -0.76871  -0.75860  -0.75837  -0.74837
 Alpha  occ. eigenvalues --   -0.74802  -0.72712  -0.72697  -0.71611  -0.71580
 Alpha  occ. eigenvalues --   -0.69845  -0.69756  -0.68826  -0.68810  -0.67600
 Alpha  occ. eigenvalues --   -0.67579  -0.67199  -0.67156  -0.65270  -0.65223
 Alpha  occ. eigenvalues --   -0.64791  -0.64768  -0.64652  -0.64558  -0.64208
 Alpha  occ. eigenvalues --   -0.64202  -0.62275  -0.62232  -0.60381  -0.60339
 Alpha  occ. eigenvalues --   -0.59796  -0.59742  -0.58991  -0.58925  -0.58441
 Alpha  occ. eigenvalues --   -0.58424  -0.57551  -0.57520  -0.57247  -0.57235
 Alpha  occ. eigenvalues --   -0.56248  -0.56202  -0.55913  -0.55883  -0.55459
 Alpha  occ. eigenvalues --   -0.55450  -0.55277  -0.55245  -0.54485  -0.54459
 Alpha  occ. eigenvalues --   -0.53912  -0.53832  -0.53237  -0.53226  -0.53159
 Alpha  occ. eigenvalues --   -0.53140  -0.52900  -0.52850  -0.52695  -0.52668
 Alpha  occ. eigenvalues --   -0.52399  -0.52375  -0.51880  -0.51852  -0.51657
 Alpha  occ. eigenvalues --   -0.51553  -0.51198  -0.51133  -0.50512  -0.50475
 Alpha  occ. eigenvalues --   -0.49979  -0.49971  -0.49866  -0.49857  -0.49487
 Alpha  occ. eigenvalues --   -0.49453  -0.49201  -0.49152  -0.49103  -0.49034
 Alpha  occ. eigenvalues --   -0.48556  -0.48530  -0.48401  -0.48383  -0.48374
 Alpha  occ. eigenvalues --   -0.48338  -0.47633  -0.47593  -0.47236  -0.47117
 Alpha  occ. eigenvalues --   -0.46735  -0.46708  -0.46553  -0.46492  -0.46297
 Alpha  occ. eigenvalues --   -0.46269  -0.46100  -0.46083  -0.45819  -0.45758
 Alpha  occ. eigenvalues --   -0.45208  -0.45141  -0.44514  -0.44512  -0.44475
 Alpha  occ. eigenvalues --   -0.44445  -0.44126  -0.44082  -0.44076  -0.44026
 Alpha  occ. eigenvalues --   -0.43957  -0.43937  -0.43550  -0.43430  -0.43384
 Alpha  occ. eigenvalues --   -0.43324  -0.42965  -0.42927  -0.42898  -0.42634
 Alpha  occ. eigenvalues --   -0.42590  -0.42552  -0.41962  -0.41946  -0.41667
 Alpha  occ. eigenvalues --   -0.41641  -0.41471  -0.41458  -0.41080  -0.40989
 Alpha  occ. eigenvalues --   -0.40807  -0.40762  -0.40722  -0.40698  -0.40510
 Alpha  occ. eigenvalues --   -0.40492  -0.40226  -0.40169  -0.39424  -0.39379
 Alpha  occ. eigenvalues --   -0.38408  -0.38350  -0.37684  -0.37653  -0.37265
 Alpha  occ. eigenvalues --   -0.37259  -0.37200  -0.37198  -0.36767  -0.36647
 Alpha  occ. eigenvalues --   -0.36215  -0.36128  -0.34252  -0.34224  -0.33857
 Alpha  occ. eigenvalues --   -0.33702  -0.33174  -0.33124  -0.31285  -0.31273
 Alpha  occ. eigenvalues --   -0.30973  -0.30972  -0.29965  -0.29951  -0.29387
 Alpha  occ. eigenvalues --   -0.29326  -0.29259  -0.29209  -0.24035  -0.24018
 Alpha  occ. eigenvalues --   -0.21116  -0.21066
 Alpha virt. eigenvalues --   -0.08791  -0.08712  -0.01688  -0.01683  -0.00028
 Alpha virt. eigenvalues --    0.00004   0.02210   0.02263   0.03191   0.03227
 Alpha virt. eigenvalues --    0.04731   0.04781   0.05166   0.05171   0.06185

 Mulliken charges:
               1
     1  Mg   0.838885
     2  C   -0.002917
     3  C   -0.094123
     4  C   -0.045894
     5  C   -0.063971
     6  N   -0.256784
     7  C   -0.052466
     8  C   -0.014024
     9  C   -0.087015
    10  C    0.046364
    11  C    0.104831
    12  C    0.053469
    13  C   -0.071837
    14  H    0.036261
    15  N   -0.433151
    16  C    0.168436
    17  C   -0.177157
    18  C   -0.004018
    19  C    0.148723
    20  C    0.110193
    21  C    0.012293
    22  O   -0.249665
    23  C    0.062467
    24  N   -0.341166
    25  C    0.041261
    26  C   -0.028168
    27  C   -0.023961
    28  C    0.074861
    29  C    0.076196
    30  C    0.035125
    31  C   -0.004504
    32  N   -0.310487
    33  C    0.080455
    34  C   -0.169691
    35  C    0.008360
    36  C    0.083031
    37  C    0.127300
    38  C    0.046148
    39  O   -0.188415
    40  C   -0.005343
    41  C    0.212876
    42  O   -0.256982
    43  O   -0.304850
    44  C    0.157665
    45  H   -0.017660
    46  H   -0.016880
    47  H   -0.041505
    48  H    0.000905
    49  H   -0.004031
    50  H    0.025442
    51  H    0.016405
    52  H    0.016598
    53  H    0.011255
    54  H    0.044214
    55  H    0.017793
    56  H    0.017933
    57  H    0.005852
    58  H    0.026741
    59  H    0.039587
    60  H    0.037284
    61  H    0.035610
    62  H    0.031574
    63  H    0.016562
    64  H    0.009397
    65  H    0.023161
    66  H    0.012503
    67  H    0.004694
    68  H    0.006307
    69  H    0.004726
    70  H    0.008772
    71  H    0.018223
    72  H    0.029044
    73  H    0.047638
    74  H    0.009111
    75  H    0.045940
    76  H    0.035086
    77  H    0.042913
    78  H    0.046388
    79  H    0.053813
    80  Mg   0.837869
    81  C   -0.016814
    82  C   -0.087802
    83  C   -0.045542
    84  C   -0.064876
    85  N   -0.254558
    86  C   -0.049854
    87  C   -0.015094
    88  C   -0.090498
    89  C    0.045749
    90  C    0.114374
    91  C    0.062529
    92  C   -0.077905
    93  H    0.034956
    94  N   -0.423495
    95  C    0.162907
    96  C   -0.174635
    97  C   -0.007826
    98  C    0.152116
    99  C    0.099372
   100  C    0.015586
   101  O   -0.253189
   102  C    0.061192
   103  N   -0.350069
   104  C    0.037529
   105  C   -0.019836
   106  C   -0.034834
   107  C    0.088931
   108  C    0.073657
   109  C    0.034753
   110  C   -0.007699
   111  N   -0.324120
   112  C    0.078455
   113  C   -0.163095
   114  C    0.002280
   115  C    0.096202
   116  C    0.131485
   117  C    0.042413
   118  O   -0.187751
   119  C    0.000897
   120  C    0.211293
   121  O   -0.250971
   122  O   -0.305655
   123  C    0.151993
   124  H   -0.019689
   125  H   -0.015577
   126  H   -0.040404
   127  H   -0.000655
   128  H   -0.004327
   129  H    0.022448
   130  H    0.014405
   131  H    0.016253
   132  H    0.013926
   133  H    0.037716
   134  H    0.020760
   135  H    0.019577
   136  H    0.008749
   137  H    0.026115
   138  H    0.039801
   139  H    0.038236
   140  H    0.036398
   141  H    0.033914
   142  H    0.014414
   143  H    0.012422
   144  H    0.025139
   145  H    0.011608
   146  H    0.005668
   147  H    0.006263
   148  H    0.003698
   149  H    0.010924
   150  H    0.017996
   151  H    0.030104
   152  H    0.046129
   153  H    0.008552
   154  H    0.046948
   155  H    0.035005
   156  H    0.043959
   157  H    0.049457
   158  H    0.053646
 Sum of Mulliken charges =  -0.00000

 Dipole moment (field-independent basis, Debye):
    X=             -1.1734    Y=              1.1313    Z=              7.2193  Tot=              7.4011
 Quadrupole moment (field-independent basis, Debye-Ang):
   XX=           -367.7401   YY=           -486.7075   ZZ=           -502.7522
   XY=            -33.0153   XZ=             11.8935   YZ=             51.1464

 Normal termination of Gaussian 16 at Sun Sep 12 16:51:46 2021.
