 Gaussian 16, Revision A.03,
 Gaussian 16:  ES64L-G16RevA.03 25-Dec-2016

 -----------------------------------
 #p cam-b3lyp/Def2SVP td=(nstates=5)
 -----------------------------------

 --------------------------------
 TDDFT excited states in gaussian
 --------------------------------
 Symbolic Z-matrix:
 Charge =  0 Multiplicity = 1

                         Standard orientation:
 ---------------------------------------------------------------------
 Center     Atomic      Atomic             Coordinates (Angstroms)
 Number     Number       Type             X           Y           Z
 ---------------------------------------------------------------------
      1         12           0        3.898887    1.373880    0.790090
      2          6           0        4.901650   -1.864389   -0.358949
      3          6           0        4.990558    2.608222   -2.197839
      4          6           0        3.444442    4.289323    1.952111
      5          6           0        3.952243    0.079828    4.025557
      6          7           0        4.809554    0.395636   -0.974668
      7          6           0        5.085265   -0.860248   -1.312171
      8          6           0        5.516753   -1.019444   -2.800744
      9          6           0        6.042696    0.461371   -3.070125
     10          6           0        5.206439    1.206444   -2.044715
     11          6           0        7.518042    0.654398   -2.734570
     12          6           0        4.311667   -1.378023   -3.733975
     13          6           0        4.692703   -1.868642   -5.133782
     14          1           0        3.876139   -2.896183   -5.762058
     15          7           0        3.716262    3.108640   -0.137330
     16          6           0        4.209652    3.430672   -1.357227
     17          6           0        3.808513    4.832769   -1.601961
     18          6           0        3.205748    5.359434   -0.346018
     19          6           0        3.458449    4.267825    0.559471
     20          6           0        3.964537    5.513941   -2.926880
     21          6           0        2.521394    6.647118   -0.011864
     22          8           0        2.280292    6.996231    1.194190
     23          6           0        2.216029    7.541607   -1.143095
     24          7           0        3.934739    2.152185    2.726735
     25          6           0        3.646126    3.437311    2.959407
     26          6           0        3.457826    3.698044    4.424501
     27          6           0        3.438742    2.265477    5.129582
     28          6           0        3.716868    1.386356    3.885370
     29          6           0        4.523459    4.580073    5.089680
     30          6           0        2.207786    1.930850    6.008895
     31          6           0        0.975908    1.804985    5.140717
     32          7           0        4.169291   -0.582424    1.690535
     33          6           0        4.175667   -0.886912    3.059447
     34          6           0        4.502225   -2.319551    3.181813
     35          6           0        4.680585   -2.747959    1.867850
     36          6           0        4.504073   -1.646494    0.982462
     37          6           0        4.656663   -3.037980    4.400190
     38          6           0        5.003453   -3.874569    1.007406
     39          8           0        5.161839   -5.083340    1.184270
     40          6           0        5.279378   -3.321315   -0.460109
     41          6           0        4.508202   -4.182442   -1.422947
     42          8           0        3.260301   -4.174726   -1.429936
     43          8           0        5.349836   -4.693602   -2.334489
     44          6           0        4.644012   -5.534688   -3.337755
     45          1           0        5.511943    3.138338   -2.997261
     46          1           0        3.181468    5.254370    2.390253
     47          1           0        3.903705   -0.412610    4.998491
     48          1           0        6.321248   -1.736177   -2.966590
     49          1           0        5.800635    0.802423   -4.076510
     50          1           0        7.933234   -0.225339   -2.243042
     51          1           0        7.554526    1.515940   -2.067555
     52          1           0        8.083258    0.938764   -3.622513
     53          1           0        3.776457   -0.465507   -3.996515
     54          1           0        3.661255   -2.113268   -3.258893
     55          1           0        5.749053   -2.133056   -5.189619
     56          1           0        4.584823   -1.035796   -5.828713
     57          1           0        4.587623    4.932453   -3.605246
     58          1           0        4.533372    6.426666   -2.750613
     59          1           0        3.002963    5.761193   -3.376960
     60          1           0        3.141774    7.799909   -1.657708
     61          1           0        1.647963    8.371908   -0.725064
     62          1           0        1.604219    7.000785   -1.865694
     63          1           0        2.510772    4.201828    4.613491
     64          1           0        4.288659    2.127410    5.798352
     65          1           0        4.116186    5.465393    5.578601
     66          1           0        5.255567    4.854413    4.330704
     67          1           0        5.149728    4.068197    5.819877
     68          1           0        2.018998    2.735376    6.718855
     69          1           0        2.322786    1.007549    6.576822
     70          1           0        0.650662    2.838626    5.028325
     71          1           0        0.214584    1.208757    5.644809
     72          1           0        1.225500    1.432060    4.147180
     73          1           0        4.142802   -3.989017    4.260749
     74          1           0        4.242407   -2.483603    5.242011
     75          1           0        5.742230   -3.121751    4.449002
     76          1           0        6.354692   -3.387105   -0.622876
     77          1           0        5.121093   -6.514751   -3.327605
     78          1           0        4.655654   -4.975948   -4.273746
     79          1           0        3.614148   -5.804677   -3.101481
     80         12           0       -4.841434   -0.324223   -0.480826
     81          6           0       -2.091731   -2.599853   -0.107092
     82          6           0       -2.587455    1.982160   -1.592017
     83          6           0       -7.161669    1.838313   -0.395020
     84          6           0       -6.647192   -2.368029    1.688919
     85          7           0       -2.650340   -0.416018   -0.768801
     86          6           0       -1.721247   -1.352761   -0.652031
     87          6           0       -0.332843   -0.956150   -1.221741
     88          6           0       -0.476039    0.639766   -1.114901
     89          6           0       -1.996710    0.754865   -1.198499
     90          6           0       -0.027993    1.195747    0.226544
     91          6           0       -0.143210   -1.417539   -2.709418
     92          6           0        1.294060   -1.338991   -3.228851
     93          1           0        1.752557   -2.361390   -4.165319
     94          7           0       -4.981445    1.445082   -1.368814
     95          6           0       -3.964922    2.235247   -1.773308
     96          6           0       -4.592327    3.435463   -2.347756
     97          6           0       -6.057964    3.362801   -2.100085
     98          6           0       -6.122722    2.197248   -1.241372
     99          6           0       -3.821100    4.466787   -3.119130
    100          6           0       -7.209165    4.210525   -2.549873
    101          8           0       -8.371615    4.103109   -2.020732
    102          6           0       -6.913066    5.234295   -3.562643
    103          7           0       -6.567842   -0.153244    0.664875
    104          6           0       -7.432879    0.856587    0.465191
    105          6           0       -8.726478    0.621664    1.208026
    106          6           0       -8.641007   -0.878381    1.755865
    107          6           0       -7.212513   -1.236686    1.290633
    108          6           0       -9.007860    1.572693    2.371108
    109          6           0       -9.804238   -1.834361    1.374213
    110          6           0       -9.781762   -2.106699   -0.112633
    111          7           0       -4.537626   -2.244701    0.461260
    112          6           0       -5.410631   -2.904632    1.353691
    113          6           0       -4.719219   -4.125495    1.816144
    114          6           0       -3.472946   -4.078894    1.173393
    115          6           0       -3.385469   -2.901109    0.383042
    116          6           0       -5.232451   -5.068913    2.750317
    117          6           0       -2.207401   -4.752853    0.992103
    118          8           0       -1.742117   -5.836381    1.343120
    119          6           0       -1.207972   -3.761322    0.254257
    120          6           0       -0.548954   -4.515916   -0.867704
    121          8           0       -1.217683   -4.923290   -1.833871
    122          8           0        0.786744   -4.442992   -0.722936
    123          6           0        1.484880   -5.167320   -1.818267
    124          1           0       -1.939531    2.847271   -1.735784
    125          1           0       -8.033867    2.495883   -0.413968
    126          1           0       -7.181015   -3.107461    2.289711
    127          1           0        0.512535   -1.293768   -0.634266
    128          1           0       -0.008981    1.135815   -1.961747
    129          1           0        0.202692    0.410702    0.931273
    130          1           0       -0.852929    1.796685    0.586259
    131          1           0        0.809439    1.885554    0.087971
    132          1           0       -0.623463   -0.688273   -3.374455
    133          1           0       -0.525381   -2.409591   -2.852302
    134          1           0        2.019400   -1.208869   -2.416511
    135          1           0        1.397279   -0.431226   -3.828287
    136          1           0       -2.739055    4.336756   -2.993929
    137          1           0       -4.033402    5.436817   -2.656718
    138          1           0       -4.108003    4.506864   -4.172099
    139          1           0       -6.149279    5.908356   -3.182199
    140          1           0       -7.876950    5.676958   -3.821197
    141          1           0       -6.487395    4.741713   -4.443991
    142          1           0       -9.575898    0.704365    0.541137
    143          1           0       -8.630814   -0.910690    2.855268
    144          1           0       -9.969182    2.111276    2.271762
    145          1           0       -8.186045    2.272329    2.446433
    146          1           0       -9.008222    1.109785    3.356453
    147          1           0      -10.766942   -1.364060    1.589079
    148          1           0       -9.780568   -2.778274    1.908500
    149          1           0      -10.306609   -1.242084   -0.529840
    150          1           0      -10.304645   -3.033415   -0.340287
    151          1           0       -8.756666   -2.088766   -0.500582
    152          1           0       -5.005117   -6.051094    2.357706
    153          1           0       -6.301995   -4.937861    2.900858
    154          1           0       -4.656472   -4.796727    3.638818
    155          1           0       -0.485521   -3.414006    0.993860
    156          1           0        2.148146   -5.898457   -1.345828
    157          1           0        1.959226   -4.384349   -2.439327
    158          1           0        0.886841   -5.806284   -2.457425
 ---------------------------------------------------------------------

 SCF Done:  E(RCAM-B3LYP) =  -4069.74805813     A.U. after   19 cycles

 Excitation energies and oscillator strengths:

 Excited State   1:      Singlet-A      1.6383 eV  756.78 nm  f=0.0055  <S**2>=0.000
     309 -> 315        0.12588
     310 -> 316       -0.10625
     311 -> 313        0.52226
     312 -> 314       -0.44788
 This state for optimization and/or second-order correction.
 Total Energy, E(TD-HF/TD-DFT) =  -4069.68785128
 Copying the excited state density for this state as the 1-particle RhoCI density.

 Excited State   2:      Singlet-A      1.7054 eV  727.02 nm  f=0.6755  <S**2>=0.000
     309 -> 315        0.11908
     310 -> 316        0.13711
     311 -> 313        0.44512
     312 -> 314        0.51919

 Excited State   3:      Singlet-A      2.1290 eV  582.36 nm  f=0.0018  <S**2>=0.000
     312 -> 313        0.69780

 Excited State   4:      Singlet-A      2.1778 eV  569.30 nm  f=0.0905  <S**2>=0.000
     309 -> 313        0.15606
     310 -> 314        0.62376
     312 -> 316       -0.26137

 Excited State   5:      Singlet-A      2.1944 eV  565.00 nm  f=0.1073  <S**2>=0.000
     309 -> 313        0.61453
     310 -> 314       -0.15724
     311 -> 315       -0.26788

 The electronic state is 1-A.
 Alpha  occ. eigenvalues --  -46.88398 -46.87246 -19.27627 -19.23899 -19.19402
 Alpha  occ. eigenvalues --  -19.19329 -19.18741 -19.18369 -19.17346 -19.17301
 Alpha  occ. eigenvalues --  -14.43011 -14.42109 -14.41977 -14.40936 -14.39977
 Alpha  occ. eigenvalues --  -14.39138 -14.38940 -14.38160 -10.40259 -10.37266
 Alpha  occ. eigenvalues --  -10.35960 -10.35057 -10.34982 -10.33467 -10.32941
 Alpha  occ. eigenvalues --  -10.31954 -10.31515 -10.31120 -10.31047 -10.30875
 Alpha  occ. eigenvalues --  -10.30707 -10.30561 -10.30413 -10.30150 -10.29960
 Alpha  occ. eigenvalues --  -10.29892 -10.29803 -10.29783 -10.29469 -10.29228
 Alpha  occ. eigenvalues --  -10.29080 -10.29057 -10.28971 -10.28955 -10.28602
 Alpha  occ. eigenvalues --  -10.28310 -10.28245 -10.28193 -10.28129 -10.28000
 Alpha  occ. eigenvalues --  -10.27997 -10.27977 -10.27920 -10.27890 -10.27864
 Alpha  occ. eigenvalues --  -10.27846 -10.27843 -10.27566 -10.27309 -10.27214
 Alpha  occ. eigenvalues --  -10.27213 -10.27213 -10.27054 -10.27042 -10.26961
 Alpha  occ. eigenvalues --  -10.26949 -10.26928 -10.26667 -10.26526 -10.26499
 Alpha  occ. eigenvalues --  -10.26165 -10.26153 -10.26151 -10.25999 -10.25970
 Alpha  occ. eigenvalues --  -10.25869 -10.25782 -10.25541 -10.25476 -10.25355
 Alpha  occ. eigenvalues --  -10.25329 -10.25117 -10.24993 -10.24464 -10.24399
 Alpha  occ. eigenvalues --  -10.24258  -3.17087  -3.15997  -1.91970  -1.91557
 Alpha  occ. eigenvalues --   -1.91400  -1.90879  -1.90468  -1.90304  -1.18059
 Alpha  occ. eigenvalues --   -1.14335  -1.09301  -1.08466  -1.07859  -1.07728
 Alpha  occ. eigenvalues --   -1.06629  -1.05146  -1.04998  -1.04293  -1.04071
 Alpha  occ. eigenvalues --   -1.03776  -1.03244  -1.02947  -1.02624  -1.01686
 Alpha  occ. eigenvalues --   -0.92606  -0.91377  -0.90005  -0.89697  -0.89078
 Alpha  occ. eigenvalues --   -0.88791  -0.88733  -0.88325  -0.88195  -0.87845
 Alpha  occ. eigenvalues --   -0.87806  -0.87375  -0.87254  -0.86765  -0.85550
 Alpha  occ. eigenvalues --   -0.84565  -0.84468  -0.83501  -0.83451  -0.83307
 Alpha  occ. eigenvalues --   -0.82604  -0.82432  -0.82177  -0.81230  -0.80616
 Alpha  occ. eigenvalues --   -0.79355  -0.79313  -0.78247  -0.77727  -0.77549
 Alpha  occ. eigenvalues --   -0.76782  -0.76551  -0.76323  -0.75394  -0.75177
 Alpha  occ. eigenvalues --   -0.74212  -0.73274  -0.72293  -0.72205  -0.71143
 Alpha  occ. eigenvalues --   -0.70307  -0.69487  -0.69430  -0.68605  -0.68209
 Alpha  occ. eigenvalues --   -0.67828  -0.67097  -0.66731  -0.65872  -0.65539
 Alpha  occ. eigenvalues --   -0.65196  -0.64758  -0.64657  -0.64324  -0.63964
 Alpha  occ. eigenvalues --   -0.63662  -0.63218  -0.60961  -0.60673  -0.60314
 Alpha  occ. eigenvalues --   -0.59957  -0.59756  -0.59551  -0.59380  -0.58988
 Alpha  occ. eigenvalues --   -0.58444  -0.57906  -0.57821  -0.57596  -0.56970
 Alpha  occ. eigenvalues --   -0.56870  -0.56731  -0.56025  -0.55839  -0.55750
 Alpha  occ. eigenvalues --   -0.55411  -0.55135  -0.54753  -0.54574  -0.54367
 Alpha  occ. eigenvalues --   -0.53856  -0.53806  -0.53632  -0.53533  -0.53403
 Alpha  occ. eigenvalues --   -0.53281  -0.52847  -0.52755  -0.52624  -0.52521
 Alpha  occ. eigenvalues --   -0.52202  -0.52168  -0.52122  -0.51852  -0.51411
 Alpha  occ. eigenvalues --   -0.51383  -0.51175  -0.51060  -0.50738  -0.50413
 Alpha  occ. eigenvalues --   -0.50392  -0.50201  -0.49994  -0.49874  -0.49641
 Alpha  occ. eigenvalues --   -0.49618  -0.49495  -0.49291  -0.49160  -0.49047
 Alpha  occ. eigenvalues --   -0.48933  -0.48711  -0.48594  -0.48263  -0.48056
 Alpha  occ. eigenvalues --   -0.47941  -0.47710  -0.47679  -0.47369  -0.47177
 Alpha  occ. eigenvalues --   -0.47068  -0.46936  -0.46707  -0.46566  -0.46402
 Alpha  occ. eigenvalues --   -0.46151  -0.46081  -0.45839  -0.45656  -0.45388
 Alpha  occ. eigenvalues --   -0.45224  -0.45013  -0.44938  -0.44746  -0.44649
 Alpha  occ. eigenvalues --   -0.44581  -0.44474  -0.44301  -0.44127  -0.43998
 Alpha  occ. eigenvalues --   -0.43865  -0.43764  -0.43697  -0.43572  -0.43490
 Alpha  occ. eigenvalues --   -0.43167  -0.43106  -0.42868  -0.42486  -0.42426
 Alpha  occ. eigenvalues --   -0.42250  -0.42205  -0.42038  -0.41723  -0.41703
 Alpha  occ. eigenvalues --   -0.41573  -0.41394  -0.41298  -0.41115  -0.41017
 Alpha  occ. eigenvalues --   -0.40942  -0.40729  -0.40569  -0.40353  -0.40220
 Alpha  occ. eigenvalues --   -0.40007  -0.39956  -0.39817  -0.39379  -0.39090
 Alpha  occ. eigenvalues --   -0.38916  -0.38246  -0.37987  -0.37836  -0.37779
 Alpha  occ. eigenvalues --   -0.37613  -0.37062  -0.36877  -0.36802  -0.36437
 Alpha  occ. eigenvalues --   -0.35970  -0.34815  -0.34374  -0.33820  -0.33790
 Alpha  occ. eigenvalues --   -0.32848  -0.32190  -0.31945  -0.31793  -0.31060
 Alpha  occ. eigenvalues --   -0.30922  -0.30603  -0.30448  -0.29989  -0.29829
 Alpha  occ. eigenvalues --   -0.29201  -0.28920  -0.28739  -0.24640  -0.23570
 Alpha  occ. eigenvalues --   -0.21653  -0.20718
 Alpha virt. eigenvalues --   -0.09320  -0.08357  -0.02300  -0.01295  -0.00607
 Alpha virt. eigenvalues --    0.00322   0.01660   0.02732   0.02951   0.03428
 Alpha virt. eigenvalues --    0.03698   0.04046   0.04789   0.05421   0.06149

 Mulliken charges:
               1
     1  Mg   0.804761
     2  C   -0.005793
     3  C   -0.093421
     4  C   -0.041448
     5  C   -0.061019
     6  N   -0.255108
     7  C   -0.057824
     8  C    0.005254
     9  C   -0.084873
    10  C    0.045956
    11  C    0.105401
    12  C    0.013956
    13  C   -0.067594
    14  H    0.035215
    15  N   -0.437630
    16  C    0.166074
    17  C   -0.179531
    18  C   -0.005158
    19  C    0.144026
    20  C    0.110511
    21  C    0.011368
    22  O   -0.248055
    23  C    0.063285
    24  N   -0.334744
    25  C    0.039041
    26  C   -0.028252
    27  C   -0.024648
    28  C    0.075379
    29  C    0.075768
    30  C    0.034657
    31  C   -0.005303
    32  N   -0.310514
    33  C    0.080002
    34  C   -0.167418
    35  C    0.010537
    36  C    0.081637
    37  C    0.126195
    38  C    0.049014
    39  O   -0.185947
    40  C   -0.007096
    41  C    0.237352
    42  O   -0.274169
    43  O   -0.297305
    44  C    0.165193
    45  H   -0.017408
    46  H   -0.016249
    47  H   -0.039975
    48  H   -0.003669
    49  H   -0.004059
    50  H    0.025822
    51  H    0.017195
    52  H    0.017578
    53  H    0.017618
    54  H    0.062124
    55  H    0.016269
    56  H    0.018566
    57  H    0.006627
    58  H    0.028145
    59  H    0.037862
    60  H    0.038656
    61  H    0.036961
    62  H    0.028471
    63  H    0.017317
    64  H    0.010591
    65  H    0.024213
    66  H    0.012902
    67  H    0.005783
    68  H    0.007618
    69  H    0.006054
    70  H    0.009197
    71  H    0.020271
    72  H    0.027844
    73  H    0.051854
    74  H    0.010540
    75  H    0.046765
    76  H    0.036002
    77  H    0.050489
    78  H    0.051908
    79  H    0.032512
    80  Mg   0.836345
    81  C   -0.015310
    82  C   -0.088124
    83  C   -0.046340
    84  C   -0.066847
    85  N   -0.253647
    86  C   -0.051515
    87  C   -0.020767
    88  C   -0.094758
    89  C    0.043871
    90  C    0.081307
    91  C    0.103492
    92  C   -0.129733
    93  H    0.039218
    94  N   -0.423235
    95  C    0.161757
    96  C   -0.175240
    97  C   -0.008931
    98  C    0.151767
    99  C    0.100230
   100  C    0.014919
   101  O   -0.254327
   102  C    0.061469
   103  N   -0.350561
   104  C    0.037074
   105  C   -0.019393
   106  C   -0.034873
   107  C    0.089888
   108  C    0.074051
   109  C    0.034975
   110  C   -0.007526
   111  N   -0.324355
   112  C    0.079502
   113  C   -0.164412
   114  C    0.003814
   115  C    0.095194
   116  C    0.131655
   117  C    0.040458
   118  O   -0.184482
   119  C    0.004503
   120  C    0.211117
   121  O   -0.258347
   122  O   -0.304474
   123  C    0.227370
   124  H   -0.020798
   125  H   -0.016828
   126  H   -0.041439
   127  H    0.010130
   128  H   -0.002866
   129  H    0.035452
   130  H    0.015995
   131  H    0.047112
   132  H    0.004011
   133  H    0.039538
   134  H    0.045311
   135  H    0.016657
   136  H    0.005797
   137  H    0.025070
   138  H    0.037743
   139  H    0.037554
   140  H    0.035275
   141  H    0.032992
   142  H    0.013664
   143  H    0.011639
   144  H    0.024237
   145  H    0.011531
   146  H    0.004684
   147  H    0.005453
   148  H    0.003274
   149  H    0.010541
   150  H    0.017326
   151  H    0.030757
   152  H    0.046510
   153  H    0.007455
   154  H    0.046046
   155  H    0.036009
   156  H    0.014060
   157  H    0.060075
   158  H    0.003133
 Sum of Mulliken charges =  -0.00000

 Dipole moment (field-independent basis, Debye):
    X=              5.3214    Y=              6.5660    Z=             -2.6287  Tot=              8.8510
 Quadrupole moment (field-independent basis, Debye-Ang):
   XX=           -495.5826   YY=           -560.3356   ZZ=           -464.9577
   XY=             20.6204   XZ=            -36.0010   YZ=            -10.8074

 Normal termination of Gaussian 16 at Fri Sep 10 01:36:05 2021.
