 Gaussian 16, Revision A.03,
 Gaussian 16:  ES64L-G16RevA.03 25-Dec-2016

 -----------------------------------
 #p cam-b3lyp/Def2SVP td=(nstates=5)
 -----------------------------------

 --------------------------------
 TDDFT excited states in gaussian
 --------------------------------
 Symbolic Z-matrix:
 Charge =  0 Multiplicity = 1

                         Standard orientation:
 ---------------------------------------------------------------------
 Center     Atomic      Atomic             Coordinates (Angstroms)
 Number     Number       Type             X           Y           Z
 ---------------------------------------------------------------------
      1         12           0        6.889202    0.358550    0.512115
      2          6           0        7.082878   -2.758555   -1.236700
      3          6           0        7.921999    1.868440   -2.368272
      4          6           0        7.163521    3.057891    2.153739
      5          6           0        6.982405   -1.468653    3.478308
      6          7           0        7.403530   -0.449551   -1.483652
      7          6           0        7.378816   -1.656008   -2.041345
      8          6           0        7.623199   -1.630578   -3.579852
      9          6           0        8.416890   -0.251881   -3.685907
     10          6           0        7.855748    0.446373   -2.459740
     11          6           0        9.925370   -0.402790   -3.517924
     12          6           0        6.286181   -1.585984   -4.393563
     13          6           0        6.421134   -1.886813   -5.889104
     14          1           0        5.352648   -2.615405   -6.556067
     15          7           0        6.982790    2.231712   -0.108655
     16          6           0        7.413103    2.663377   -1.318524
     17          6           0        7.290295    4.136789   -1.292885
     18          6           0        6.933191    4.539524    0.095774
     19          6           0        7.039271    3.278416    0.784054
     20          6           0        7.456698    4.997587   -2.507416
     21          6           0        6.566375    5.854474    0.707726
     22          8           0        6.519701    6.026082    1.973802
     23          6           0        6.346466    6.974603   -0.225008
     24          7           0        7.271259    0.764584    2.523782
     25          6           0        7.279443    2.020096    2.984877
     26          6           0        7.290637    2.050959    4.484497
     27          6           0        7.042135    0.546834    4.959477
     28          6           0        7.011139   -0.137205    3.570448
     29          6           0        8.574912    2.585444    5.133323
     30          6           0        5.858556    0.301961    5.928804
     31          6           0        4.550011    0.565079    5.217765
     32          7           0        6.832478   -1.740533    1.061364
     33          6           0        6.906606   -2.275737    2.355480
     34          6           0        6.938745   -3.743140    2.214898
     35          6           0        6.897535   -3.960615    0.839088
     36          6           0        6.869597   -2.707894    0.162183
     37          6           0        7.056633   -4.679911    3.279321
     38          6           0        6.895470   -4.959466   -0.217392
     39          8           0        6.815601   -6.188339   -0.248765
     40          6           0        7.138373   -4.219936   -1.606608
     41          6           0        6.116575   -4.737697   -2.581883
     42          8           0        4.902675   -4.493331   -2.426645
     43          8           0        6.742433   -5.230893   -3.661513
     44          6           0        5.784543   -5.734551   -4.681773
     45          1           0        8.463058    2.422226   -3.138023
     46          1           0        7.149885    3.963290    2.764070
     47          1           0        6.926110   -2.105731    4.362851
     48          1           0        8.241657   -2.446015   -3.955347
     49          1           0        8.155647    0.299663   -4.588832
     50          1           0       10.193972   -1.417354   -3.223927
     51          1           0       10.203690    0.305949   -2.737718
     52          1           0       10.449588   -0.079233   -4.417525
     53          1           0        5.929486   -0.557191   -4.442710
     54          1           0        5.545845   -2.256795   -3.956252
     55          1           0        7.389236   -2.332034   -6.120333
     56          1           0        6.422477   -0.939970   -6.429184
     57          1           0        7.877534    4.436868   -3.341105
     58          1           0        8.216874    5.741201   -2.268921
     59          1           0        6.528827    5.496943   -2.786756
     60          1           0        7.252013    7.139489   -0.809256
     61          1           0        6.005916    7.810949    0.384419
     62          1           0        5.569338    6.694158   -0.936606
     63          1           0        6.491397    2.683504    4.868591
     64          1           0        7.904931    0.135760    5.484144
     65          1           0        8.409111    3.432165    5.799865
     66          1           0        9.271873    2.845201    4.337043
     67          1           0        9.148250    1.844655    5.690039
     68          1           0        5.909848    0.990631    6.771448
     69          1           0        5.833194   -0.711384    6.329730
     70          1           0        4.437253    1.644954    5.307133
     71          1           0        3.733348    0.044460    5.718994
     72          1           0        4.620365    0.331633    4.155202
     73          1           0        6.345546   -5.477378    3.063980
     74          1           0        6.849123   -4.213462    4.242112
     75          1           0        8.100714   -4.974433    3.174403
     76          1           0        8.155936   -4.458086   -1.914783
     77          1           0        6.046443   -6.773423   -4.882737
     78          1           0        5.822227   -5.032911   -5.515252
     79          1           0        4.748543   -5.842308   -4.358616
     80         12           0       -6.332065    0.705252   -0.022062
     81          6           0       -8.970002   -1.711206    0.262571
     82          6           0       -8.533106    2.687868   -1.712998
     83          6           0       -3.916662    2.654252   -0.681356
     84          6           0       -4.085973   -1.872787    0.652091
     85          7           0       -8.450382    0.415806   -0.588807
     86          6           0       -9.366532   -0.516074   -0.372920
     87          6           0      -10.805319   -0.113278   -0.793897
     88          6           0      -10.432498    1.000008   -1.889563
     89          6           0       -9.068277    1.425900   -1.350860
     90          6           0      -10.238309    0.429941   -3.284790
     91          6           0      -11.625533    0.501843    0.393911
     92          6           0      -13.128721    0.631521    0.138274
     93          1           0      -14.045278    0.424033    1.256019
     94          7           0       -6.334853    2.602600   -0.604000
     95          6           0       -7.320544    3.251475   -1.258716
     96          6           0       -6.827162    4.620571   -1.473910
     97          6           0       -5.405204    4.680520   -1.039015
     98          6           0       -5.152050    3.278942   -0.771475
     99          6           0       -7.704996    5.733610   -1.967856
    100          6           0       -4.430270    5.810378   -0.900633
    101          8           0       -3.176785    5.601470   -0.733451
    102          6           0       -4.972681    7.167542   -1.059951
    103          7           0       -4.286302    0.396235   -0.226353
    104          6           0       -3.452103    1.423917   -0.462761
    105          6           0       -2.010621    1.005772   -0.296467
    106          6           0       -2.059329   -0.460754    0.339536
    107          6           0       -3.587839   -0.682038    0.348545
    108          6           0       -1.174231    0.977975   -1.575560
    109          6           0       -1.272725   -0.681419    1.660616
    110          6           0       -1.916890    0.101766    2.781801
    111          7           0       -6.475743   -1.368447    0.567158
    112          6           0       -5.410760   -2.273210    0.770348
    113          6           0       -6.009345   -3.595176    1.047006
    114          6           0       -7.391741   -3.370910    0.962171
    115          6           0       -7.636912   -2.010026    0.634474
    116          6           0       -5.290560   -4.801026    1.282322
    117          6           0       -8.699092   -3.978353    1.064857
    118          8           0       -9.118977   -5.084242    1.403131
    119          6           0       -9.776148   -2.959456    0.491986
    120          6           0      -10.915013   -2.887764    1.471971
    121          8           0      -10.741070   -2.416885    2.609791
    122          8           0      -12.063164   -3.182945    0.835594
    123          6           0      -13.223254   -3.114341    1.763660
    124          1           0       -9.070802    3.287969   -2.447602
    125          1           0       -3.048492    3.308192   -0.791431
    126          1           0       -3.455044   -2.706030    0.968807
    127          1           0      -11.383528   -0.906776   -1.251943
    128          1           0      -11.130792    1.832403   -1.860316
    129          1           0      -10.267150   -0.649552   -3.286560
    130          1           0       -9.270072    0.783085   -3.614718
    131          1           0      -10.968280    0.863733   -3.974203
    132          1           0      -11.360992    1.561723    0.500704
    133          1           0      -11.459105   -0.050585    1.298205
    134          1           0      -13.449926    0.050841   -0.734985
    135          1           0      -13.346387    1.667210   -0.133730
    136          1           0       -8.655699    5.352140   -2.360352
    137          1           0       -7.206863    6.170661   -2.840059
    138          1           0       -7.856578    6.514305   -1.219387
    139          1           0       -5.431852    7.260031   -2.041308
    140          1           0       -4.143090    7.841699   -0.838209
    141          1           0       -5.771059    7.313868   -0.323879
    142          1           0       -1.492192    1.667826    0.386188
    143          1           0       -1.636720   -1.214328   -0.341165
    144          1           0       -0.271808    1.615721   -1.520916
    145          1           0       -1.803957    1.280155   -2.401793
    146          1           0       -0.841274   -0.010245   -1.888233
    147          1           0       -0.253030   -0.301030    1.562268
    148          1           0       -1.200828   -1.724114    1.951483
    149          1           0       -1.496541    1.104035    2.655930
    150          1           0       -1.647903   -0.320585    3.747885
    151          1           0       -3.000702    0.178206    2.636373
    152          1           0       -5.776200   -5.295955    2.112816
    153          1           0       -4.241761   -4.603822    1.494230
    154          1           0       -5.427916   -5.300968    0.319790
    155          1           0      -10.096321   -3.333945   -0.481058
    156          1           0      -13.730836   -4.082565    1.712732
    157          1           0      -13.802654   -2.224869    1.452376
    158          1           0      -13.012979   -3.041309    2.824271
 ---------------------------------------------------------------------

 SCF Done:  E(RCAM-B3LYP) =  -4069.81199949     A.U. after   19 cycles

 Excitation energies and oscillator strengths:

 Excited State   1:      Singlet-A      1.6643 eV  744.98 nm  f=0.0102  <S**2>=0.000
     309 -> 315       -0.10779
     310 -> 316        0.13299
     311 -> 313       -0.43083
     312 -> 314        0.53469
 This state for optimization and/or second-order correction.
 Total Energy, E(TD-HF/TD-DFT) =  -4069.75083877
 Copying the excited state density for this state as the 1-particle RhoCI density.

 Excited State   2:      Singlet-A      1.6898 eV  733.73 nm  f=0.7303  <S**2>=0.000
     309 -> 315        0.13889
     310 -> 316        0.11118
     311 -> 313        0.53348
     312 -> 314        0.42990

 Excited State   3:      Singlet-A      2.1851 eV  567.40 nm  f=0.1069  <S**2>=0.000
     310 -> 314        0.64231
     312 -> 316       -0.27244

 Excited State   4:      Singlet-A      2.1942 eV  565.06 nm  f=0.0956  <S**2>=0.000
     309 -> 313        0.64022
     311 -> 315       -0.27886

 Excited State   5:      Singlet-A      2.6466 eV  468.46 nm  f=0.0000  <S**2>=0.000
     312 -> 313        0.70680

 The electronic state is 1-A.
 Alpha  occ. eigenvalues --  -46.87834 -46.87531 -19.26341 -19.26260 -19.19088
 Alpha  occ. eigenvalues --  -19.19065 -19.18788 -19.18620 -19.18202 -19.17934
 Alpha  occ. eigenvalues --  -14.42483 -14.42374 -14.41481 -14.41217 -14.39431
 Alpha  occ. eigenvalues --  -14.39227 -14.38626 -14.38469 -10.39143 -10.38993
 Alpha  occ. eigenvalues --  -10.35418 -10.35300 -10.34425 -10.34112 -10.31731
 Alpha  occ. eigenvalues --  -10.31677 -10.31443 -10.31184 -10.30935 -10.30913
 Alpha  occ. eigenvalues --  -10.30605 -10.30536 -10.30264 -10.30229 -10.30226
 Alpha  occ. eigenvalues --  -10.29990 -10.29954 -10.29742 -10.29653 -10.29309
 Alpha  occ. eigenvalues --  -10.29274 -10.29274 -10.28783 -10.28623 -10.28581
 Alpha  occ. eigenvalues --  -10.28578 -10.28393 -10.28287 -10.28147 -10.28042
 Alpha  occ. eigenvalues --  -10.27874 -10.27817 -10.27755 -10.27599 -10.27547
 Alpha  occ. eigenvalues --  -10.27524 -10.27468 -10.27466 -10.27435 -10.27379
 Alpha  occ. eigenvalues --  -10.27360 -10.27346 -10.27293 -10.27198 -10.27187
 Alpha  occ. eigenvalues --  -10.26940 -10.26752 -10.26607 -10.26349 -10.26336
 Alpha  occ. eigenvalues --  -10.26258 -10.26218 -10.26049 -10.25936 -10.25884
 Alpha  occ. eigenvalues --  -10.25874 -10.25775 -10.25669 -10.25442 -10.25204
 Alpha  occ. eigenvalues --  -10.24861 -10.24813 -10.24750 -10.24747 -10.24557
 Alpha  occ. eigenvalues --  -10.24528  -3.16578  -3.16281  -1.91460  -1.91163
 Alpha  occ. eigenvalues --   -1.91046  -1.90888  -1.90752  -1.90589  -1.16691
 Alpha  occ. eigenvalues --   -1.16552  -1.08664  -1.08543  -1.07186  -1.06875
 Alpha  occ. eigenvalues --   -1.06849  -1.06707  -1.04613  -1.04374  -1.03790
 Alpha  occ. eigenvalues --   -1.03533  -1.03264  -1.02901  -1.02442  -1.01978
 Alpha  occ. eigenvalues --   -0.92006  -0.91864  -0.89550  -0.89329  -0.89221
 Alpha  occ. eigenvalues --   -0.89046  -0.88314  -0.88044  -0.87899  -0.87702
 Alpha  occ. eigenvalues --   -0.87651  -0.87556  -0.87271  -0.87015  -0.85010
 Alpha  occ. eigenvalues --   -0.84891  -0.83967  -0.83702  -0.82953  -0.82820
 Alpha  occ. eigenvalues --   -0.82666  -0.82543  -0.81624  -0.81481  -0.80622
 Alpha  occ. eigenvalues --   -0.80326  -0.78808  -0.78516  -0.77245  -0.77021
 Alpha  occ. eigenvalues --   -0.76969  -0.76770  -0.75955  -0.75727  -0.74923
 Alpha  occ. eigenvalues --   -0.74646  -0.72802  -0.72561  -0.71699  -0.71449
 Alpha  occ. eigenvalues --   -0.69941  -0.69563  -0.68897  -0.68716  -0.67663
 Alpha  occ. eigenvalues --   -0.67477  -0.67239  -0.67103  -0.65321  -0.65162
 Alpha  occ. eigenvalues --   -0.64887  -0.64652  -0.64637  -0.64531  -0.64299
 Alpha  occ. eigenvalues --   -0.64035  -0.62340  -0.62159  -0.60449  -0.60217
 Alpha  occ. eigenvalues --   -0.59835  -0.59686  -0.59017  -0.58858  -0.58532
 Alpha  occ. eigenvalues --   -0.58294  -0.57625  -0.57439  -0.57332  -0.57096
 Alpha  occ. eigenvalues --   -0.56331  -0.56077  -0.56020  -0.55781  -0.55526
 Alpha  occ. eigenvalues --   -0.55373  -0.55346  -0.55094  -0.54563  -0.54339
 Alpha  occ. eigenvalues --   -0.53927  -0.53810  -0.53316  -0.53234  -0.53101
 Alpha  occ. eigenvalues --   -0.53029  -0.52950  -0.52786  -0.52751  -0.52577
 Alpha  occ. eigenvalues --   -0.52474  -0.52201  -0.51947  -0.51729  -0.51636
 Alpha  occ. eigenvalues --   -0.51560  -0.51229  -0.51068  -0.50548  -0.50377
 Alpha  occ. eigenvalues --   -0.50053  -0.49920  -0.49870  -0.49708  -0.49527
 Alpha  occ. eigenvalues --   -0.49384  -0.49236  -0.49123  -0.49093  -0.48988
 Alpha  occ. eigenvalues --   -0.48626  -0.48484  -0.48445  -0.48441  -0.48239
 Alpha  occ. eigenvalues --   -0.48216  -0.47714  -0.47474  -0.47312  -0.46994
 Alpha  occ. eigenvalues --   -0.46828  -0.46584  -0.46568  -0.46445  -0.46387
 Alpha  occ. eigenvalues --   -0.46195  -0.46132  -0.45938  -0.45858  -0.45691
 Alpha  occ. eigenvalues --   -0.45225  -0.45055  -0.44610  -0.44515  -0.44405
 Alpha  occ. eigenvalues --   -0.44347  -0.44169  -0.44114  -0.44032  -0.44016
 Alpha  occ. eigenvalues --   -0.43935  -0.43835  -0.43531  -0.43432  -0.43413
 Alpha  occ. eigenvalues --   -0.43263  -0.43055  -0.42821  -0.42769  -0.42742
 Alpha  occ. eigenvalues --   -0.42693  -0.42394  -0.42046  -0.41813  -0.41733
 Alpha  occ. eigenvalues --   -0.41563  -0.41543  -0.41336  -0.41167  -0.40900
 Alpha  occ. eigenvalues --   -0.40865  -0.40808  -0.40626  -0.40600  -0.40577
 Alpha  occ. eigenvalues --   -0.40321  -0.40264  -0.40138  -0.39478  -0.39230
 Alpha  occ. eigenvalues --   -0.38497  -0.38187  -0.37784  -0.37551  -0.37349
 Alpha  occ. eigenvalues --   -0.37297  -0.37112  -0.37081  -0.36763  -0.36658
 Alpha  occ. eigenvalues --   -0.36232  -0.36072  -0.34319  -0.34122  -0.33832
 Alpha  occ. eigenvalues --   -0.33760  -0.33219  -0.33044  -0.31322  -0.31177
 Alpha  occ. eigenvalues --   -0.31062  -0.30846  -0.30064  -0.29838  -0.29466
 Alpha  occ. eigenvalues --   -0.29351  -0.29210  -0.29083  -0.24113  -0.23905
 Alpha  occ. eigenvalues --   -0.21156  -0.20986
 Alpha virt. eigenvalues --   -0.08797  -0.08667  -0.01775  -0.01552  -0.00063
 Alpha virt. eigenvalues --    0.00077   0.02171   0.02336   0.02997   0.03348
 Alpha virt. eigenvalues --    0.04684   0.04848   0.05040   0.05265   0.06139

 Mulliken charges:
               1
     1  Mg   0.837316
     2  C   -0.003320
     3  C   -0.093977
     4  C   -0.045767
     5  C   -0.064080
     6  N   -0.256833
     7  C   -0.052760
     8  C   -0.013891
     9  C   -0.087013
    10  C    0.046279
    11  C    0.104759
    12  C    0.053405
    13  C   -0.071834
    14  H    0.035939
    15  N   -0.433352
    16  C    0.168464
    17  C   -0.176806
    18  C   -0.003589
    19  C    0.148666
    20  C    0.110087
    21  C    0.012917
    22  O   -0.249211
    23  C    0.062162
    24  N   -0.341041
    25  C    0.041148
    26  C   -0.028291
    27  C   -0.023923
    28  C    0.074431
    29  C    0.076087
    30  C    0.035177
    31  C   -0.004593
    32  N   -0.310313
    33  C    0.079753
    34  C   -0.170187
    35  C    0.008296
    36  C    0.082295
    37  C    0.127413
    38  C    0.045684
    39  O   -0.188531
    40  C   -0.005167
    41  C    0.213115
    42  O   -0.258113
    43  O   -0.304577
    44  C    0.157697
    45  H   -0.017353
    46  H   -0.016421
    47  H   -0.041508
    48  H    0.001009
    49  H   -0.003876
    50  H    0.025537
    51  H    0.016553
    52  H    0.016821
    53  H    0.011199
    54  H    0.043464
    55  H    0.018059
    56  H    0.018196
    57  H    0.005814
    58  H    0.027013
    59  H    0.040491
    60  H    0.037006
    61  H    0.036400
    62  H    0.032678
    63  H    0.016851
    64  H    0.009636
    65  H    0.023538
    66  H    0.012619
    67  H    0.004854
    68  H    0.006856
    69  H    0.004759
    70  H    0.009494
    71  H    0.017645
    72  H    0.027816
    73  H    0.047237
    74  H    0.009065
    75  H    0.046199
    76  H    0.035349
    77  H    0.043218
    78  H    0.046523
    79  H    0.053316
    80  Mg   0.837593
    81  C   -0.017083
    82  C   -0.088108
    83  C   -0.045584
    84  C   -0.064493
    85  N   -0.254580
    86  C   -0.049858
    87  C   -0.015048
    88  C   -0.090501
    89  C    0.045708
    90  C    0.114478
    91  C    0.062574
    92  C   -0.077743
    93  H    0.034650
    94  N   -0.423362
    95  C    0.162788
    96  C   -0.175032
    97  C   -0.008127
    98  C    0.152066
    99  C    0.099530
   100  C    0.015324
   101  O   -0.253541
   102  C    0.061268
   103  N   -0.350084
   104  C    0.037555
   105  C   -0.020075
   106  C   -0.035636
   107  C    0.088656
   108  C    0.073336
   109  C    0.034933
   110  C   -0.007733
   111  N   -0.324177
   112  C    0.078459
   113  C   -0.162749
   114  C    0.002167
   115  C    0.096325
   116  C    0.131418
   117  C    0.042462
   118  O   -0.187891
   119  C    0.000911
   120  C    0.211220
   121  O   -0.251085
   122  O   -0.305649
   123  C    0.152093
   124  H   -0.020163
   125  H   -0.015897
   126  H   -0.038687
   127  H   -0.000804
   128  H   -0.004612
   129  H    0.022412
   130  H    0.014372
   131  H    0.015892
   132  H    0.013878
   133  H    0.037670
   134  H    0.020681
   135  H    0.019431
   136  H    0.008525
   137  H    0.025547
   138  H    0.039454
   139  H    0.037851
   140  H    0.035914
   141  H    0.033948
   142  H    0.014221
   143  H    0.015416
   144  H    0.024059
   145  H    0.010544
   146  H    0.008385
   147  H    0.007035
   148  H    0.005463
   149  H    0.010674
   150  H    0.017469
   151  H    0.029360
   152  H    0.045848
   153  H    0.009867
   154  H    0.047368
   155  H    0.034875
   156  H    0.043792
   157  H    0.049350
   158  H    0.053509
 Sum of Mulliken charges =  -0.00000

 Dipole moment (field-independent basis, Debye):
    X=              1.0919    Y=              6.1252    Z=             -5.5303  Tot=              8.3243
 Quadrupole moment (field-independent basis, Debye-Ang):
   XX=           -443.1795   YY=           -549.5329   ZZ=           -475.9225
   XY=            -28.7659   XZ=             12.7966   YZ=            -11.6748

 Normal termination of Gaussian 16 at Sat Sep 11 18:02:12 2021.
