 Gaussian 16, Revision A.03,
 Gaussian 16:  ES64L-G16RevA.03 25-Dec-2016

 -----------------------------------
 #p cam-b3lyp/Def2SVP td=(nstates=5)
 -----------------------------------

 --------------------------------
 TDDFT excited states in gaussian
 --------------------------------
 Symbolic Z-matrix:
 Charge =  0 Multiplicity = 1

                         Standard orientation:
 ---------------------------------------------------------------------
 Center     Atomic      Atomic             Coordinates (Angstroms)
 Number     Number       Type             X           Y           Z
 ---------------------------------------------------------------------
      1         12           0        7.800758    0.912842    0.231618
      2          6           0        8.425441   -2.573236   -0.287272
      3          6           0        8.656286    1.400171   -3.035437
      4          6           0        7.696488    4.034020    0.782978
      5          6           0        8.102331    0.307041    3.650348
      6          7           0        8.439879   -0.488255   -1.358696
      7          6           0        8.581541   -1.807237   -1.444649
      8          6           0        8.837519   -2.307728   -2.897701
      9          6           0        9.442556   -0.970992   -3.521450
     10          6           0        8.780173    0.044935   -2.607631
     11          6           0       10.955761   -0.857260   -3.367251
     12          6           0        7.515539   -2.730808   -3.622340
     13          6           0        7.705834   -3.531175   -4.914065
     14          1           0        6.750868   -4.581332   -5.234312
     15          7           0        7.652096    2.431296   -1.023391
     16          6           0        8.034833    2.448425   -2.322816
     17          6           0        7.717494    3.803211   -2.823349
     18          6           0        7.294703    4.630802   -1.659547
     19          6           0        7.559364    3.727637   -0.568847
     20          6           0        7.781827    4.181428   -4.271300
     21          6           0        6.750003    6.019622   -1.547249
     22          8           0        6.666889    6.629072   -0.426429
     23          6           0        6.393939    6.689803   -2.811021
     24          7           0        8.103180    2.062636    1.947470
     25          6           0        7.939706    3.389969    1.926346
     26          6           0        7.930004    3.961054    3.313324
     27          6           0        7.877829    2.711152    4.305683
     28          6           0        7.953267    1.574012    3.257116
     29          6           0        9.124776    4.852883    3.678252
     30          6           0        6.726437    2.683649    5.342003
     31          6           0        5.402562    2.503135    4.633576
     32          7           0        8.016704   -0.835433    1.499666
     33          6           0        8.146711   -0.853433    2.895892
     34          6           0        8.374671   -2.255717    3.290481
     35          6           0        8.377984   -2.958357    2.087097
     36          6           0        8.191756   -2.048862    1.007083
     37          6           0        8.603846   -2.722004    4.615052
     38          6           0        8.520129   -4.262640    1.460602
     39          8           0        8.604236   -5.419447    1.875592
     40          6           0        8.678304   -4.049729   -0.109581
     41          6           0        7.745095   -5.010408   -0.794801
     42          8           0        6.507861   -4.883565   -0.692196
     43          8           0        8.442801   -5.775753   -1.648026
     44          6           0        7.571564   -6.731479   -2.382661
     45          1           0        9.127692    1.703074   -3.972436
     46          1           0        7.556142    5.088970    1.027559
     47          1           0        8.121143    0.030483    4.706102
     48          1           0        9.562768   -3.117632   -2.978296
     49          1           0        9.120573   -0.820616   -4.551710
     50          1           0       11.353206   -1.654190   -2.738871
     51          1           0       11.128956    0.114570   -2.904602
     52          1           0       11.442445   -0.816060   -4.342042
     53          1           0        7.026171   -1.843621   -4.024185
     54          1           0        6.865845   -3.287221   -2.945858
     55          1           0        8.726930   -3.902369   -5.006186
     56          1           0        7.587654   -2.851154   -5.757751
     57          1           0        8.282546    3.416282   -4.863227
     58          1           0        8.434005    5.051499   -4.344441
     59          1           0        6.799114    4.423530   -4.676262
     60          1           0        7.276085    6.746882   -3.449072
     61          1           0        5.938750    7.638907   -2.530213
     62          1           0        5.668826    6.074745   -3.344747
     63          1           0        7.049731    4.582022    3.474398
     64          1           0        8.781608    2.630831    4.910170
     65          1           0        8.840771    5.854487    4.002035
     66          1           0        9.789975    4.894474    2.816235
     67          1           0        9.785025    4.442576    4.441885
     68          1           0        6.676587    3.630493    5.878610
     69          1           0        6.831178    1.888911    6.080700
     70          1           0        5.146647    3.518633    4.333402
     71          1           0        4.656597    2.098801    5.318601
     72          1           0        5.515076    1.913017    3.723858
     73          1           0        8.007203   -3.627206    4.727280
     74          1           0        8.325616   -1.970134    5.353214
     75          1           0        9.678860   -2.898699    4.583760
     76          1           0        9.721827   -4.251075   -0.349667
     77          1           0        7.971102   -7.730330   -2.206879
     78          1           0        7.525178   -6.379225   -3.413278
     79          1           0        6.555459   -6.846646   -2.003706
     80         12           0       -7.969897   -0.963082    0.082680
     81          6           0       -8.165323    2.495078   -0.856440
     82          6           0       -7.243350    0.090989    3.244281
     83          6           0       -7.348501   -3.981148    0.839372
     84          6           0       -7.577745   -1.715297   -3.297560
     85          7           0       -7.760377    1.057727    0.957141
     86          6           0       -7.917814    2.297369    0.518000
     87          6           0       -7.883293    3.382128    1.627810
     88          6           0       -7.032825    2.575857    2.725754
     89          6           0       -7.390103    1.149557    2.312605
     90          6           0       -5.531371    2.755014    2.574529
     91          6           0       -9.315742    3.739159    2.159422
     92          6           0       -9.386172    5.003515    3.018618
     93          1           0      -10.574950    5.845992    2.921083
     94          7           0       -7.865731   -1.847066    1.856461
     95          6           0       -7.581419   -1.264903    3.040331
     96          6           0       -7.607989   -2.346452    4.037184
     97          6           0       -7.768675   -3.640887    3.320726
     98          6           0       -7.643590   -3.198765    1.946332
     99          6           0       -7.566620   -2.091324    5.515908
    100          6           0       -7.984737   -5.046195    3.794682
    101          8           0       -7.858280   -6.049404    3.007017
    102          6           0       -8.256944   -5.219764    5.228999
    103          7           0       -7.316370   -2.590710   -1.033588
    104          6           0       -7.177534   -3.803958   -0.470852
    105          6           0       -6.965186   -4.870276   -1.518841
    106          6           0       -7.232748   -4.152341   -2.922611
    107          6           0       -7.476937   -2.710150   -2.426777
    108          6           0       -5.581960   -5.520499   -1.535532
    109          6           0       -8.291179   -4.802514   -3.855165
    110          6           0       -9.666820   -4.677055   -3.240944
    111          7           0       -8.066797    0.133760   -1.776237
    112          6           0       -7.845171   -0.370290   -3.076589
    113          6           0       -7.908170    0.777175   -4.004905
    114          6           0       -8.141039    1.881274   -3.171092
    115          6           0       -8.197646    1.455012   -1.816623
    116          6           0       -7.711034    0.719494   -5.413429
    117          6           0       -8.341253    3.311918   -3.127756
    118          8           0       -8.480544    4.195565   -3.972447
    119          6           0       -8.239900    3.790779   -1.615536
    120          6           0       -9.405486    4.699840   -1.337069
    121          8           0      -10.568728    4.260454   -1.357627
    122          8           0       -8.945404    5.879296   -0.881459
    123          6           0      -10.064769    6.811120   -0.580595
    124          1           0       -6.786908    0.309441    4.210104
    125          1           0       -7.235041   -5.050092    1.034229
    126          1           0       -7.563083   -1.880566   -4.376984
    127          1           0       -7.367581    4.294991    1.354867
    128          1           0       -7.389691    2.782231    3.731450
    129          1           0       -5.279148    3.302050    1.678279
    130          1           0       -5.118193    1.755569    2.536646
    131          1           0       -5.114782    3.219488    3.472894
    132          1           0       -9.618989    2.990120    2.902200
    133          1           0      -10.015199    3.813194    1.349544
    134          1           0       -8.476776    5.610754    2.933700
    135          1           0       -9.413555    4.707456    4.070095
    136          1           0       -7.281290   -1.055542    5.737571
    137          1           0       -6.745158   -2.692018    5.921164
    138          1           0       -8.493624   -2.375523    6.018463
    139          1           0       -7.430162   -4.811629    5.805470
    140          1           0       -8.471775   -6.282204    5.359197
    141          1           0       -9.143603   -4.631492    5.490526
    142          1           0       -7.675062   -5.679167   -1.396878
    143          1           0       -6.325672   -4.121662   -3.543993
    144          1           0       -5.615182   -6.620208   -1.418804
    145          1           0       -4.984877   -5.072826   -0.752187
    146          1           0       -4.986896   -5.317406   -2.424265
    147          1           0       -8.095480   -5.872272   -3.962247
    148          1           0       -8.307592   -4.376681   -4.852861
    149          1           0       -9.705302   -5.522186   -2.547132
    150          1           0      -10.436665   -4.758759   -4.005596
    151          1           0       -9.750617   -3.759248   -2.647424
    152          1           0       -8.476673    1.339424   -5.860609
    153          1           0       -7.762074   -0.303471   -5.780454
    154          1           0       -6.701063    1.131738   -5.486049
    155          1           0       -7.284113    4.302706   -1.497369
    156          1           0       -9.882312    7.725312   -1.153874
    157          1           0      -10.088240    6.903906    0.521493
    158          1           0      -11.053250    6.536328   -0.929671
 ---------------------------------------------------------------------

 SCF Done:  E(RCAM-B3LYP) =  -4069.81180821     A.U. after   19 cycles

 Excitation energies and oscillator strengths:

 Excited State   1:      Singlet-A      1.6705 eV  742.20 nm  f=0.0473  <S**2>=0.000
     309 -> 315        0.10077
     310 -> 316        0.14024
     311 -> 313        0.39953
     312 -> 314        0.55806
 This state for optimization and/or second-order correction.
 Total Energy, E(TD-HF/TD-DFT) =  -4069.75041877
 Copying the excited state density for this state as the 1-particle RhoCI density.

 Excited State   2:      Singlet-A      1.6849 eV  735.86 nm  f=0.7086  <S**2>=0.000
     309 -> 315        0.14375
     310 -> 316       -0.10245
     311 -> 313        0.55727
     312 -> 314       -0.39903

 Excited State   3:      Singlet-A      2.1857 eV  567.24 nm  f=0.0616  <S**2>=0.000
     309 -> 313        0.13704
     310 -> 314        0.62800
     312 -> 316       -0.26644

 Excited State   4:      Singlet-A      2.1932 eV  565.32 nm  f=0.1322  <S**2>=0.000
     309 -> 313        0.62594
     310 -> 314       -0.13603
     311 -> 315       -0.27220

 Excited State   5:      Singlet-A      2.7662 eV  448.21 nm  f=0.0000  <S**2>=0.000
     312 -> 313        0.70710

 The electronic state is 1-A.
 Alpha  occ. eigenvalues --  -46.87835 -46.87590 -19.26310 -19.26308 -19.19116
 Alpha  occ. eigenvalues --  -19.19049 -19.18844 -19.18635 -19.18202 -19.17998
 Alpha  occ. eigenvalues --  -14.42486 -14.42428 -14.41491 -14.41288 -14.39440
 Alpha  occ. eigenvalues --  -14.39281 -14.38625 -14.38533 -10.39108 -10.39045
 Alpha  occ. eigenvalues --  -10.35476 -10.35311 -10.34422 -10.34176 -10.31721
 Alpha  occ. eigenvalues --  -10.31702 -10.31440 -10.31245 -10.30952 -10.30941
 Alpha  occ. eigenvalues --  -10.30607 -10.30547 -10.30330 -10.30298 -10.30249
 Alpha  occ. eigenvalues --  -10.30065 -10.29966 -10.29824 -10.29667 -10.29364
 Alpha  occ. eigenvalues --  -10.29335 -10.29290 -10.28776 -10.28655 -10.28605
 Alpha  occ. eigenvalues --  -10.28559 -10.28399 -10.28336 -10.28143 -10.28072
 Alpha  occ. eigenvalues --  -10.27935 -10.27828 -10.27762 -10.27618 -10.27599
 Alpha  occ. eigenvalues --  -10.27561 -10.27506 -10.27499 -10.27443 -10.27439
 Alpha  occ. eigenvalues --  -10.27416 -10.27398 -10.27390 -10.27291 -10.27189
 Alpha  occ. eigenvalues --  -10.26996 -10.26730 -10.26637 -10.26423 -10.26331
 Alpha  occ. eigenvalues --  -10.26265 -10.26258 -10.26076 -10.26063 -10.25947
 Alpha  occ. eigenvalues --  -10.25887 -10.25867 -10.25811 -10.25487 -10.25285
 Alpha  occ. eigenvalues --  -10.24868 -10.24828 -10.24809 -10.24783 -10.24674
 Alpha  occ. eigenvalues --  -10.24616  -3.16578  -3.16340  -1.91460  -1.91222
 Alpha  occ. eigenvalues --   -1.91046  -1.90888  -1.90811  -1.90648  -1.16659
 Alpha  occ. eigenvalues --   -1.16601  -1.08660  -1.08608  -1.07245  -1.06901
 Alpha  occ. eigenvalues --   -1.06886  -1.06671  -1.04616  -1.04426  -1.03800
 Alpha  occ. eigenvalues --   -1.03593  -1.03272  -1.02968  -1.02450  -1.02042
 Alpha  occ. eigenvalues --   -0.92007  -0.91923  -0.89572  -0.89426  -0.89217
 Alpha  occ. eigenvalues --   -0.89085  -0.88339  -0.88146  -0.87909  -0.87737
 Alpha  occ. eigenvalues --   -0.87709  -0.87616  -0.87302  -0.87047  -0.85013
 Alpha  occ. eigenvalues --   -0.84934  -0.83993  -0.83804  -0.82999  -0.82855
 Alpha  occ. eigenvalues --   -0.82679  -0.82585  -0.81619  -0.81542  -0.80630
 Alpha  occ. eigenvalues --   -0.80381  -0.78829  -0.78568  -0.77259  -0.77079
 Alpha  occ. eigenvalues --   -0.76970  -0.76835  -0.75955  -0.75776  -0.74945
 Alpha  occ. eigenvalues --   -0.74725  -0.72813  -0.72634  -0.71709  -0.71508
 Alpha  occ. eigenvalues --   -0.69971  -0.69688  -0.68904  -0.68762  -0.67676
 Alpha  occ. eigenvalues --   -0.67535  -0.67247  -0.67135  -0.65319  -0.65209
 Alpha  occ. eigenvalues --   -0.64891  -0.64706  -0.64659  -0.64591  -0.64319
 Alpha  occ. eigenvalues --   -0.64134  -0.62332  -0.62224  -0.60477  -0.60266
 Alpha  occ. eigenvalues --   -0.59835  -0.59731  -0.59026  -0.58925  -0.58541
 Alpha  occ. eigenvalues --   -0.58360  -0.57618  -0.57501  -0.57349  -0.57168
 Alpha  occ. eigenvalues --   -0.56344  -0.56142  -0.56008  -0.55832  -0.55552
 Alpha  occ. eigenvalues --   -0.55388  -0.55387  -0.55182  -0.54567  -0.54425
 Alpha  occ. eigenvalues --   -0.53924  -0.53847  -0.53335  -0.53251  -0.53161
 Alpha  occ. eigenvalues --   -0.53077  -0.52951  -0.52841  -0.52782  -0.52594
 Alpha  occ. eigenvalues --   -0.52504  -0.52338  -0.51955  -0.51836  -0.51644
 Alpha  occ. eigenvalues --   -0.51594  -0.51236  -0.51142  -0.50596  -0.50398
 Alpha  occ. eigenvalues --   -0.50083  -0.49948  -0.49908  -0.49790  -0.49544
 Alpha  occ. eigenvalues --   -0.49418  -0.49247  -0.49139  -0.49126  -0.49042
 Alpha  occ. eigenvalues --   -0.48627  -0.48505  -0.48498  -0.48475  -0.48303
 Alpha  occ. eigenvalues --   -0.48266  -0.47729  -0.47527  -0.47331  -0.47045
 Alpha  occ. eigenvalues --   -0.46839  -0.46643  -0.46584  -0.46488  -0.46399
 Alpha  occ. eigenvalues --   -0.46203  -0.46203  -0.46020  -0.45858  -0.45767
 Alpha  occ. eigenvalues --   -0.45249  -0.45127  -0.44613  -0.44541  -0.44454
 Alpha  occ. eigenvalues --   -0.44411  -0.44189  -0.44119  -0.44062  -0.44050
 Alpha  occ. eigenvalues --   -0.44011  -0.43872  -0.43529  -0.43498  -0.43423
 Alpha  occ. eigenvalues --   -0.43319  -0.43065  -0.42877  -0.42839  -0.42742
 Alpha  occ. eigenvalues --   -0.42701  -0.42482  -0.42059  -0.41900  -0.41741
 Alpha  occ. eigenvalues --   -0.41606  -0.41566  -0.41394  -0.41177  -0.40918
 Alpha  occ. eigenvalues --   -0.40908  -0.40852  -0.40653  -0.40628  -0.40621
 Alpha  occ. eigenvalues --   -0.40422  -0.40260  -0.40164  -0.39510  -0.39358
 Alpha  occ. eigenvalues --   -0.38519  -0.38275  -0.37778  -0.37593  -0.37367
 Alpha  occ. eigenvalues --   -0.37294  -0.37196  -0.37134  -0.36749  -0.36720
 Alpha  occ. eigenvalues --   -0.36232  -0.36151  -0.34324  -0.34186  -0.33813
 Alpha  occ. eigenvalues --   -0.33801  -0.33224  -0.33108  -0.31374  -0.31194
 Alpha  occ. eigenvalues --   -0.31073  -0.30903  -0.30062  -0.29904  -0.29483
 Alpha  occ. eigenvalues --   -0.29358  -0.29258  -0.29148  -0.24118  -0.23967
 Alpha  occ. eigenvalues --   -0.21165  -0.21048
 Alpha virt. eigenvalues --   -0.08810  -0.08723  -0.01789  -0.01612  -0.00089
 Alpha virt. eigenvalues --    0.00043   0.02164   0.02268   0.03074   0.03290
 Alpha virt. eigenvalues --    0.04684   0.04798   0.05069   0.05212   0.06151

 Mulliken charges:
               1
     1  Mg   0.838630
     2  C   -0.002923
     3  C   -0.093942
     4  C   -0.045990
     5  C   -0.064088
     6  N   -0.256770
     7  C   -0.052489
     8  C   -0.014023
     9  C   -0.087013
    10  C    0.046307
    11  C    0.104782
    12  C    0.053442
    13  C   -0.071858
    14  H    0.036130
    15  N   -0.433191
    16  C    0.168406
    17  C   -0.176986
    18  C   -0.003957
    19  C    0.148748
    20  C    0.110115
    21  C    0.012284
    22  O   -0.249755
    23  C    0.062444
    24  N   -0.341103
    25  C    0.041247
    26  C   -0.028178
    27  C   -0.023904
    28  C    0.074717
    29  C    0.076170
    30  C    0.035206
    31  C   -0.004424
    32  N   -0.310451
    33  C    0.080311
    34  C   -0.169862
    35  C    0.008387
    36  C    0.082910
    37  C    0.127346
    38  C    0.046085
    39  O   -0.188397
    40  C   -0.005314
    41  C    0.212898
    42  O   -0.257148
    43  O   -0.304767
    44  C    0.157663
    45  H   -0.017412
    46  H   -0.016899
    47  H   -0.041701
    48  H    0.000998
    49  H   -0.003886
    50  H    0.025495
    51  H    0.016442
    52  H    0.016801
    53  H    0.011248
    54  H    0.044063
    55  H    0.017934
    56  H    0.018071
    57  H    0.005990
    58  H    0.026964
    59  H    0.039882
    60  H    0.037461
    61  H    0.035791
    62  H    0.031743
    63  H    0.016325
    64  H    0.009489
    65  H    0.023141
    66  H    0.012723
    67  H    0.004756
    68  H    0.006179
    69  H    0.004623
    70  H    0.008615
    71  H    0.017451
    72  H    0.029201
    73  H    0.047498
    74  H    0.008875
    75  H    0.046066
    76  H    0.035225
    77  H    0.043026
    78  H    0.046437
    79  H    0.053689
    80  Mg   0.837968
    81  C   -0.016893
    82  C   -0.087703
    83  C   -0.045247
    84  C   -0.064826
    85  N   -0.254589
    86  C   -0.049850
    87  C   -0.015105
    88  C   -0.090525
    89  C    0.045809
    90  C    0.114331
    91  C    0.062540
    92  C   -0.077819
    93  H    0.034654
    94  N   -0.423586
    95  C    0.163046
    96  C   -0.174363
    97  C   -0.007568
    98  C    0.152194
    99  C    0.099258
   100  C    0.015757
   101  O   -0.252915
   102  C    0.061166
   103  N   -0.350017
   104  C    0.037707
   105  C   -0.019990
   106  C   -0.034680
   107  C    0.088870
   108  C    0.073439
   109  C    0.034761
   110  C   -0.007646
   111  N   -0.324043
   112  C    0.078361
   113  C   -0.163331
   114  C    0.002105
   115  C    0.096144
   116  C    0.131530
   117  C    0.042181
   118  O   -0.188355
   119  C    0.000979
   120  C    0.211198
   121  O   -0.251100
   122  O   -0.305613
   123  C    0.152096
   124  H   -0.019511
   125  H   -0.015258
   126  H   -0.040727
   127  H   -0.000702
   128  H   -0.004416
   129  H    0.022476
   130  H    0.014824
   131  H    0.016319
   132  H    0.013885
   133  H    0.037571
   134  H    0.020815
   135  H    0.019574
   136  H    0.008735
   137  H    0.026576
   138  H    0.039711
   139  H    0.038513
   140  H    0.036487
   141  H    0.033684
   142  H    0.014314
   143  H    0.012400
   144  H    0.025297
   145  H    0.012485
   146  H    0.005848
   147  H    0.006256
   148  H    0.003359
   149  H    0.010984
   150  H    0.017680
   151  H    0.030093
   152  H    0.045738
   153  H    0.008356
   154  H    0.046612
   155  H    0.034945
   156  H    0.043737
   157  H    0.049530
   158  H    0.053474
 Sum of Mulliken charges =  -0.00000

 Dipole moment (field-independent basis, Debye):
    X=              3.8204    Y=              2.1263    Z=              0.4515  Tot=              4.3955
 Quadrupole moment (field-independent basis, Debye-Ang):
   XX=           -521.1620   YY=           -546.1165   ZZ=           -451.7034
   XY=             22.7451   XZ=            -68.7636   YZ=             42.4998

 Normal termination of Gaussian 16 at Sat Sep  4 13:24:36 2021.
