 Gaussian 16, Revision A.03,
 Gaussian 16:  ES64L-G16RevA.03 25-Dec-2016

 -----------------------------------
 #p cam-b3lyp/Def2SVP td=(nstates=5)
 -----------------------------------

 --------------------------------
 TDDFT excited states in gaussian
 --------------------------------
 Symbolic Z-matrix:
 Charge =  0 Multiplicity = 1

                         Standard orientation:
 ---------------------------------------------------------------------
 Center     Atomic      Atomic             Coordinates (Angstroms)
 Number     Number       Type             X           Y           Z
 ---------------------------------------------------------------------
      1         12           0       -4.150176    0.812331    0.167792
      2          6           0       -4.560736   -2.305508    1.877392
      3          6           0       -4.801893    2.357383    3.139516
      4          6           0       -4.241936    3.563381   -1.406987
      5          6           0       -4.655803   -0.923569   -2.811580
      6          7           0       -4.606534    0.018219    2.183175
      7          6           0       -4.675139   -1.196559    2.718694
      8          6           0       -4.804704   -1.180917    4.271221
      9          6           0       -5.432022    0.273049    4.456835
     10          6           0       -4.886385    0.934790    3.203718
     11          6           0       -6.956066    0.291108    4.397977
     12          6           0       -3.416224   -1.301180    4.984939
     13          6           0       -3.476327   -1.620662    6.481493
     14          1           0       -2.449736   -2.476645    7.056604
     15          7           0       -3.992200    2.669426    0.822843
     16          6           0       -4.284795    3.116738    2.067667
     17          6           0       -4.002521    4.568242    2.055995
     18          6           0       -3.703327    4.962319    0.651260
     19          6           0       -3.996620    3.736783   -0.046892
     20          6           0       -3.985870    5.413207    3.292728
     21          6           0       -3.238502    6.243606    0.034515
     22          8           0       -3.263762    6.438871   -1.228738
     23          6           0       -2.830439    7.310904    0.965859
     24          7           0       -4.627882    1.304748   -1.803745
     25          6           0       -4.530583    2.564203   -2.243392
     26          6           0       -4.645402    2.631389   -3.737461
     27          6           0       -4.598726    1.120757   -4.252790
     28          6           0       -4.544152    0.404902   -2.880623
     29          6           0       -5.906006    3.317515   -4.281630
     30          6           0       -3.521622    0.771482   -5.310275
     31          6           0       -2.144624    0.873900   -4.693441
     32          7           0       -4.364483   -1.266956   -0.416745
     33          6           0       -4.589388   -1.760313   -1.710070
     34          6           0       -4.772904   -3.218414   -1.590359
     35          6           0       -4.657737   -3.471403   -0.224863
     36          6           0       -4.443646   -2.245434    0.467565
     37          6           0       -5.069034   -4.111490   -2.657672
     38          6           0       -4.690290   -4.489140    0.812928
     39          8           0       -4.744285   -5.719805    0.819209
     40          6           0       -4.750361   -3.760481    2.227592
     41          6           0       -3.724799   -4.409122    3.116859
     42          8           0       -2.505574   -4.294655    2.876541
     43          8           0       -4.322462   -4.856591    4.231808
     44          6           0       -3.355488   -5.485323    5.170855
     45          1           0       -5.222257    2.948462    3.955519
     46          1           0       -4.172247    4.476038   -2.002501
     47          1           0       -4.733382   -1.541994   -3.707674
     48          1           0       -5.480838   -1.932858    4.678470
     49          1           0       -5.047765    0.771499    5.346563
     50          1           0       -7.355141   -0.681019    4.108788
     51          1           0       -7.209610    1.044081    3.651492
     52          1           0       -7.375829    0.648500    5.338640
     53          1           0       -2.945741   -0.318732    5.023712
     54          1           0       -2.787457   -2.038057    4.483950
     55          1           0       -4.468588   -1.963259    6.776373
     56          1           0       -3.334743   -0.692266    7.034878
     57          1           0       -4.405296    4.882122    4.146295
     58          1           0       -4.674558    6.240499    3.122417
     59          1           0       -2.991055    5.801962    3.510773
     60          1           0       -3.668240    7.559510    1.617652
     61          1           0       -2.444212    8.119357    0.346116
     62          1           0       -2.040112    6.930924    1.613893
     63          1           0       -3.810818    3.182112   -4.169433
     64          1           0       -5.536826    0.818431   -4.718881
     65          1           0       -5.695951    4.156631   -4.945306
     66          1           0       -6.511427    3.632725   -3.432278
     67          1           0       -6.595776    2.656793   -4.806110
     68          1           0       -3.556776    1.481288   -6.136039
     69          1           0       -3.636783   -0.228889   -5.727702
     70          1           0       -1.920231    1.936907   -4.774046
     71          1           0       -1.428207    0.279485   -5.261445
     72          1           0       -2.164190    0.624547   -3.632344
     73          1           0       -4.436598   -4.986416   -2.507677
     74          1           0       -4.880695   -3.647848   -3.625746
     75          1           0       -6.129032   -4.293088   -2.480808
     76          1           0       -5.763341   -3.893726    2.606062
     77          1           0       -3.715241   -6.493986    5.374352
     78          1           0       -3.255992   -4.803561    6.015666
     79          1           0       -2.363418   -5.697491    4.770704
     80         12           0        4.799946    0.060419   -0.120433
     81          6           0        2.546587   -1.656525   -2.323503
     82          6           0        3.519356    2.981502   -1.329531
     83          6           0        7.073998    1.599754    1.469073
     84          6           0        6.651465   -2.886790    0.057259
     85          7           0        3.237585    0.478756   -1.629157
     86          6           0        2.406649   -0.253376   -2.355706
     87          6           0        1.314893    0.560998   -3.100294
     88          6           0        2.074348    1.974265   -3.169411
     89          6           0        2.978761    1.825751   -1.947666
     90          6           0        2.954017    2.125244   -4.399341
     91          6           0       -0.017906    0.664692   -2.278765
     92          6           0       -1.223030    1.177377   -3.070334
     93          1           0       -2.541336    0.628996   -2.764022
     94          7           0        4.923430    1.965590    0.421447
     95          6           0        4.320169    3.019690   -0.166956
     96          6           0        4.745675    4.203783    0.595285
     97          6           0        5.779224    3.781692    1.579326
     98          6           0        5.985194    2.406364    1.171715
     99          6           0        4.123377    5.557306    0.410492
    100          6           0        6.477204    4.501042    2.693574
    101          8           0        7.512068    4.009540    3.268321
    102          6           0        5.969925    5.839558    3.029003
    103          7           0        6.713487   -0.483710    0.483419
    104          6           0        7.474776    0.355487    1.207372
    105          6           0        8.691371   -0.349383    1.758232
    106          6           0        8.462733   -1.902581    1.453484
    107          6           0        7.137399   -1.813440    0.665490
    108          6           0       10.035013    0.090551    1.177304
    109          6           0        8.540308   -2.875687    2.661671
    110          6           0        7.380024   -2.628568    3.598726
    111          7           0        4.558762   -1.972059   -0.812490
    112          6           0        5.466806   -3.041429   -0.651299
    113          6           0        4.916142   -4.195450   -1.391188
    114          6           0        3.727970   -3.706780   -1.955051
    115          6           0        3.560862   -2.338660   -1.608892
    116          6           0        5.529657   -5.473906   -1.514760
    117          6           0        2.582477   -4.034233   -2.773182
    118          8           0        2.141769   -5.066261   -3.277610
    119          6           0        1.830760   -2.686237   -3.152910
    120          6           0        0.361104   -2.888023   -2.904086
    121          8           0       -0.065720   -3.067508   -1.749875
    122          8           0       -0.317989   -2.620423   -4.034392
    123          6           0       -1.781269   -2.795815   -3.834753
    124          1           0        3.350359    3.949613   -1.801857
    125          1           0        7.834668    2.051822    2.109782
    126          1           0        7.119613   -3.869557    0.144917
    127          1           0        1.089743    0.210585   -4.100437
    128          1           0        1.382558    2.801491   -3.033408
    129          1           0        3.015575    1.207869   -4.965714
    130          1           0        3.930946    2.407759   -4.029398
    131          1           0        2.608366    2.964788   -5.009263
    132          1           0        0.078536    1.470895   -1.540191
    133          1           0       -0.258648   -0.275980   -1.822914
    134          1           0       -1.042375    1.162255   -4.152031
    135          1           0       -1.366647    2.235262   -2.837351
    136          1           0        3.507980    5.596628   -0.496779
    137          1           0        4.940040    6.260783    0.215456
    138          1           0        3.572135    5.891367    1.292085
    139          1           0        6.027595    6.478161    2.150758
    140          1           0        6.537230    6.155611    3.906591
    141          1           0        4.908641    5.756561    3.288628
    142          1           0        8.767698   -0.208967    2.829465
    143          1           0        9.216931   -2.296364    0.756375
    144          1           0       10.748557    0.442785    1.945987
    145          1           0        9.852765    0.865105    0.444236
    146          1           0       10.554169   -0.665342    0.590531
    147          1           0        9.449882   -2.691372    3.238613
    148          1           0        8.547850   -3.921719    2.373992
    149          1           0        7.728272   -1.787994    4.206375
    150          1           0        7.189331   -3.506810    4.212221
    151          1           0        6.493963   -2.292312    3.047842
    152          1           0        4.748397   -6.209040   -1.374393
    153          1           0        6.331618   -5.601702   -0.790668
    154          1           0        5.907402   -5.410808   -2.538775
    155          1           0        2.043404   -2.476895   -4.201969
    156          1           0       -2.124460   -3.505639   -4.593740
    157          1           0       -2.211368   -1.777110   -3.866683
    158          1           0       -2.107840   -3.285077   -2.924569
 ---------------------------------------------------------------------

 SCF Done:  E(RCAM-B3LYP) =  -4069.45096336     A.U. after   21 cycles

 Excitation energies and oscillator strengths:

 Excited State   1:      Singlet-A      1.1837 eV 1047.43 nm  f=0.0137  <S**2>=0.000
     312 -> 313        0.69288
 This state for optimization and/or second-order correction.
 Total Energy, E(TD-HF/TD-DFT) =  -4069.40746308
 Copying the excited state density for this state as the 1-particle RhoCI density.

 Excited State   2:      Singlet-A      1.6490 eV  751.87 nm  f=0.0381  <S**2>=0.000
     309 -> 316       -0.13626
     310 -> 313       -0.39040
     311 -> 314        0.55511
     312 -> 314        0.11090

 Excited State   3:      Singlet-A      1.7159 eV  722.56 nm  f=0.6195  <S**2>=0.000
     308 -> 315        0.14414
     309 -> 316       -0.10342
     310 -> 313        0.56093
     311 -> 314        0.37944

 Excited State   4:      Singlet-A      1.8698 eV  663.08 nm  f=0.0072  <S**2>=0.000
     311 -> 314       -0.13615
     312 -> 314        0.68623

 Excited State   5:      Singlet-A      2.1732 eV  570.53 nm  f=0.0528  <S**2>=0.000
     308 -> 313        0.57452
     309 -> 314       -0.27482
     310 -> 315       -0.23175
     311 -> 316       -0.10985
     312 -> 315        0.11820

 The electronic state is 1-A.
 Alpha  occ. eigenvalues --  -46.88061 -46.87403 -19.26136 -19.26082 -19.19346
 Alpha  occ. eigenvalues --  -19.18815 -19.18755 -19.18553 -19.18206 -19.17755
 Alpha  occ. eigenvalues --  -14.42795 -14.42209 -14.41723 -14.41114 -14.39805
 Alpha  occ. eigenvalues --  -14.39107 -14.38854 -14.38335 -10.38923 -10.38702
 Alpha  occ. eigenvalues --  -10.35972 -10.35238 -10.34427 -10.33931 -10.31826
 Alpha  occ. eigenvalues --  -10.31520 -10.31447 -10.31154 -10.31089 -10.31027
 Alpha  occ. eigenvalues --  -10.31015 -10.30795 -10.30623 -10.30331 -10.30192
 Alpha  occ. eigenvalues --  -10.30147 -10.30087 -10.29933 -10.29648 -10.29512
 Alpha  occ. eigenvalues --  -10.29215 -10.29153 -10.28915 -10.28564 -10.28561
 Alpha  occ. eigenvalues --  -10.28441 -10.28357 -10.28151 -10.28132 -10.28113
 Alpha  occ. eigenvalues --  -10.28038 -10.27916 -10.27860 -10.27755 -10.27702
 Alpha  occ. eigenvalues --  -10.27685 -10.27566 -10.27406 -10.27334 -10.27327
 Alpha  occ. eigenvalues --  -10.27301 -10.27234 -10.27223 -10.27209 -10.27190
 Alpha  occ. eigenvalues --  -10.26908 -10.26764 -10.26762 -10.26659 -10.26459
 Alpha  occ. eigenvalues --  -10.26337 -10.26161 -10.25972 -10.25778 -10.25698
 Alpha  occ. eigenvalues --  -10.25592 -10.25564 -10.25546 -10.25250 -10.25237
 Alpha  occ. eigenvalues --  -10.25020 -10.24616 -10.24565 -10.24448 -10.23679
 Alpha  occ. eigenvalues --  -10.20441  -3.16797  -3.16153  -1.91675  -1.91266
 Alpha  occ. eigenvalues --   -1.91111  -1.91035  -1.90623  -1.90461  -1.16482
 Alpha  occ. eigenvalues --   -1.16335  -1.08632  -1.08349  -1.07747  -1.06810
 Alpha  occ. eigenvalues --   -1.06555  -1.06451  -1.04922  -1.04223  -1.04186
 Alpha  occ. eigenvalues --   -1.03628  -1.03409  -1.02795  -1.02730  -1.01860
 Alpha  occ. eigenvalues --   -0.95132  -0.92196  -0.91719  -0.89503  -0.89370
 Alpha  occ. eigenvalues --   -0.89271  -0.88585  -0.88175  -0.88042  -0.88002
 Alpha  occ. eigenvalues --   -0.87791  -0.87661  -0.87511  -0.86980  -0.86913
 Alpha  occ. eigenvalues --   -0.85229  -0.84137  -0.83685  -0.83610  -0.83075
 Alpha  occ. eigenvalues --   -0.82773  -0.82251  -0.81862  -0.81334  -0.80891
 Alpha  occ. eigenvalues --   -0.80396  -0.79662  -0.79147  -0.78410  -0.77276
 Alpha  occ. eigenvalues --   -0.76837  -0.76562  -0.76071  -0.75836  -0.74968
 Alpha  occ. eigenvalues --   -0.74563  -0.73491  -0.72659  -0.72249  -0.71962
 Alpha  occ. eigenvalues --   -0.71267  -0.69559  -0.69227  -0.68286  -0.67966
 Alpha  occ. eigenvalues --   -0.67497  -0.67331  -0.66951  -0.65576  -0.65372
 Alpha  occ. eigenvalues --   -0.65094  -0.64822  -0.64570  -0.64500  -0.64004
 Alpha  occ. eigenvalues --   -0.63438  -0.62438  -0.62034  -0.61137  -0.60780
 Alpha  occ. eigenvalues --   -0.60135  -0.60035  -0.59344  -0.59145  -0.58714
 Alpha  occ. eigenvalues --   -0.58657  -0.58176  -0.57719  -0.57435  -0.57241
 Alpha  occ. eigenvalues --   -0.56999  -0.56708  -0.56098  -0.55996  -0.55964
 Alpha  occ. eigenvalues --   -0.55769  -0.55226  -0.55213  -0.55008  -0.54729
 Alpha  occ. eigenvalues --   -0.54245  -0.54123  -0.53749  -0.53626  -0.53513
 Alpha  occ. eigenvalues --   -0.53150  -0.53022  -0.52906  -0.52872  -0.52628
 Alpha  occ. eigenvalues --   -0.52388  -0.52247  -0.52069  -0.51874  -0.51856
 Alpha  occ. eigenvalues --   -0.51612  -0.51276  -0.51092  -0.50921  -0.50757
 Alpha  occ. eigenvalues --   -0.50315  -0.50287  -0.49876  -0.49784  -0.49689
 Alpha  occ. eigenvalues --   -0.49585  -0.49459  -0.49297  -0.49144  -0.48991
 Alpha  occ. eigenvalues --   -0.48862  -0.48804  -0.48688  -0.48271  -0.48177
 Alpha  occ. eigenvalues --   -0.48150  -0.48021  -0.47609  -0.47594  -0.47303
 Alpha  occ. eigenvalues --   -0.46952  -0.46838  -0.46803  -0.46717  -0.46499
 Alpha  occ. eigenvalues --   -0.46231  -0.46036  -0.45931  -0.45865  -0.45827
 Alpha  occ. eigenvalues --   -0.45481  -0.45183  -0.44998  -0.44849  -0.44599
 Alpha  occ. eigenvalues --   -0.44456  -0.44342  -0.44289  -0.44179  -0.44086
 Alpha  occ. eigenvalues --   -0.43889  -0.43735  -0.43728  -0.43612  -0.43516
 Alpha  occ. eigenvalues --   -0.43289  -0.43185  -0.42790  -0.42714  -0.42632
 Alpha  occ. eigenvalues --   -0.42503  -0.42403  -0.42287  -0.41985  -0.41807
 Alpha  occ. eigenvalues --   -0.41743  -0.41571  -0.41374  -0.41357  -0.41245
 Alpha  occ. eigenvalues --   -0.41141  -0.40894  -0.40774  -0.40547  -0.40381
 Alpha  occ. eigenvalues --   -0.40354  -0.40271  -0.39464  -0.39197  -0.38636
 Alpha  occ. eigenvalues --   -0.38230  -0.37981  -0.37930  -0.37464  -0.37096
 Alpha  occ. eigenvalues --   -0.37009  -0.36686  -0.36461  -0.36210  -0.36008
 Alpha  occ. eigenvalues --   -0.34561  -0.34029  -0.33908  -0.33743  -0.33453
 Alpha  occ. eigenvalues --   -0.33138  -0.32884  -0.31847  -0.31111  -0.30957
 Alpha  occ. eigenvalues --   -0.30688  -0.30066  -0.29897  -0.29655  -0.29500
 Alpha  occ. eigenvalues --   -0.29101  -0.28947  -0.24485  -0.23779  -0.21724
 Alpha  occ. eigenvalues --   -0.20876  -0.19933
 Alpha virt. eigenvalues --   -0.09186  -0.08546  -0.02529  -0.01444  -0.00447
 Alpha virt. eigenvalues --    0.00193   0.01423   0.02479   0.02777   0.03641
 Alpha virt. eigenvalues --    0.03967   0.05134   0.05230   0.05498   0.05956

 Mulliken charges:
               1
     1  Mg   0.828938
     2  C    0.000000
     3  C   -0.093465
     4  C   -0.048318
     5  C   -0.052603
     6  N   -0.251345
     7  C   -0.052503
     8  C   -0.014154
     9  C   -0.087626
    10  C    0.047271
    11  C    0.104555
    12  C    0.053396
    13  C   -0.072332
    14  H    0.038218
    15  N   -0.433170
    16  C    0.171237
    17  C   -0.176470
    18  C   -0.002569
    19  C    0.151413
    20  C    0.109816
    21  C    0.010751
    22  O   -0.249745
    23  C    0.062637
    24  N   -0.316742
    25  C    0.033297
    26  C   -0.023070
    27  C   -0.021043
    28  C   -0.022313
    29  C    0.080251
    30  C    0.193350
    31  C    0.007863
    32  N   -0.307596
    33  C    0.079562
    34  C   -0.172059
    35  C    0.014191
    36  C    0.094179
    37  C    0.116776
    38  C    0.049331
    39  O   -0.183881
    40  C   -0.009026
    41  C    0.212219
    42  O   -0.249831
    43  O   -0.306077
    44  C    0.157291
    45  H   -0.016334
    46  H   -0.017103
    47  H   -0.037855
    48  H    0.002050
    49  H   -0.003117
    50  H    0.026595
    51  H    0.016130
    52  H    0.017648
    53  H    0.010847
    54  H    0.047319
    55  H    0.017743
    56  H    0.017548
    57  H    0.007603
    58  H    0.028165
    59  H    0.040209
    60  H    0.038871
    61  H    0.035597
    62  H    0.030762
    63  H    0.012385
    64  H    0.009639
    65  H    0.022810
    66  H    0.010773
    67  H    0.006281
    68  H   -0.026746
    69  H   -0.025443
    70  H   -0.004055
    71  H    0.014840
    72  H    0.017950
    73  H    0.054512
    74  H    0.006437
    75  H    0.048896
    76  H    0.035490
    77  H    0.042981
    78  H    0.045413
    79  H    0.055951
    80  Mg   0.837682
    81  C   -0.016211
    82  C   -0.087998
    83  C   -0.046078
    84  C   -0.065438
    85  N   -0.255379
    86  C   -0.042009
    87  C   -0.018566
    88  C   -0.092597
    89  C    0.046638
    90  C    0.114917
    91  C    0.148413
    92  C   -0.103814
    93  H    0.077423
    94  N   -0.423195
    95  C    0.162196
    96  C   -0.175414
    97  C   -0.008761
    98  C    0.151882
    99  C    0.099438
   100  C    0.014763
   101  O   -0.253988
   102  C    0.061789
   103  N   -0.350167
   104  C    0.037254
   105  C   -0.019567
   106  C   -0.034819
   107  C    0.089267
   108  C    0.073901
   109  C    0.034862
   110  C   -0.007616
   111  N   -0.324490
   112  C    0.079399
   113  C   -0.162335
   114  C    0.002951
   115  C    0.097623
   116  C    0.131077
   117  C    0.044874
   118  O   -0.186456
   119  C    0.000823
   120  C    0.208873
   121  O   -0.240707
   122  O   -0.309938
   123  C    0.144140
   124  H   -0.019430
   125  H   -0.016482
   126  H   -0.040745
   127  H    0.001672
   128  H   -0.003342
   129  H    0.021790
   130  H    0.014020
   131  H    0.015875
   132  H   -0.005173
   133  H    0.027784
   134  H   -0.114306
   135  H    0.028893
   136  H    0.009937
   137  H    0.025599
   138  H    0.036873
   139  H    0.038246
   140  H    0.035344
   141  H    0.032173
   142  H    0.013727
   143  H    0.012084
   144  H    0.024428
   145  H    0.011540
   146  H    0.005276
   147  H    0.005576
   148  H    0.003672
   149  H    0.010186
   150  H    0.017662
   151  H    0.031027
   152  H    0.047521
   153  H    0.008119
   154  H    0.046379
   155  H    0.033757
   156  H    0.040102
   157  H    0.041325
   158  H    0.062851
 Sum of Mulliken charges =  -0.00000

 Dipole moment (field-independent basis, Debye):
    X=             -2.0329    Y=              6.8951    Z=              3.0609  Tot=              7.8131
 Quadrupole moment (field-independent basis, Debye-Ang):
   XX=           -491.5421   YY=           -535.4143   ZZ=           -478.6133
   XY=            -26.3432   XZ=            -21.8051   YZ=             -5.1362

 Normal termination of Gaussian 16 at Thu Sep  9 21:06:43 2021.
