 Gaussian 16, Revision A.03,
 Gaussian 16:  ES64L-G16RevA.03 25-Dec-2016

 -----------------------------------
 #p cam-b3lyp/Def2SVP td=(nstates=5)
 -----------------------------------

 --------------------------------
 TDDFT excited states in gaussian
 --------------------------------
 Symbolic Z-matrix:
 Charge =  0 Multiplicity = 1

                         Standard orientation:
 ---------------------------------------------------------------------
 Center     Atomic      Atomic             Coordinates (Angstroms)
 Number     Number       Type             X           Y           Z
 ---------------------------------------------------------------------
      1         12           0       16.000068   -0.649055    0.512119
      2          6           0       16.269636    2.223156   -1.606832
      3          6           0       16.792223    1.392135    3.129198
      4          6           0       16.214206   -3.240530    2.327339
      5          6           0       16.352572   -2.608928   -2.348003
      6          7           0       16.449714    1.515811    0.620845
      7          6           0       16.461079    2.516030   -0.254715
      8          6           0       16.620571    3.916464    0.409154
      9          6           0       17.330777    3.472513    1.765809
     10          6           0       16.799057    2.053605    1.865298
     11          6           0       18.852104    3.421264    1.668648
     12          6           0       15.241274    4.605036    0.683267
     13          6           0       15.311822    6.096325    1.024491
     14          1           0       14.250466    6.973397    0.553728
     15          7           0       15.957485   -0.843620    2.477617
     16          6           0       16.297813    0.096236    3.392020
     17          6           0       16.096126   -0.531165    4.715791
     18          6           0       15.792755   -1.972418    4.494775
     19          6           0       16.004560   -2.083632    3.074160
     20          6           0       16.149589    0.230899    6.004259
     21          6           0       15.387996   -3.076916    5.419105
     22          8           0       15.400191   -4.303711    5.059383
     23          6           0       15.057261   -2.688166    6.802048
     24          7           0       16.467019   -2.640418    0.094908
     25          6           0       16.431290   -3.572912    1.053116
     26          6           0       16.521450   -4.953933    0.474677
     27          6           0       16.381538   -4.780918   -1.106538
     28          6           0       16.313325   -3.235074   -1.169670
     29          6           0       17.807602   -5.729514    0.791372
     30          6           0       15.267002   -5.597629   -1.807404
     31          6           0       13.909662   -5.091092   -1.373648
     32          7           0       16.087919   -0.296112   -1.627684
     33          6           0       16.260743   -1.257091   -2.634325
     34          6           0       16.365515   -0.529666   -3.912582
     35          6           0       16.262301    0.813623   -3.556539
     36          6           0       16.129479    0.919975   -2.142559
     37          6           0       16.591585   -1.116107   -5.189067
     38          6           0       16.258052    2.185066   -4.039223
     39          8           0       16.243971    2.712556   -5.152349
     40          6           0       16.385027    3.158065   -2.785040
     41          6           0       15.342097    4.231842   -2.935408
     42          8           0       14.126759    3.957895   -2.862799
     43          8           0       15.935006    5.435142   -2.902689
     44          6           0       14.952605    6.545946   -3.017388
     45          1           0       17.259968    1.883476    3.984616
     46          1           0       16.183908   -4.167084    2.904415
     47          1           0       16.378894   -3.158052   -3.290989
     48          1           0       17.261619    4.608258   -0.137564
     49          1           0       16.991543    4.064752    2.615454
     50          1           0       19.191246    3.573776    0.644127
     51          1           0       19.132802    2.427687    2.018656
     52          1           0       19.308669    4.124532    2.365599
     53          1           0       14.826694    4.220875    1.615257
     54          1           0       14.563355    4.459475   -0.158496
     55          1           0       16.288989    6.514909    0.781919
     56          1           0       15.232293    6.203284    2.106357
     57          1           0       16.555009    1.231740    5.861084
     58          1           0       16.879667   -0.269513    6.640092
     59          1           0       15.182101    0.257334    6.505857
     60          1           0       15.919680   -2.197790    7.254058
     61          1           0       14.704743   -3.594531    7.293051
     62          1           0       14.259482   -1.945229    6.778781
     63          1           0       15.710622   -5.583872    0.838216
     64          1           0       17.292512   -5.069009   -1.631708
     65          1           0       17.631824   -6.687542    1.281260
     66          1           0       18.445451   -5.089897    1.400739
     67          1           0       18.449737   -5.920217   -0.068112
     68          1           0       15.325800   -6.646116   -1.517295
     69          1           0       15.318734   -5.551112   -2.895251
     70          1           0       13.742957   -5.615948   -0.433665
     71          1           0       13.150863   -5.358276   -2.109887
     72          1           0       13.935410   -4.024201   -1.151014
     73          1           0       15.914643   -0.613555   -5.879835
     74          1           0       16.410966   -2.190615   -5.168773
     75          1           0       17.643057   -0.872206   -5.339978
     76          1           0       17.396039    3.563788   -2.804152
     77          1           0       15.259764    7.159950   -3.864080
     78          1           0       14.906941    7.021642   -2.037575
     79          1           0       13.942943    6.267076   -3.320957
     80         12           0      -15.726743   -0.647013   -0.493533
     81          6           0      -17.594580    1.707759    1.467395
     82          6           0      -14.775126    1.972357   -2.460234
     83          6           0      -14.443146   -2.746265   -2.496775
     84          6           0      -17.701333   -3.159912    0.896447
     85          7           0      -16.189858    1.514016   -0.405649
     86          6           0      -16.860768    2.302896    0.420124
     87          6           0      -16.673390    3.820678    0.154031
     88          6           0      -16.264393    3.744186   -1.397016
     89          6           0      -15.672138    2.336654   -1.424500
     90          6           0      -17.458256    3.778462   -2.336615
     91          6           0      -15.522971    4.442037    1.021474
     92          6           0      -15.488216    5.971766    1.042862
     93          1           0      -15.082854    6.641594    2.275533
     94          7           0      -14.370234   -0.397052   -1.920421
     95          6           0      -14.100403    0.739279   -2.596601
     96          6           0      -13.036117    0.395665   -3.552307
     97          6           0      -12.814698   -1.074999   -3.499015
     98          6           0      -13.905636   -1.474602   -2.632837
     99          6           0      -12.287407    1.429199   -4.342668
    100          6           0      -11.798032   -1.974576   -4.134117
    101          8           0      -11.937259   -3.248698   -4.141258
    102          6           0      -10.682372   -1.315542   -4.828714
    103          7           0      -16.163292   -2.633380   -0.924938
    104          6           0      -15.416805   -3.331227   -1.798834
    105          6           0      -15.744100   -4.804308   -1.741391
    106          6           0      -16.698432   -4.983129   -0.470621
    107          6           0      -16.835756   -3.504207   -0.047157
    108          6           0      -16.431037   -5.381877   -2.978694
    109          6           0      -16.259331   -6.020486    0.598847
    110          6           0      -15.002020   -5.546727    1.291738
    111          7           0      -17.227769   -0.767643    1.055782
    112          6           0      -17.946430   -1.914126    1.459769
    113          6           0      -18.935870   -1.475795    2.465413
    114          6           0      -18.738195   -0.090024    2.560592
    115          6           0      -17.712691    0.310282    1.661925
    116          6           0      -19.888327   -2.311094    3.114415
    117          6           0      -19.171133    1.126749    3.209211
    118          8           0      -19.948423    1.393940    4.124724
    119          6           0      -18.536745    2.363593    2.438386
    120          6           0      -17.950406    3.297387    3.461505
    121          8           0      -16.982507    2.944499    4.158111
    122          8           0      -18.484905    4.521365    3.298520
    123          6           0      -17.926342    5.485587    4.283450
    124          1           0      -14.601973    2.681742   -3.269970
    125          1           0      -13.959143   -3.528296   -3.086402
    126          1           0      -18.287334   -3.897857    1.448455
    127          1           0      -17.570147    4.416839    0.273128
    128          1           0      -15.505060    4.482223   -1.642125
    129          1           0      -18.394392    3.729373   -1.800546
    130          1           0      -17.347629    2.918644   -2.984314
    131          1           0      -17.400589    4.655544   -2.987561
    132          1           0      -14.559385    4.238976    0.536678
    133          1           0      -15.558305    4.067314    2.025936
    134          1           0      -16.415090    6.410609    0.653930
    135          1           0      -14.717980    6.311154    0.346019
    136          1           0      -12.782054    2.407248   -4.296262
    137          1           0      -12.357976    1.138855   -5.396511
    138          1           0      -11.233556    1.491397   -4.063031
    139          1           0      -11.074604   -0.672622   -5.613099
    140          1           0      -10.014739   -2.121468   -5.139566
    141          1           0      -10.163638   -0.663359   -4.117243
    142          1           0      -14.847799   -5.394122   -1.593536
    143          1           0      -17.703986   -5.321638   -0.760639
    144          1           0      -15.880387   -6.229941   -3.427740
    145          1           0      -16.558769   -4.586393   -3.700790
    146          1           0      -17.454332   -5.719496   -2.823475
    147          1           0      -16.011718   -6.972791    0.123502
    148          1           0      -17.021490   -6.221246    1.344366
    149          1           0      -14.209088   -5.862221    0.607036
    150          1           0      -14.897208   -6.024266    2.263858
    151          1           0      -14.972429   -4.452400    1.348490
    152          1           0      -19.889078   -2.029210    4.158951
    153          1           0      -19.646416   -3.364094    2.986180
    154          1           0      -20.795559   -2.029473    2.573219
    155          1           0      -19.334406    2.835239    1.863178
    156          1           0      -18.774700    5.922578    4.819185
    157          1           0      -17.290566    6.176089    3.698005
    158          1           0      -17.343024    5.083194    5.103373
 ---------------------------------------------------------------------

 SCF Done:  E(RCAM-B3LYP) =  -4069.81179006     A.U. after   19 cycles

 Excitation energies and oscillator strengths:

 Excited State   1:      Singlet-A      1.6754 eV  740.01 nm  f=0.2762  <S**2>=0.000
     310 -> 316       -0.16985
     311 -> 314        0.14203
     312 -> 313        0.67119
     310 <- 316       -0.10239
 This state for optimization and/or second-order correction.
 Total Energy, E(TD-HF/TD-DFT) =  -4069.75021880
 Copying the excited state density for this state as the 1-particle RhoCI density.

 Excited State   2:      Singlet-A      1.6801 eV  737.97 nm  f=0.5031  <S**2>=0.000
     309 -> 315        0.17181
     311 -> 314        0.67083
     312 -> 313       -0.14200
     309 <- 315        0.10288

 Excited State   3:      Singlet-A      2.1862 eV  567.11 nm  f=0.0955  <S**2>=0.000
     310 -> 313        0.64211
     312 -> 316        0.27306

 Excited State   4:      Singlet-A      2.1926 eV  565.47 nm  f=0.1046  <S**2>=0.000
     309 -> 314        0.64035
     311 -> 315       -0.27819

 Excited State   5:      Singlet-A      3.0658 eV  404.42 nm  f=0.0000  <S**2>=0.000
     311 -> 313        0.70710

 The electronic state is 1-A.
 Alpha  occ. eigenvalues --  -46.87786 -46.87660 -19.26353 -19.26281 -19.19164
 Alpha  occ. eigenvalues --  -19.19015 -19.18801 -19.18707 -19.18162 -19.18053
 Alpha  occ. eigenvalues --  -14.42497 -14.42439 -14.41439 -14.41359 -14.39392
 Alpha  occ. eigenvalues --  -14.39351 -14.38600 -14.38576 -10.39094 -10.39075
 Alpha  occ. eigenvalues --  -10.35434 -10.35383 -10.34382 -10.34230 -10.31761
 Alpha  occ. eigenvalues --  -10.31678 -10.31395 -10.31309 -10.31022 -10.30898
 Alpha  occ. eigenvalues --  -10.30560 -10.30497 -10.30397 -10.30361 -10.30195
 Alpha  occ. eigenvalues --  -10.30140 -10.29910 -10.29895 -10.29620 -10.29435
 Alpha  occ. eigenvalues --  -10.29399 -10.29243 -10.28740 -10.28719 -10.28654
 Alpha  occ. eigenvalues --  -10.28532 -10.28404 -10.28354 -10.28140 -10.28107
 Alpha  occ. eigenvalues --  -10.28000 -10.27783 -10.27716 -10.27668 -10.27573
 Alpha  occ. eigenvalues --  -10.27518 -10.27489 -10.27483 -10.27468 -10.27464
 Alpha  occ. eigenvalues --  -10.27457 -10.27437 -10.27393 -10.27376 -10.27151
 Alpha  occ. eigenvalues --  -10.27052 -10.26697 -10.26692 -10.26400 -10.26393
 Alpha  occ. eigenvalues --  -10.26225 -10.26171 -10.26138 -10.26026 -10.26008
 Alpha  occ. eigenvalues --  -10.25934 -10.25855 -10.25835 -10.25423 -10.25398
 Alpha  occ. eigenvalues --  -10.24873 -10.24823 -10.24777 -10.24731 -10.24689
 Alpha  occ. eigenvalues --  -10.24673  -3.16528  -3.16410  -1.91410  -1.91292
 Alpha  occ. eigenvalues --   -1.90997  -1.90881  -1.90839  -1.90717  -1.16647
 Alpha  occ. eigenvalues --   -1.16629  -1.08660  -1.08620  -1.07202  -1.06959
 Alpha  occ. eigenvalues --   -1.06949  -1.06638  -1.04571  -1.04495  -1.03750
 Alpha  occ. eigenvalues --   -1.03662  -1.03223  -1.03038  -1.02400  -1.02111
 Alpha  occ. eigenvalues --   -0.91988  -0.91963  -0.89508  -0.89494  -0.89179
 Alpha  occ. eigenvalues --   -0.89151  -0.88275  -0.88220  -0.87861  -0.87795
 Alpha  occ. eigenvalues --   -0.87684  -0.87662  -0.87261  -0.87115  -0.84999
 Alpha  occ. eigenvalues --   -0.84972  -0.83925  -0.83876  -0.82953  -0.82925
 Alpha  occ. eigenvalues --   -0.82651  -0.82638  -0.81598  -0.81578  -0.80587
 Alpha  occ. eigenvalues --   -0.80442  -0.78786  -0.78633  -0.77208  -0.77144
 Alpha  occ. eigenvalues --   -0.76925  -0.76899  -0.75915  -0.75839  -0.74887
 Alpha  occ. eigenvalues --   -0.74803  -0.72764  -0.72699  -0.71662  -0.71581
 Alpha  occ. eigenvalues --   -0.69895  -0.69758  -0.68863  -0.68826  -0.67631
 Alpha  occ. eigenvalues --   -0.67601  -0.67209  -0.67197  -0.65277  -0.65272
 Alpha  occ. eigenvalues --   -0.64844  -0.64770  -0.64654  -0.64611  -0.64258
 Alpha  occ. eigenvalues --   -0.64204  -0.62291  -0.62280  -0.60430  -0.60336
 Alpha  occ. eigenvalues --   -0.59796  -0.59794  -0.58993  -0.58977  -0.58494
 Alpha  occ. eigenvalues --   -0.58426  -0.57577  -0.57556  -0.57298  -0.57235
 Alpha  occ. eigenvalues --   -0.56300  -0.56204  -0.55972  -0.55888  -0.55509
 Alpha  occ. eigenvalues --   -0.55449  -0.55330  -0.55249  -0.54515  -0.54489
 Alpha  occ. eigenvalues --   -0.53912  -0.53886  -0.53288  -0.53226  -0.53212
 Alpha  occ. eigenvalues --   -0.53140  -0.52906  -0.52902  -0.52744  -0.52662
 Alpha  occ. eigenvalues --   -0.52426  -0.52401  -0.51906  -0.51887  -0.51657
 Alpha  occ. eigenvalues --   -0.51607  -0.51202  -0.51186  -0.50558  -0.50468
 Alpha  occ. eigenvalues --   -0.50019  -0.49977  -0.49906  -0.49866  -0.49504
 Alpha  occ. eigenvalues --   -0.49484  -0.49205  -0.49201  -0.49105  -0.49087
 Alpha  occ. eigenvalues --   -0.48584  -0.48559  -0.48450  -0.48434  -0.48376
 Alpha  occ. eigenvalues --   -0.48334  -0.47684  -0.47593  -0.47286  -0.47116
 Alpha  occ. eigenvalues --   -0.46787  -0.46709  -0.46553  -0.46546  -0.46349
 Alpha  occ. eigenvalues --   -0.46270  -0.46153  -0.46087  -0.45824  -0.45814
 Alpha  occ. eigenvalues --   -0.45209  -0.45190  -0.44569  -0.44515  -0.44495
 Alpha  occ. eigenvalues --   -0.44475  -0.44133  -0.44127  -0.44078  -0.44077
 Alpha  occ. eigenvalues --   -0.44009  -0.43936  -0.43555  -0.43487  -0.43386
 Alpha  occ. eigenvalues --   -0.43375  -0.43017  -0.42932  -0.42902  -0.42692
 Alpha  occ. eigenvalues --   -0.42645  -0.42552  -0.41999  -0.41964  -0.41694
 Alpha  occ. eigenvalues --   -0.41670  -0.41524  -0.41458  -0.41131  -0.40989
 Alpha  occ. eigenvalues --   -0.40859  -0.40810  -0.40719  -0.40695  -0.40560
 Alpha  occ. eigenvalues --   -0.40494  -0.40225  -0.40225  -0.39428  -0.39426
 Alpha  occ. eigenvalues --   -0.38458  -0.38350  -0.37739  -0.37654  -0.37309
 Alpha  occ. eigenvalues --   -0.37266  -0.37254  -0.37199  -0.36774  -0.36706
 Alpha  occ. eigenvalues --   -0.36218  -0.36184  -0.34276  -0.34253  -0.33864
 Alpha  occ. eigenvalues --   -0.33765  -0.33176  -0.33175  -0.31331  -0.31266
 Alpha  occ. eigenvalues --   -0.31025  -0.30972  -0.30021  -0.29958  -0.29438
 Alpha  occ. eigenvalues --   -0.29325  -0.29312  -0.29211  -0.24070  -0.24036
 Alpha  occ. eigenvalues --   -0.21117  -0.21116
 Alpha virt. eigenvalues --   -0.08791  -0.08763  -0.01739  -0.01683  -0.00046
 Alpha virt. eigenvalues --   -0.00025   0.02206   0.02210   0.03132   0.03228
 Alpha virt. eigenvalues --    0.04728   0.04730   0.05104   0.05162   0.06182

 Mulliken charges:
               1
     1  Mg   0.838673
     2  C   -0.002992
     3  C   -0.094123
     4  C   -0.045839
     5  C   -0.063934
     6  N   -0.256792
     7  C   -0.052445
     8  C   -0.014044
     9  C   -0.086983
    10  C    0.046330
    11  C    0.104811
    12  C    0.053463
    13  C   -0.071793
    14  H    0.036074
    15  N   -0.433126
    16  C    0.168441
    17  C   -0.177141
    18  C   -0.003963
    19  C    0.148718
    20  C    0.110181
    21  C    0.012317
    22  O   -0.249584
    23  C    0.062457
    24  N   -0.341121
    25  C    0.041251
    26  C   -0.028196
    27  C   -0.023970
    28  C    0.074830
    29  C    0.076180
    30  C    0.035125
    31  C   -0.004511
    32  N   -0.310441
    33  C    0.080369
    34  C   -0.169735
    35  C    0.008338
    36  C    0.082977
    37  C    0.127319
    38  C    0.046088
    39  O   -0.188528
    40  C   -0.005311
    41  C    0.212869
    42  O   -0.257122
    43  O   -0.304795
    44  C    0.157719
    45  H   -0.017589
    46  H   -0.016805
    47  H   -0.041510
    48  H    0.000908
    49  H   -0.004020
    50  H    0.025456
    51  H    0.016458
    52  H    0.016660
    53  H    0.011237
    54  H    0.044100
    55  H    0.017857
    56  H    0.017981
    57  H    0.005875
    58  H    0.026847
    59  H    0.039614
    60  H    0.037346
    61  H    0.035716
    62  H    0.031543
    63  H    0.016593
    64  H    0.009445
    65  H    0.023240
    66  H    0.012540
    67  H    0.004741
    68  H    0.006385
    69  H    0.004706
    70  H    0.008822
    71  H    0.018150
    72  H    0.028975
    73  H    0.047517
    74  H    0.009110
    75  H    0.045983
    76  H    0.035130
    77  H    0.042894
    78  H    0.046412
    79  H    0.053642
    80  Mg   0.837842
    81  C   -0.016816
    82  C   -0.087771
    83  C   -0.045490
    84  C   -0.064897
    85  N   -0.254573
    86  C   -0.049857
    87  C   -0.015090
    88  C   -0.090495
    89  C    0.045759
    90  C    0.114369
    91  C    0.062505
    92  C   -0.077900
    93  H    0.034877
    94  N   -0.423501
    95  C    0.162943
    96  C   -0.174583
    97  C   -0.007750
    98  C    0.152123
    99  C    0.099355
   100  C    0.015606
   101  O   -0.253132
   102  C    0.061175
   103  N   -0.350061
   104  C    0.037529
   105  C   -0.019839
   106  C   -0.034834
   107  C    0.088916
   108  C    0.073651
   109  C    0.034758
   110  C   -0.007688
   111  N   -0.324099
   112  C    0.078428
   113  C   -0.163164
   114  C    0.002226
   115  C    0.096158
   116  C    0.131485
   117  C    0.042358
   118  O   -0.187947
   119  C    0.000899
   120  C    0.211277
   121  O   -0.251027
   122  O   -0.305636
   123  C    0.152038
   124  H   -0.019611
   125  H   -0.015519
   126  H   -0.040491
   127  H   -0.000680
   128  H   -0.004281
   129  H    0.022431
   130  H    0.014431
   131  H    0.016310
   132  H    0.013962
   133  H    0.037665
   134  H    0.020770
   135  H    0.019641
   136  H    0.008783
   137  H    0.026219
   138  H    0.039930
   139  H    0.038288
   140  H    0.036531
   141  H    0.033969
   142  H    0.014446
   143  H    0.012390
   144  H    0.025184
   145  H    0.011644
   146  H    0.005650
   147  H    0.006270
   148  H    0.003617
   149  H    0.010977
   150  H    0.017924
   151  H    0.030104
   152  H    0.045974
   153  H    0.008500
   154  H    0.046900
   155  H    0.034997
   156  H    0.043878
   157  H    0.049508
   158  H    0.053566
 Sum of Mulliken charges =  -0.00000

 Dipole moment (field-independent basis, Debye):
    X=              3.0259    Y=              3.1439    Z=              0.2916  Tot=              4.3732
 Quadrupole moment (field-independent basis, Debye-Ang):
   XX=           -496.1492   YY=           -462.8731   ZZ=           -530.7344
   XY=              2.7673   XZ=            132.9777   YZ=             16.1478

 Normal termination of Gaussian 16 at Sun Sep 12 10:58:03 2021.
