 Gaussian 16, Revision A.03,
 Gaussian 16:  ES64L-G16RevA.03 25-Dec-2016

 -----------------------------------
 #p cam-b3lyp/Def2SVP td=(nstates=5)
 -----------------------------------

 --------------------------------
 TDDFT excited states in gaussian
 --------------------------------
 Symbolic Z-matrix:
 Charge =  0 Multiplicity = 1

                         Standard orientation:
 ---------------------------------------------------------------------
 Center     Atomic      Atomic             Coordinates (Angstroms)
 Number     Number       Type             X           Y           Z
 ---------------------------------------------------------------------
      1         12           0        6.802364   -0.490507    0.293931
      2          6           0        6.960700    2.623247   -1.464385
      3          6           0        7.548282    1.246238    3.134774
      4          6           0        7.115826   -3.272981    1.782624
      5          6           0        7.195838   -2.079009   -2.783000
      6          7           0        7.181748    1.659366    0.661027
      7          6           0        7.153318    2.757505   -0.087607
      8          6           0        7.272205    4.072410    0.739597
      9          6           0        8.007452    3.492433    2.029960
     10          6           0        7.523292    2.054868    1.959817
     11          6           0        9.528811    3.504200    1.921187
     12          6           0        5.873351    4.676431    1.100287
     13          6           0        5.897776    6.117333    1.618513
     14          1           0        4.804522    7.008666    1.261206
     15          7           0        6.781982   -0.921525    2.221795
     16          6           0        7.098696   -0.087689    3.241449
     17          6           0        6.928311   -0.876245    4.480735
     18          6           0        6.670523   -2.289764    4.088811
     19          6           0        6.874426   -2.222043    2.664306
     20          6           0        6.967154   -0.273430    5.851449
     21          6           0        6.309591   -3.510403    4.874877
     22          8           0        6.359053   -4.683886    4.369838
     23          6           0        5.977436   -3.302208    6.295922
     24          7           0        7.330895   -2.400430   -0.362183
     25          6           0        7.333423   -3.442138    0.476759
     26          6           0        7.464097   -4.739707   -0.264306
     27          6           0        7.305885   -4.382428   -1.812555
     28          6           0        7.186590   -2.843379   -1.688595
     29          6           0        8.777458   -5.504278   -0.048616
     30          6           0        6.213087   -5.145697   -2.602260
     31          6           0        4.843421   -4.740764   -2.105126
     32          7           0        6.861403    0.120140   -1.788056
     33          6           0        7.057498   -0.706376   -2.903893
     34          6           0        7.128114    0.172699   -4.085548
     35          6           0        6.983841    1.459161   -3.569750
     36          6           0        6.858982    1.390059   -2.152737
     37          6           0        7.362992   -0.247954   -5.424322
     38          6           0        6.930811    2.877810   -3.883562
     39          8           0        6.890515    3.534664   -4.924914
     40          6           0        7.035941    3.696495   -2.521751
     41          6           0        5.957238    4.745049   -2.537364
     42          8           0        4.752144    4.423830   -2.493403
     43          8           0        6.510675    5.954831   -2.362217
     44          6           0        5.491541    7.037856   -2.338201
     45          1           0        8.006553    1.646435    4.041290
     46          1           0        7.120523   -4.262743    2.243910
     47          1           0        7.232541   -2.509461   -3.785405
     48          1           0        7.885843    4.846041    0.277680
     49          1           0        7.655853    3.966421    2.946167
     50          1           0        9.854529    3.790173    0.921163
     51          1           0        9.844695    2.485677    2.147727
     52          1           0        9.967695    4.133362    2.695986
     53          1           0        5.479080    4.169236    1.980835
     54          1           0        5.193815    4.610627    0.249860
     55          1           0        6.858732    6.594540    1.424228
     56          1           0        5.823490    6.090588    2.705696
     57          1           0        7.338422    0.750372    5.828336
     58          1           0        7.718314   -0.822009    6.419365
     59          1           0        6.003384   -0.339955    6.356477
     60          1           0        6.826944   -2.841207    6.800266
     61          1           0        5.658742   -4.272365    6.675500
     62          1           0        5.155598   -2.588993    6.365609
     63          1           0        6.677278   -5.435605    0.023911
     64          1           0        8.221551   -4.574566   -2.372299
     65          1           0        8.637086   -6.519644    0.322913
     66          1           0        9.398903   -4.921660    0.630835
     67          1           0        9.418561   -5.568553   -0.927407
     68          1           0        6.308513   -6.218918   -2.440904
     69          1           0        6.254519   -4.966889   -3.676765
     70          1           0        4.701554   -5.380217   -1.234605
     71          1           0        4.087881   -4.942646   -2.865135
     72          1           0        4.836014   -3.708162   -1.755605
     73          1           0        6.664427    0.311138   -6.046729
     74          1           0        7.217820   -1.322534   -5.532981
     75          1           0        8.404668    0.047394   -5.548974
     76          1           0        8.032941    4.135180   -2.495895
     77          1           0        5.771613    7.759232   -3.105932
     78          1           0        5.438207    7.390375   -1.308012
     79          1           0        4.489143    6.763910   -2.669096
     80         12           0       -6.413260   -0.879454   -0.061248
     81          6           0       -8.960110    1.636425    0.189763
     82          6           0       -4.131130    1.653437   -0.165611
     83          6           0       -4.191432   -3.042288   -0.734343
     84          6           0       -8.901164   -3.099451   -1.075020
     85          7           0       -6.639135    1.319622    0.011533
     86          6           0       -7.650568    2.160025    0.169836
     87          6           0       -7.230183    3.637159    0.395484
     88          6           0       -5.785285    3.585411   -0.303417
     89          6           0       -5.475089    2.101983   -0.113912
     90          6           0       -5.826964    3.878023   -1.794052
     91          6           0       -7.119232    4.001170    1.917719
     92          6           0       -7.015927    5.498740    2.214951
     93          1           0       -7.658246    6.015000    3.420515
     94          7           0       -4.436634   -0.778328    0.084605
     95          6           0       -3.673662    0.334150    0.045422
     96          6           0       -2.282689   -0.127242    0.173837
     97          6           0       -2.275590   -1.614655    0.126403
     98          6           0       -3.662378   -1.874467   -0.204392
     99          6           0       -1.132502    0.809691    0.403289
    100          6           0       -1.196103   -2.634048    0.330726
    101          8           0       -1.360870   -3.863313    0.007309
    102          6           0        0.091579   -2.133524    0.833540
    103          7           0       -6.488591   -2.733452   -0.998990
    104          6           0       -5.386132   -3.494251   -1.116098
    105          6           0       -5.733343   -4.891165   -1.572655
    106          6           0       -7.328615   -4.981226   -1.504938
    107          6           0       -7.646611   -3.528506   -1.087939
    108          6           0       -5.261708   -5.268615   -2.976747
    109          6           0       -7.933101   -6.140219   -0.665891
    110          6           0       -7.629478   -5.929088    0.799925
    111          7           0       -8.567892   -0.836156   -0.215330
    112          6           0       -9.410083   -1.866152   -0.688548
    113          6           0      -10.785382   -1.327285   -0.712952
    114          6           0      -10.643570   -0.003395   -0.270581
    115          6           0       -9.273713    0.270161   -0.009517
    116          6           0      -11.944995   -2.026175   -1.152260
    117          6           0      -11.339832    1.228137    0.024759
    118          8           0      -12.521301    1.568048    0.072919
    119          6           0      -10.264773    2.383290    0.215235
    120          6           0      -10.613987    3.141038    1.466796
    121          8           0      -10.550992    2.587922    2.578861
    122          8           0      -10.753030    4.445499    1.167779
    123          6           0      -11.088815    5.240194    2.379201
    124          1           0       -3.354891    2.370357   -0.434609
    125          1           0       -3.480010   -3.858377   -0.880480
    126          1           0       -9.745860   -3.758948   -1.285272
    127          1           0       -7.857023    4.368647   -0.100248
    128          1           0       -5.064809    4.197194    0.233221
    129          1           0       -6.839525    3.956502   -2.161061
    130          1           0       -5.314821    3.052260   -2.270364
    131          1           0       -5.235541    4.769989   -2.019787
    132          1           0       -6.144467    3.666917    2.295689
    133          1           0       -7.935174    3.578390    2.471017
    134          1           0       -7.282890    6.111017    1.345018
    135          1           0       -5.967834    5.743597    2.403557
    136          1           0       -1.422117    1.852946    0.226773
    137          1           0       -0.388861    0.599193   -0.372942
    138          1           0       -0.668675    0.675271    1.382816
    139          1           0        0.482525   -1.387544    0.145688
    140          1           0        0.705395   -3.020972    0.999465
    141          1           0       -0.080088   -1.622630    1.787554
    142          1           0       -5.310887   -5.632329   -0.905338
    143          1           0       -7.771201   -5.126169   -2.501403
    144          1           0       -4.619546   -6.169394   -2.994054
    145          1           0       -4.739576   -4.421188   -3.400757
    146          1           0       -6.056649   -5.436347   -3.701420
    147          1           0       -7.471262   -7.090530   -0.944767
    148          1           0       -9.004488   -6.253005   -0.793949
    149          1           0       -6.617895   -6.332996    0.903077
    150          1           0       -8.337543   -6.474840    1.420279
    151          1           0       -7.584307   -4.861052    1.042632
    152          1           0      -12.727668   -1.811329   -0.436875
    153          1           0      -11.759116   -3.095350   -1.230206
    154          1           0      -12.092764   -1.562761   -2.131381
    155          1           0      -10.304304    3.017061   -0.671519
    156          1           0      -12.013998    5.781944    2.159595
    157          1           0      -10.189693    5.846582    2.597394
    158          1           0      -11.369437    4.696258    3.273537
 ---------------------------------------------------------------------

 SCF Done:  E(RCAM-B3LYP) =  -4069.81205110     A.U. after   19 cycles

 Excitation energies and oscillator strengths:

 Excited State   1:      Singlet-A      1.6749 eV  740.24 nm  f=0.4082  <S**2>=0.000
     310 -> 316       -0.17232
     312 -> 314        0.68174
     310 <- 316       -0.10395
 This state for optimization and/or second-order correction.
 Total Energy, E(TD-HF/TD-DFT) =  -4069.75049917
 Copying the excited state density for this state as the 1-particle RhoCI density.

 Excited State   2:      Singlet-A      1.6789 eV  738.51 nm  f=0.3802  <S**2>=0.000
     309 -> 315        0.17476
     311 -> 313        0.68139
     309 <- 315        0.10481

 Excited State   3:      Singlet-A      2.1860 eV  567.16 nm  f=0.0354  <S**2>=0.000
     309 -> 313       -0.22084
     310 -> 314        0.60395
     312 -> 316        0.25616

 Excited State   4:      Singlet-A      2.1949 eV  564.88 nm  f=0.1517  <S**2>=0.000
     309 -> 313        0.60147
     310 -> 314        0.21901
     311 -> 315       -0.26295

 Excited State   5:      Singlet-A      2.5935 eV  478.06 nm  f=0.0000  <S**2>=0.000
     312 -> 313        0.70688

 The electronic state is 1-A.
 Alpha  occ. eigenvalues --  -46.87983 -46.87529 -19.26545 -19.26269 -19.19295
 Alpha  occ. eigenvalues --  -19.19074 -19.18943 -19.18566 -19.18358 -19.17933
 Alpha  occ. eigenvalues --  -14.42635 -14.42365 -14.41609 -14.41230 -14.39583
 Alpha  occ. eigenvalues --  -14.39217 -14.38772 -14.38470 -10.39345 -10.39001
 Alpha  occ. eigenvalues --  -10.35574 -10.35243 -10.34582 -10.34112 -10.31950
 Alpha  occ. eigenvalues --  -10.31691 -10.31593 -10.31177 -10.31101 -10.30883
 Alpha  occ. eigenvalues --  -10.30750 -10.30674 -10.30346 -10.30272 -10.30227
 Alpha  occ. eigenvalues --  -10.30067 -10.30004 -10.29796 -10.29777 -10.29420
 Alpha  occ. eigenvalues --  -10.29292 -10.29261 -10.28970 -10.28814 -10.28596
 Alpha  occ. eigenvalues --  -10.28579 -10.28550 -10.28316 -10.28267 -10.28000
 Alpha  occ. eigenvalues --  -10.27965 -10.27903 -10.27863 -10.27750 -10.27640
 Alpha  occ. eigenvalues --  -10.27588 -10.27573 -10.27526 -10.27520 -10.27408
 Alpha  occ. eigenvalues --  -10.27367 -10.27354 -10.27321 -10.27268 -10.27217
 Alpha  occ. eigenvalues --  -10.26984 -10.26939 -10.26597 -10.26524 -10.26408
 Alpha  occ. eigenvalues --  -10.26248 -10.26192 -10.26169 -10.26044 -10.25987
 Alpha  occ. eigenvalues --  -10.25858 -10.25805 -10.25742 -10.25503 -10.25293
 Alpha  occ. eigenvalues --  -10.25010 -10.24943 -10.24740 -10.24643 -10.24642
 Alpha  occ. eigenvalues --  -10.24561  -3.16728  -3.16280  -1.91610  -1.91195
 Alpha  occ. eigenvalues --   -1.91162  -1.91038  -1.90750  -1.90587  -1.16895
 Alpha  occ. eigenvalues --   -1.16561  -1.08822  -1.08545  -1.07341  -1.06912
 Alpha  occ. eigenvalues --   -1.06859  -1.06817  -1.04767  -1.04362  -1.03925
 Alpha  occ. eigenvalues --   -1.03532  -1.03406  -1.02908  -1.02581  -1.01979
 Alpha  occ. eigenvalues --   -0.92159  -0.91861  -0.89636  -0.89394  -0.89375
 Alpha  occ. eigenvalues --   -0.89022  -0.88393  -0.88105  -0.88037  -0.87851
 Alpha  occ. eigenvalues --   -0.87669  -0.87551  -0.87431  -0.86952  -0.85180
 Alpha  occ. eigenvalues --   -0.84875  -0.84030  -0.83768  -0.83088  -0.82828
 Alpha  occ. eigenvalues --   -0.82780  -0.82520  -0.81790  -0.81490  -0.80779
 Alpha  occ. eigenvalues --   -0.80322  -0.78959  -0.78480  -0.77377  -0.77114
 Alpha  occ. eigenvalues --   -0.77012  -0.76787  -0.76113  -0.75708  -0.75017
 Alpha  occ. eigenvalues --   -0.74685  -0.72935  -0.72567  -0.71835  -0.71453
 Alpha  occ. eigenvalues --   -0.69970  -0.69650  -0.69059  -0.68700  -0.67812
 Alpha  occ. eigenvalues --   -0.67475  -0.67425  -0.67076  -0.65488  -0.65151
 Alpha  occ. eigenvalues --   -0.65033  -0.64791  -0.64647  -0.64536  -0.64386
 Alpha  occ. eigenvalues --   -0.64088  -0.62503  -0.62174  -0.60588  -0.60191
 Alpha  occ. eigenvalues --   -0.60000  -0.59666  -0.59153  -0.58867  -0.58672
 Alpha  occ. eigenvalues --   -0.58299  -0.57793  -0.57454  -0.57444  -0.57111
 Alpha  occ. eigenvalues --   -0.56481  -0.56202  -0.56067  -0.55778  -0.55683
 Alpha  occ. eigenvalues --   -0.55478  -0.55319  -0.55139  -0.54678  -0.54386
 Alpha  occ. eigenvalues --   -0.54104  -0.53787  -0.53452  -0.53406  -0.53105
 Alpha  occ. eigenvalues --   -0.53099  -0.53012  -0.52921  -0.52783  -0.52505
 Alpha  occ. eigenvalues --   -0.52489  -0.52298  -0.52075  -0.51816  -0.51769
 Alpha  occ. eigenvalues --   -0.51528  -0.51361  -0.51083  -0.50711  -0.50303
 Alpha  occ. eigenvalues --   -0.50144  -0.50056  -0.49836  -0.49739  -0.49691
 Alpha  occ. eigenvalues --   -0.49393  -0.49350  -0.49281  -0.49064  -0.48980
 Alpha  occ. eigenvalues --   -0.48784  -0.48606  -0.48580  -0.48434  -0.48263
 Alpha  occ. eigenvalues --   -0.48189  -0.47856  -0.47456  -0.47454  -0.46965
 Alpha  occ. eigenvalues --   -0.46950  -0.46757  -0.46584  -0.46520  -0.46427
 Alpha  occ. eigenvalues --   -0.46318  -0.46133  -0.46010  -0.45968  -0.45714
 Alpha  occ. eigenvalues --   -0.45312  -0.45090  -0.44760  -0.44659  -0.44396
 Alpha  occ. eigenvalues --   -0.44347  -0.44297  -0.44248  -0.44188  -0.43999
 Alpha  occ. eigenvalues --   -0.43952  -0.43795  -0.43687  -0.43553  -0.43450
 Alpha  occ. eigenvalues --   -0.43262  -0.43191  -0.42926  -0.42827  -0.42780
 Alpha  occ. eigenvalues --   -0.42748  -0.42429  -0.42135  -0.41874  -0.41854
 Alpha  occ. eigenvalues --   -0.41719  -0.41547  -0.41341  -0.41308  -0.41042
 Alpha  occ. eigenvalues --   -0.40974  -0.40859  -0.40678  -0.40596  -0.40569
 Alpha  occ. eigenvalues --   -0.40465  -0.40380  -0.40115  -0.39488  -0.39321
 Alpha  occ. eigenvalues --   -0.38590  -0.38237  -0.37972  -0.37546  -0.37470
 Alpha  occ. eigenvalues --   -0.37449  -0.37146  -0.37072  -0.36933  -0.36680
 Alpha  occ. eigenvalues --   -0.36364  -0.36105  -0.34462  -0.34126  -0.34030
 Alpha  occ. eigenvalues --   -0.33767  -0.33362  -0.33045  -0.31473  -0.31205
 Alpha  occ. eigenvalues --   -0.31126  -0.30842  -0.30221  -0.29840  -0.29619
 Alpha  occ. eigenvalues --   -0.29500  -0.29182  -0.29078  -0.24257  -0.23905
 Alpha  occ. eigenvalues --   -0.21296  -0.20982
 Alpha virt. eigenvalues --   -0.08944  -0.08654  -0.01914  -0.01553  -0.00223
 Alpha virt. eigenvalues --    0.00115   0.02028   0.02326   0.02759   0.03336
 Alpha virt. eigenvalues --    0.04524   0.04844   0.04854   0.05258   0.05938

 Mulliken charges:
               1
     1  Mg   0.836031
     2  C   -0.003947
     3  C   -0.094620
     4  C   -0.045410
     5  C   -0.063356
     6  N   -0.256870
     7  C   -0.053025
     8  C   -0.013745
     9  C   -0.086859
    10  C    0.045840
    11  C    0.104705
    12  C    0.053562
    13  C   -0.071580
    14  H    0.034897
    15  N   -0.433368
    16  C    0.167949
    17  C   -0.177444
    18  C   -0.003970
    19  C    0.148345
    20  C    0.110143
    21  C    0.012265
    22  O   -0.248510
    23  C    0.062572
    24  N   -0.341223
    25  C    0.041342
    26  C   -0.028324
    27  C   -0.024135
    28  C    0.074924
    29  C    0.076009
    30  C    0.034829
    31  C   -0.004294
    32  N   -0.310444
    33  C    0.080028
    34  C   -0.169608
    35  C    0.008333
    36  C    0.082258
    37  C    0.127334
    38  C    0.045725
    39  O   -0.188444
    40  C   -0.005158
    41  C    0.213250
    42  O   -0.258947
    43  O   -0.304294
    44  C    0.157823
    45  H   -0.017331
    46  H   -0.015923
    47  H   -0.040790
    48  H    0.001203
    49  H   -0.004183
    50  H    0.025657
    51  H    0.016841
    52  H    0.016970
    53  H    0.010292
    54  H    0.042642
    55  H    0.018711
    56  H    0.018185
    57  H    0.005826
    58  H    0.027429
    59  H    0.039257
    60  H    0.037509
    61  H    0.036595
    62  H    0.030857
    63  H    0.017689
    64  H    0.009604
    65  H    0.023895
    66  H    0.012330
    67  H    0.004987
    68  H    0.007163
    69  H    0.004640
    70  H    0.010482
    71  H    0.020483
    72  H    0.026694
    73  H    0.047440
    74  H    0.009712
    75  H    0.046302
    76  H    0.035554
    77  H    0.043531
    78  H    0.046383
    79  H    0.052607
    80  Mg   0.837521
    81  C   -0.016882
    82  C   -0.087778
    83  C   -0.045415
    84  C   -0.064948
    85  N   -0.254526
    86  C   -0.050044
    87  C   -0.015124
    88  C   -0.090338
    89  C    0.045437
    90  C    0.114197
    91  C    0.062605
    92  C   -0.077581
    93  H    0.034082
    94  N   -0.423612
    95  C    0.162531
    96  C   -0.173616
    97  C   -0.007823
    98  C    0.152287
    99  C    0.098435
   100  C    0.015750
   101  O   -0.253336
   102  C    0.060164
   103  N   -0.350023
   104  C    0.037650
   105  C   -0.019870
   106  C   -0.034691
   107  C    0.088721
   108  C    0.073653
   109  C    0.034833
   110  C   -0.007615
   111  N   -0.323993
   112  C    0.078147
   113  C   -0.163448
   114  C    0.002119
   115  C    0.095946
   116  C    0.131552
   117  C    0.042117
   118  O   -0.188451
   119  C    0.000985
   120  C    0.211181
   121  O   -0.251253
   122  O   -0.305561
   123  C    0.152171
   124  H   -0.017849
   125  H   -0.015686
   126  H   -0.040833
   127  H   -0.000799
   128  H   -0.004331
   129  H    0.022160
   130  H    0.015247
   131  H    0.016901
   132  H    0.013681
   133  H    0.037416
   134  H    0.020892
   135  H    0.019414
   136  H    0.010205
   137  H    0.030183
   138  H    0.038490
   139  H    0.039475
   140  H    0.037470
   141  H    0.033043
   142  H    0.014225
   143  H    0.012242
   144  H    0.024776
   145  H    0.012041
   146  H    0.005541
   147  H    0.005987
   148  H    0.003449
   149  H    0.010870
   150  H    0.017609
   151  H    0.030191
   152  H    0.045628
   153  H    0.008246
   154  H    0.046746
   155  H    0.034967
   156  H    0.043705
   157  H    0.049386
   158  H    0.053330
 Sum of Mulliken charges =  -0.00000

 Dipole moment (field-independent basis, Debye):
    X=              5.9507    Y=              2.5234    Z=              2.8676  Tot=              7.0712
 Quadrupole moment (field-independent basis, Debye-Ang):
   XX=           -557.8190   YY=           -476.5378   ZZ=           -509.5516
   XY=             16.5736   XZ=             42.8933   YZ=             43.8522

 Normal termination of Gaussian 16 at Sat Sep 11 17:57:55 2021.
