 Gaussian 16, Revision A.03,
 Gaussian 16:  ES64L-G16RevA.03 25-Dec-2016

 -----------------------------------
 #p cam-b3lyp/Def2SVP td=(nstates=5)
 -----------------------------------

 --------------------------------
 TDDFT excited states in gaussian
 --------------------------------
 Symbolic Z-matrix:
 Charge =  0 Multiplicity = 1

                         Standard orientation:
 ---------------------------------------------------------------------
 Center     Atomic      Atomic             Coordinates (Angstroms)
 Number     Number       Type             X           Y           Z
 ---------------------------------------------------------------------
      1         12           0       -6.217657    0.808995   -0.303512
      2          6           0       -6.633691   -2.304266    1.413094
      3          6           0       -7.114934    2.359647    2.600526
      4          6           0       -6.298997    3.539654   -1.913950
      5          6           0       -6.467599   -0.972481   -3.288396
      6          7           0       -6.778129    0.019374    1.687220
      7          6           0       -6.840547   -1.191741    2.231717
      8          6           0       -7.072169   -1.165369    3.772182
      9          6           0       -7.759197    0.267783    3.898939
     10          6           0       -7.155229    0.935681    2.676213
     11          6           0       -9.275829    0.232547    3.740552
     12          6           0       -5.730244   -1.230537    4.576371
     13          6           0       -5.877570   -1.537219    6.069554
     14          1           0       -4.862532   -2.351507    6.720694
     15          7           0       -6.165993    2.676776    0.338031
     16          6           0       -6.554627    3.125884    1.555631
     17          6           0       -6.321517    4.586099    1.544917
     18          6           0       -5.944304    4.976495    0.158052
     19          6           0       -6.149476    3.734762   -0.542935
     20          6           0       -6.414686    5.443218    2.769831
     21          6           0       -5.483670    6.266982   -0.442442
     22          8           0       -5.432576    6.448862   -1.706911
     23          6           0       -5.173985    7.356834    0.500618
     24          7           0       -6.581358    1.265243   -2.307806
     25          6           0       -6.498129    2.522939   -2.755308
     26          6           0       -6.516865    2.571462   -4.254385
     27          6           0       -6.385338    1.058368   -4.747335
     28          6           0       -6.396714    0.358316   -3.366006
     29          6           0       -7.761554    3.208213   -4.887873
     30          6           0       -5.229951    0.736201   -5.728002
     31          6           0       -3.900659    0.892221   -5.023915
     32          7           0       -6.322600   -1.282091   -0.875694
     33          6           0       -6.445310   -1.795587   -2.174900
     34          6           0       -6.586800   -3.257919   -2.049861
     35          6           0       -6.552986   -3.493373   -0.676812
     36          6           0       -6.426439   -2.254004    0.013290
     37          6           0       -6.781834   -4.171123   -3.123384
     38          6           0       -6.619084   -4.501403    0.368829
     39          8           0       -6.631665   -5.733079    0.386400
     40          6           0       -6.796504   -3.761423    1.767678
     41          6           0       -5.810130   -4.365458    2.729715
     42          8           0       -4.582340   -4.211256    2.568100
     43          8           0       -6.464172   -4.822375    3.808602
     44          6           0       -5.540167   -5.408053    4.816248
     45          1           0       -7.607717    2.943807    3.380183
     46          1           0       -6.221328    4.448293   -2.514600
     47          1           0       -6.465218   -1.601974   -4.180128
     48          1           0       -7.747716   -1.936213    4.143475
     49          1           0       -7.451257    0.787924    4.805773
     50          1           0       -9.621914   -0.755588    3.437672
     51          1           0       -9.505196    0.968946    2.970097
     52          1           0       -9.768279    0.584414    4.647448
     53          1           0       -5.296863   -0.232074    4.633921
     54          1           0       -5.045361   -1.950105    4.126390
     55          1           0       -6.874870   -1.911019    6.303169
     56          1           0       -5.804129   -0.599101    6.619773
     57          1           0       -6.870994    4.906341    3.600548
     58          1           0       -7.118336    6.244489    2.544993
     59          1           0       -5.450062    5.868265    3.047622
     60          1           0       -6.060690    7.582696    1.093314
     61          1           0       -4.775523    8.172045   -0.102299
     62          1           0       -4.415473    7.010785    1.203369
     63          1           0       -5.674864    3.146457   -4.637586
     64          1           0       -7.280052    0.719225   -5.269966
     65          1           0       -7.536939    4.047544   -5.546491
     66          1           0       -8.431734    3.510610   -4.083693
     67          1           0       -8.392647    2.518921   -5.448244
     68          1           0       -5.234859    1.436235   -6.562792
     69          1           0       -5.283525   -0.271600   -6.139972
     70          1           0       -3.707591    1.961511   -5.102508
     71          1           0       -3.128793    0.317398   -5.536762
     72          1           0       -3.981359    0.652757   -3.963429
     73          1           0       -6.131337   -5.022141   -2.921914
     74          1           0       -6.546185   -3.710759   -4.082622
     75          1           0       -7.844395   -4.387528   -3.013886
     76          1           0       -7.827041   -3.925902    2.080824
     77          1           0       -5.878131   -6.426511    5.007975
     78          1           0       -5.519471   -4.715008    5.657476
     79          1           0       -4.517361   -5.589698    4.484265
     80         12           0        6.979883    0.152200    0.148167
     81          6           0        4.398732   -1.937729   -1.211588
     82          6           0        4.912928    2.808763   -0.404074
     83          6           0        9.393229    2.062895    0.917891
     84          6           0        9.216723   -2.448974   -0.465132
     85          7           0        4.942879    0.290247   -0.702590
     86          6           0        4.036779   -0.577046   -1.128182
     87          6           0        2.639433    0.038122   -1.408488
     88          6           0        3.093285    1.555887   -1.671717
     89          6           0        4.379719    1.572567   -0.848618
     90          6           0        3.450716    1.834194   -3.122270
     91          6           0        1.680393   -0.068275   -0.171178
     92          6           0        0.209550    0.230131   -0.470052
     93          1           0       -0.813679   -0.523331    0.249522
     94          7           0        6.982996    2.058248    0.700922
     95          6           0        6.053513    2.991887    0.408247
     96          6           0        6.526487    4.238910    1.029057
     97          6           0        7.892056    4.004045    1.572003
     98          6           0        8.156509    2.676294    1.055041
     99          6           0        5.673571    5.469663    1.134858
    100          6           0        8.813257    4.841609    2.406310
    101          8           0       10.047597    4.533532    2.562254
    102          6           0        8.251146    6.082744    2.958660
    103          7           0        9.043964   -0.063288    0.023630
    104          6           0        9.867956    0.898147    0.475951
    105          6           0       11.295397    0.409141    0.536508
    106          6           0       11.222727   -1.164108    0.258679
    107          6           0        9.709009   -1.303153   -0.014677
    108          6           0       12.262936    1.056450   -0.454077
    109          6           0       11.871218   -2.096587    1.318216
    110          6           0       11.089279   -2.031805    2.610416
    111          7           0        6.835591   -1.900549   -0.510209
    112          6           0        7.899198   -2.804439   -0.724254
    113          6           0        7.313768   -4.042042   -1.279263
    114          6           0        5.942133   -3.761786   -1.371875
    115          6           0        5.693175   -2.435520   -0.926304
    116          6           0        8.038699   -5.203938   -1.667329
    117          6           0        4.649662   -4.282619   -1.755221
    118          8           0        4.228979   -5.378988   -2.122264
    119          6           0        3.609842   -3.080902   -1.787273
    120          6           0        2.372032   -3.518005   -1.052916
    121          8           0        2.410658   -3.751072    0.168061
    122          8           0        1.306856   -3.379169   -1.863154
    123          6           0        0.053535   -3.789789   -1.175848
    124          1           0        4.438617    3.730229   -0.742907
    125          1           0       10.248590    2.641353    1.274542
    126          1           0        9.834777   -3.340488   -0.591181
    127          1           0        2.136499   -0.356588   -2.283152
    128          1           0        2.371666    2.260000   -1.265680
    129          1           0        3.453932    0.932542   -3.716549
    130          1           0        4.437642    2.277603   -3.102186
    131          1           0        2.785390    2.598206   -3.534539
    132          1           0        1.900913    0.751724    0.524320
    133          1           0        1.766310   -1.030096    0.295869
    134          1           0       -0.000229    0.231724   -1.546592
    135          1           0       -0.008417    1.252867   -0.153002
    136          1           0        4.781369    5.396493    0.500810
    137          1           0        6.248165    6.295164    0.700983
    138          1           0        5.420759    5.719445    2.167510
    139          1           0        7.895904    6.711457    2.145648
    140          1           0        9.032449    6.498208    3.598068
    141          1           0        7.375393    5.829920    3.566731
    142          1           0       11.718992    0.573154    1.519754
    143          1           0       11.736964   -1.437262   -0.674485
    144          1           0       13.135382    1.530264    0.034198
    145          1           0       11.715600    1.781667   -1.041461
    146          1           0       12.655989    0.388898   -1.218989
    147          1           0       12.883985   -1.758567    1.551019
    148          1           0       11.942511   -3.130617    0.997764
    149          1           0       11.490983   -1.138176    3.097394
    150          1           0       11.266781   -2.921915    3.210607
    151          1           0       10.025172   -1.852161    2.417922
    152          1           0        7.482629   -6.055523   -1.298420
    153          1           0        9.052937   -5.189653   -1.273753
    154          1           0        8.018743   -5.092151   -2.754694
    155          1           0        3.405596   -2.852247   -2.833973
    156          1           0       -0.417160   -4.555449   -1.800267
    157          1           0       -0.515526   -2.855911   -1.009165
    158          1           0        0.148124   -4.314916   -0.232578
 ---------------------------------------------------------------------

 SCF Done:  E(RCAM-B3LYP) =  -4069.81220430     A.U. after   19 cycles

 Excitation energies and oscillator strengths:

 Excited State   1:      Singlet-A      1.6633 eV  745.40 nm  f=0.0056  <S**2>=0.000
     309 -> 315       -0.11460
     310 -> 316        0.12606
     311 -> 313       -0.46023
     312 -> 314        0.50976
 This state for optimization and/or second-order correction.
 Total Energy, E(TD-HF/TD-DFT) =  -4069.75107814
 Copying the excited state density for this state as the 1-particle RhoCI density.

 Excited State   2:      Singlet-A      1.6902 eV  733.55 nm  f=0.7299  <S**2>=0.000
     309 -> 315        0.13192
     310 -> 316        0.11847
     311 -> 313        0.50840
     312 -> 314        0.45912

 Excited State   3:      Singlet-A      2.1846 eV  567.55 nm  f=0.1054  <S**2>=0.000
     310 -> 314        0.63965
     312 -> 316       -0.27061

 Excited State   4:      Singlet-A      2.1921 eV  565.60 nm  f=0.0970  <S**2>=0.000
     309 -> 313        0.63774
     311 -> 315       -0.27624

 Excited State   5:      Singlet-A      2.5836 eV  479.89 nm  f=0.0000  <S**2>=0.000
     312 -> 313        0.70678

 The electronic state is 1-A.
 Alpha  occ. eigenvalues --  -46.88009 -46.87501 -19.26370 -19.25841 -19.19144
 Alpha  occ. eigenvalues --  -19.19053 -19.18730 -19.18594 -19.18340 -19.17834
 Alpha  occ. eigenvalues --  -14.42647 -14.42332 -14.41657 -14.41203 -14.39615
 Alpha  occ. eigenvalues --  -14.39196 -14.38799 -14.38435 -10.39204 -10.38676
 Alpha  occ. eigenvalues --  -10.35687 -10.35275 -10.34558 -10.34002 -10.31704
 Alpha  occ. eigenvalues --  -10.31590 -10.31127 -10.31097 -10.31038 -10.30844
 Alpha  occ. eigenvalues --  -10.30770 -10.30720 -10.30418 -10.30239 -10.30190
 Alpha  occ. eigenvalues --  -10.30129 -10.30005 -10.29840 -10.29739 -10.29465
 Alpha  occ. eigenvalues --  -10.29292 -10.29244 -10.28890 -10.28608 -10.28569
 Alpha  occ. eigenvalues --  -10.28493 -10.28339 -10.28264 -10.28233 -10.27994
 Alpha  occ. eigenvalues --  -10.27940 -10.27921 -10.27840 -10.27797 -10.27713
 Alpha  occ. eigenvalues --  -10.27683 -10.27663 -10.27596 -10.27508 -10.27400
 Alpha  occ. eigenvalues --  -10.27353 -10.27314 -10.27312 -10.27301 -10.27255
 Alpha  occ. eigenvalues --  -10.26821 -10.26780 -10.26662 -10.26421 -10.26418
 Alpha  occ. eigenvalues --  -10.26367 -10.26330 -10.26224 -10.26032 -10.26012
 Alpha  occ. eigenvalues --  -10.25845 -10.25785 -10.25701 -10.25623 -10.25292
 Alpha  occ. eigenvalues --  -10.25033 -10.24997 -10.24979 -10.24703 -10.24628
 Alpha  occ. eigenvalues --  -10.24534  -3.16753  -3.16251  -1.91635  -1.91221
 Alpha  occ. eigenvalues --   -1.91133  -1.91063  -1.90722  -1.90559  -1.16725
 Alpha  occ. eigenvalues --   -1.16156  -1.08793  -1.08423  -1.07457  -1.06849
 Alpha  occ. eigenvalues --   -1.06762  -1.06513  -1.04776  -1.04324  -1.03966
 Alpha  occ. eigenvalues --   -1.03502  -1.03444  -1.02884  -1.02619  -1.01951
 Alpha  occ. eigenvalues --   -0.92159  -0.91788  -0.89733  -0.89345  -0.89338
 Alpha  occ. eigenvalues --   -0.88944  -0.88498  -0.88082  -0.88061  -0.87859
 Alpha  occ. eigenvalues --   -0.87631  -0.87510  -0.87490  -0.86987  -0.85143
 Alpha  occ. eigenvalues --   -0.84795  -0.84148  -0.83726  -0.83194  -0.82817
 Alpha  occ. eigenvalues --   -0.82809  -0.82447  -0.81728  -0.81275  -0.80770
 Alpha  occ. eigenvalues --   -0.80178  -0.79002  -0.78488  -0.77407  -0.77084
 Alpha  occ. eigenvalues --   -0.76968  -0.76649  -0.76074  -0.75577  -0.75089
 Alpha  occ. eigenvalues --   -0.74619  -0.72970  -0.72537  -0.71853  -0.71394
 Alpha  occ. eigenvalues --   -0.70134  -0.69628  -0.69043  -0.68627  -0.67836
 Alpha  occ. eigenvalues --   -0.67416  -0.67381  -0.66996  -0.65447  -0.65049
 Alpha  occ. eigenvalues --   -0.65034  -0.64792  -0.64585  -0.64476  -0.64390
 Alpha  occ. eigenvalues --   -0.64036  -0.62434  -0.61919  -0.60656  -0.60200
 Alpha  occ. eigenvalues --   -0.59972  -0.59604  -0.59178  -0.58810  -0.58692
 Alpha  occ. eigenvalues --   -0.58227  -0.57745  -0.57501  -0.57282  -0.57049
 Alpha  occ. eigenvalues --   -0.56499  -0.56098  -0.56033  -0.55713  -0.55555
 Alpha  occ. eigenvalues --   -0.55524  -0.55225  -0.55025  -0.54689  -0.54215
 Alpha  occ. eigenvalues --   -0.54047  -0.53699  -0.53498  -0.53397  -0.53086
 Alpha  occ. eigenvalues --   -0.53050  -0.52948  -0.52931  -0.52664  -0.52639
 Alpha  occ. eigenvalues --   -0.52512  -0.52260  -0.52098  -0.51777  -0.51714
 Alpha  occ. eigenvalues --   -0.51439  -0.51374  -0.50980  -0.50795  -0.50357
 Alpha  occ. eigenvalues --   -0.50243  -0.50121  -0.49821  -0.49730  -0.49691
 Alpha  occ. eigenvalues --   -0.49396  -0.49315  -0.49247  -0.48995  -0.48898
 Alpha  occ. eigenvalues --   -0.48752  -0.48673  -0.48627  -0.48313  -0.48230
 Alpha  occ. eigenvalues --   -0.48148  -0.47877  -0.47483  -0.47395  -0.46988
 Alpha  occ. eigenvalues --   -0.46935  -0.46709  -0.46555  -0.46532  -0.46345
 Alpha  occ. eigenvalues --   -0.46343  -0.46100  -0.45971  -0.45868  -0.45553
 Alpha  occ. eigenvalues --   -0.45403  -0.45053  -0.44745  -0.44706  -0.44351
 Alpha  occ. eigenvalues --   -0.44299  -0.44281  -0.44245  -0.44193  -0.43945
 Alpha  occ. eigenvalues --   -0.43904  -0.43731  -0.43643  -0.43566  -0.43264
 Alpha  occ. eigenvalues --   -0.43209  -0.43138  -0.42902  -0.42781  -0.42724
 Alpha  occ. eigenvalues --   -0.42476  -0.42407  -0.42206  -0.41889  -0.41789
 Alpha  occ. eigenvalues --   -0.41692  -0.41469  -0.41320  -0.41256  -0.41056
 Alpha  occ. eigenvalues --   -0.41031  -0.40810  -0.40766  -0.40571  -0.40515
 Alpha  occ. eigenvalues --   -0.40368  -0.40328  -0.39998  -0.39677  -0.39300
 Alpha  occ. eigenvalues --   -0.38668  -0.38201  -0.37894  -0.37524  -0.37424
 Alpha  occ. eigenvalues --   -0.37417  -0.37108  -0.36986  -0.36858  -0.36422
 Alpha  occ. eigenvalues --   -0.36356  -0.35951  -0.34487  -0.34083  -0.33913
 Alpha  occ. eigenvalues --   -0.33486  -0.33384  -0.32992  -0.31581  -0.31234
 Alpha  occ. eigenvalues --   -0.31151  -0.30799  -0.30196  -0.29730  -0.29663
 Alpha  occ. eigenvalues --   -0.29528  -0.29177  -0.29044  -0.24283  -0.23868
 Alpha  occ. eigenvalues --   -0.21332  -0.20958
 Alpha virt. eigenvalues --   -0.08980  -0.08632  -0.01959  -0.01529  -0.00269
 Alpha virt. eigenvalues --    0.00123   0.02000   0.02361   0.02528   0.03385
 Alpha virt. eigenvalues --    0.04545   0.04970   0.04993   0.05552   0.06051

 Mulliken charges:
               1
     1  Mg   0.836173
     2  C   -0.003059
     3  C   -0.093773
     4  C   -0.046438
     5  C   -0.064054
     6  N   -0.256865
     7  C   -0.052297
     8  C   -0.013896
     9  C   -0.087003
    10  C    0.046279
    11  C    0.104703
    12  C    0.053326
    13  C   -0.072422
    14  H    0.037820
    15  N   -0.433230
    16  C    0.168154
    17  C   -0.177116
    18  C   -0.004414
    19  C    0.148466
    20  C    0.110067
    21  C    0.011399
    22  O   -0.249971
    23  C    0.062790
    24  N   -0.341057
    25  C    0.041265
    26  C   -0.028187
    27  C   -0.024023
    28  C    0.074548
    29  C    0.076043
    30  C    0.035202
    31  C   -0.004968
    32  N   -0.310398
    33  C    0.079899
    34  C   -0.170497
    35  C    0.008225
    36  C    0.081800
    37  C    0.127492
    38  C    0.045395
    39  O   -0.187259
    40  C   -0.005069
    41  C    0.213370
    42  O   -0.258030
    43  O   -0.304736
    44  C    0.157052
    45  H   -0.017135
    46  H   -0.017021
    47  H   -0.041118
    48  H    0.001478
    49  H   -0.003669
    50  H    0.025758
    51  H    0.016372
    52  H    0.017132
    53  H    0.010921
    54  H    0.044203
    55  H    0.018052
    56  H    0.017979
    57  H    0.006387
    58  H    0.027171
    59  H    0.039102
    60  H    0.038056
    61  H    0.035312
    62  H    0.030581
    63  H    0.015844
    64  H    0.010111
    65  H    0.023267
    66  H    0.012871
    67  H    0.005250
    68  H    0.006765
    69  H    0.005593
    70  H    0.007810
    71  H    0.018211
    72  H    0.028263
    73  H    0.047536
    74  H    0.009426
    75  H    0.046743
    76  H    0.035788
    77  H    0.043688
    78  H    0.046650
    79  H    0.054923
    80  Mg   0.837533
    81  C   -0.016241
    82  C   -0.087924
    83  C   -0.045862
    84  C   -0.065361
    85  N   -0.254476
    86  C   -0.049845
    87  C   -0.014789
    88  C   -0.090402
    89  C    0.045639
    90  C    0.114372
    91  C    0.062929
    92  C   -0.081805
    93  H    0.041903
    94  N   -0.423399
    95  C    0.162636
    96  C   -0.174912
    97  C   -0.008226
    98  C    0.152045
    99  C    0.099450
   100  C    0.015263
   101  O   -0.253619
   102  C    0.061365
   103  N   -0.350148
   104  C    0.037384
   105  C   -0.019707
   106  C   -0.034801
   107  C    0.089084
   108  C    0.073809
   109  C    0.034816
   110  C   -0.007613
   111  N   -0.324210
   112  C    0.078723
   113  C   -0.163316
   114  C    0.002520
   115  C    0.096147
   116  C    0.131471
   117  C    0.042369
   118  O   -0.186864
   119  C    0.001212
   120  C    0.211495
   121  O   -0.250581
   122  O   -0.307229
   123  C    0.150945
   124  H   -0.019773
   125  H   -0.016062
   126  H   -0.040745
   127  H   -0.000378
   128  H   -0.004185
   129  H    0.022158
   130  H    0.013953
   131  H    0.016428
   132  H    0.012798
   133  H    0.039278
   134  H    0.020592
   135  H    0.018121
   136  H    0.008717
   137  H    0.025780
   138  H    0.038899
   139  H    0.038093
   140  H    0.035889
   141  H    0.033474
   142  H    0.014085
   143  H    0.012197
   144  H    0.024764
   145  H    0.011575
   146  H    0.005410
   147  H    0.005926
   148  H    0.003572
   149  H    0.010702
   150  H    0.017730
   151  H    0.030371
   152  H    0.046319
   153  H    0.008189
   154  H    0.046745
   155  H    0.034440
   156  H    0.044835
   157  H    0.051552
   158  H    0.057761
 Sum of Mulliken charges =  -0.00000

 Dipole moment (field-independent basis, Debye):
    X=             -3.4462    Y=              7.0939    Z=              1.5881  Tot=              8.0450
 Quadrupole moment (field-independent basis, Debye-Ang):
   XX=           -482.9998   YY=           -547.7156   ZZ=           -475.1768
   XY=            -25.1338   XZ=            -28.4044   YZ=              7.4658

 Normal termination of Gaussian 16 at Sat Sep 11 10:51:12 2021.
