 Gaussian 16, Revision A.03,
 Gaussian 16:  ES64L-G16RevA.03 25-Dec-2016

 -----------------------------------
 #p cam-b3lyp/Def2SVP td=(nstates=5)
 -----------------------------------

 --------------------------------
 TDDFT excited states in gaussian
 --------------------------------
 Symbolic Z-matrix:
 Charge =  0 Multiplicity = 1

                         Standard orientation:
 ---------------------------------------------------------------------
 Center     Atomic      Atomic             Coordinates (Angstroms)
 Number     Number       Type             X           Y           Z
 ---------------------------------------------------------------------
      1         12           0        6.725717   -0.392183   -0.179120
      2          6           0        6.700735    3.033271   -1.217317
      3          6           0        7.659050    0.706889    2.913451
      4          6           0        7.195310   -3.420667    0.635978
      5          6           0        6.907978   -1.258799   -3.549790
      6          7           0        7.098380    1.637080    0.623289
      7          6           0        6.995745    2.870453    0.138081
      8          6           0        7.156863    3.976677    1.223292
      9          6           0        7.997416    3.153323    2.299190
     10          6           0        7.531831    1.750845    1.949603
     11          6           0        9.505666    3.237124    2.087856
     12          6           0        5.780352    4.442585    1.806283
     13          6           0        5.821744    5.736008    2.625246
     14          1           0        4.690618    6.648364    2.551023
     15          7           0        6.859264   -1.233268    1.603460
     16          6           0        7.239811   -0.631910    2.756213
     17          6           0        7.176844   -1.676542    3.800942
     18          6           0        6.912010   -2.978227    3.127463
     19          6           0        7.005516   -2.595317    1.741817
     20          6           0        7.310764   -1.385897    5.264274
     21          6           0        6.631235   -4.351693    3.649850
     22          8           0        6.660335   -5.384771    2.897203
     23          6           0        6.405291   -4.468806    5.101840
     24          7           0        7.232403   -2.095401   -1.274542
     25          6           0        7.315225   -3.294230   -0.687230
     26          6           0        7.409214   -4.394333   -1.702552
     27          6           0        7.127739   -3.713586   -3.119277
     28          6           0        6.994224   -2.243127   -2.652166
     29          6           0        8.746990   -5.145151   -1.753917
     30          6           0        5.989916   -4.321010   -3.977655
     31          6           0        4.656028   -4.078095   -3.307705
     32          7           0        6.616140    0.658935   -2.074954
     33          6           0        6.739389    0.102061   -3.356116
     34          6           0        6.705875    1.219248   -4.317802
     35          6           0        6.581308    2.357157   -3.523137
     36          6           0        6.566056    1.977057   -2.150700
     37          6           0        6.844435    1.108084   -5.729495
     38          6           0        6.482327    3.807660   -3.513126
     39          8           0        6.352418    4.673968   -4.379224
     40          6           0        6.678282    4.312936   -2.015753
     41          6           0        5.585286    5.304679   -1.724013
     42          8           0        4.392227    4.943249   -1.666175
     43          8           0        6.131509    6.464303   -1.327208
     44          6           0        5.100386    7.482942   -0.993571
     45          1           0        8.178862    0.914423    3.850823
     46          1           0        7.250660   -4.486483    0.867089
     47          1           0        6.874791   -1.459135   -4.622272
     48          1           0        7.721296    4.851566    0.900169
     49          1           0        7.709406    3.404840    3.319734
     50          1           0        9.749604    3.744348    1.154508
     51          1           0        9.853791    2.204341    2.062137
     52          1           0        9.992520    3.696079    2.948734
     53          1           0        5.462405    3.743405    2.579664
     54          1           0        5.039004    4.541946    1.012648
     55          1           0        6.757497    6.274542    2.472748
     56          1           0        5.831076    5.470696    3.682470
     57          1           0        7.663147   -0.370319    5.440268
     58          1           0        8.111555   -2.020727    5.643001
     59          1           0        6.389506   -1.591615    5.809522
     60          1           0        7.283508   -4.101840    5.633461
     61          1           0        6.131691   -5.508032    5.280730
     62          1           0        5.580128   -3.814544    5.384676
     63          1           0        6.657654   -5.161089   -1.519062
     64          1           0        8.000904   -3.749799   -3.771156
     65          1           0        8.651261   -6.221023   -1.605456
     66          1           0        9.409300   -4.704990   -1.009005
     67          1           0        9.320078   -4.995909   -2.668637
     68          1           0        6.114132   -5.399994   -4.063151
     69          1           0        5.946422   -3.911180   -4.986813
     70          1           0        4.591019   -4.896036   -2.591061
     71          1           0        3.847934   -4.133599   -4.037852
     72          1           0        4.659187   -3.147218   -2.740305
     73          1           0        6.091756    1.766721   -6.162669
     74          1           0        6.708198    0.078909   -6.060918
     75          1           0        7.868817    1.456633   -5.859917
     76          1           0        7.667372    4.767088   -1.965077
     77          1           0        5.309745    8.362820   -1.602027
     78          1           0        5.120331    7.600674    0.090009
     79          1           0        4.080060    7.255768   -1.304482
     80         12           0       -6.476778   -1.117036    0.329171
     81          6           0       -8.228366    1.976568   -0.161353
     82          6           0       -4.262915    0.615378    2.261056
     83          6           0       -4.665442   -3.720754    0.413665
     84          6           0       -8.117595   -2.333297   -2.494679
     85          7           0       -6.366643    1.016446    0.902229
     86          6           0       -7.122012    2.086709    0.706578
     87          6           0       -6.712749    3.325339    1.547932
     88          6           0       -5.171380    2.949041    1.795785
     89          6           0       -5.269592    1.429096    1.682627
     90          6           0       -4.245682    3.450751    0.700005
     91          6           0       -7.505587    3.418831    2.898742
     92          6           0       -7.383049    4.760304    3.624812
     93          1           0       -8.543018    5.265611    4.353929
     94          7           0       -5.018137   -1.626898    1.574553
     95          6           0       -4.235495   -0.796157    2.294711
     96          6           0       -3.304746   -1.661647    3.035522
     97          6           0       -3.493317   -3.061875    2.568063
     98          6           0       -4.404911   -2.849897    1.461650
     99          6           0       -2.412891   -1.149615    4.129067
    100          6           0       -2.934397   -4.373139    3.031079
    101          8           0       -3.048276   -5.439276    2.328779
    102          6           0       -2.169015   -4.353024    4.286183
    103          7           0       -6.238302   -2.711918   -0.983011
    104          6           0       -5.425661   -3.739794   -0.681335
    105          6           0       -5.624539   -4.891306   -1.637816
    106          6           0       -6.916740   -4.514281   -2.501325
    107          6           0       -7.201106   -3.107706   -1.930318
    108          6           0       -4.454364   -5.186651   -2.575818
    109          6           0       -8.073953   -5.550119   -2.525282
    110          6           0       -8.705709   -5.649939   -1.155502
    111          7           0       -8.046752   -0.416949   -0.979686
    112          6           0       -8.564229   -1.073135   -2.117990
    113          6           0       -9.534993   -0.153966   -2.746627
    114          6           0       -9.497651    0.991328   -1.937068
    115          6           0       -8.554357    0.807307   -0.890259
    116          6           0      -10.269753   -0.408387   -3.938901
    117          6           0      -10.033955    2.318251   -1.736174
    118          8           0      -10.928747    2.981811   -2.258462
    119          6           0       -9.143731    3.064179   -0.651067
    120          6           0      -10.068358    3.704330    0.347824
    121          8           0      -10.784452    3.004358    1.085290
    122          8           0       -9.797106    5.020276    0.419105
    123          6           0      -10.681174    5.697078    1.405096
    124          1           0       -3.388397    1.101412    2.694496
    125          1           0       -4.146546   -4.681069    0.458523
    126          1           0       -8.742681   -2.676369   -3.321866
    127          1           0       -6.785126    4.272465    1.026883
    128          1           0       -4.849921    3.237146    2.793293
    129          1           0       -4.794110    3.876748   -0.126969
    130          1           0       -3.680312    2.587407    0.374374
    131          1           0       -3.514772    4.150588    1.115116
    132          1           0       -7.031564    2.760853    3.638415
    133          1           0       -8.541089    3.181736    2.749943
    134          1           0       -6.964750    5.541868    2.978953
    135          1           0       -6.649163    4.654687    4.427474
    136          1           0       -2.372721   -0.053367    4.135190
    137          1           0       -1.391744   -1.457433    3.879324
    138          1           0       -2.674029   -1.553707    5.109461
    139          1           0       -1.332092   -3.665754    4.187818
    140          1           0       -1.927890   -5.396480    4.498177
    141          1           0       -2.810530   -3.956036    5.080837
    142          1           0       -5.817339   -5.811634   -1.100306
    143          1           0       -6.670654   -4.377923   -3.564668
    144          1           0       -4.080884   -6.224891   -2.494246
    145          1           0       -3.662275   -4.480054   -2.366394
    146          1           0       -4.651631   -5.006455   -3.631198
    147          1           0       -7.687352   -6.544438   -2.761979
    148          1           0       -8.843228   -5.321519   -3.255320
    149          1           0       -8.045053   -6.345334   -0.629125
    150          1           0       -9.717123   -6.044672   -1.227969
    151          1           0       -8.659262   -4.689191   -0.629719
    152          1           0      -11.283185   -0.076230   -3.756929
    153          1           0      -10.238207   -1.462089   -4.208157
    154          1           0       -9.714386    0.212921   -4.646584
    155          1           0       -8.535496    3.801192   -1.176842
    156          1           0      -11.182720    6.513747    0.876725
    157          1           0      -10.026707    5.972762    2.253287
    158          1           0      -11.528847    5.138503    1.784439
 ---------------------------------------------------------------------

 SCF Done:  E(RCAM-B3LYP) =  -4069.81169150     A.U. after   19 cycles

 Excitation energies and oscillator strengths:

 Excited State   1:      Singlet-A      1.6661 eV  744.17 nm  f=0.1210  <S**2>=0.000
     309 -> 315       -0.10903
     310 -> 316       -0.13245
     311 -> 313       -0.43484
     312 -> 314        0.53135
 This state for optimization and/or second-order correction.
 Total Energy, E(TD-HF/TD-DFT) =  -4069.75046478
 Copying the excited state density for this state as the 1-particle RhoCI density.

 Excited State   2:      Singlet-A      1.6877 eV  734.65 nm  f=0.6389  <S**2>=0.000
     309 -> 315        0.13776
     310 -> 316       -0.11174
     311 -> 313        0.53022
     312 -> 314        0.43399

 Excited State   3:      Singlet-A      2.1844 eV  567.58 nm  f=0.0398  <S**2>=0.000
     309 -> 313        0.20214
     310 -> 314        0.61067
     312 -> 316        0.25798

 Excited State   4:      Singlet-A      2.1935 eV  565.22 nm  f=0.1487  <S**2>=0.000
     309 -> 313        0.60812
     310 -> 314       -0.20036
     311 -> 315       -0.26514

 Excited State   5:      Singlet-A      2.6195 eV  473.32 nm  f=0.0000  <S**2>=0.000
     312 -> 313        0.70700

 The electronic state is 1-A.
 Alpha  occ. eigenvalues --  -46.87931 -46.87555 -19.26455 -19.26267 -19.19194
 Alpha  occ. eigenvalues --  -19.19078 -19.18931 -19.18627 -19.18302 -19.17954
 Alpha  occ. eigenvalues --  -14.42589 -14.42388 -14.41573 -14.41256 -14.39537
 Alpha  occ. eigenvalues --  -14.39249 -14.38719 -14.38497 -10.39250 -10.39005
 Alpha  occ. eigenvalues --  -10.35565 -10.35307 -10.34524 -10.34131 -10.31858
 Alpha  occ. eigenvalues --  -10.31685 -10.31545 -10.31196 -10.31056 -10.30917
 Alpha  occ. eigenvalues --  -10.30704 -10.30632 -10.30324 -10.30297 -10.30259
 Alpha  occ. eigenvalues --  -10.30041 -10.30033 -10.29793 -10.29759 -10.29384
 Alpha  occ. eigenvalues --  -10.29335 -10.29307 -10.28919 -10.28762 -10.28606
 Alpha  occ. eigenvalues --  -10.28585 -10.28502 -10.28302 -10.28273 -10.28006
 Alpha  occ. eigenvalues --  -10.27924 -10.27901 -10.27864 -10.27717 -10.27637
 Alpha  occ. eigenvalues --  -10.27583 -10.27558 -10.27541 -10.27528 -10.27427
 Alpha  occ. eigenvalues --  -10.27405 -10.27380 -10.27373 -10.27303 -10.27283
 Alpha  occ. eigenvalues --  -10.26950 -10.26919 -10.26607 -10.26542 -10.26373
 Alpha  occ. eigenvalues --  -10.26354 -10.26240 -10.26139 -10.26060 -10.25951
 Alpha  occ. eigenvalues --  -10.25834 -10.25826 -10.25756 -10.25504 -10.25300
 Alpha  occ. eigenvalues --  -10.24964 -10.24908 -10.24772 -10.24727 -10.24659
 Alpha  occ. eigenvalues --  -10.24587  -3.16674  -3.16305  -1.91556  -1.91187
 Alpha  occ. eigenvalues --   -1.91142  -1.90984  -1.90776  -1.90613  -1.16804
 Alpha  occ. eigenvalues --   -1.16561  -1.08762  -1.08561  -1.07330  -1.06878
 Alpha  occ. eigenvalues --   -1.06862  -1.06815  -1.04721  -1.04387  -1.03887
 Alpha  occ. eigenvalues --   -1.03559  -1.03363  -1.02937  -1.02540  -1.02008
 Alpha  occ. eigenvalues --   -0.92109  -0.91884  -0.89623  -0.89399  -0.89349
 Alpha  occ. eigenvalues --   -0.89030  -0.88385  -0.88126  -0.87996  -0.87813
 Alpha  occ. eigenvalues --   -0.87695  -0.87581  -0.87410  -0.87037  -0.85138
 Alpha  occ. eigenvalues --   -0.84892  -0.84029  -0.83786  -0.83088  -0.82853
 Alpha  occ. eigenvalues --   -0.82794  -0.82551  -0.81733  -0.81505  -0.80736
 Alpha  occ. eigenvalues --   -0.80348  -0.78931  -0.78545  -0.77350  -0.77077
 Alpha  occ. eigenvalues --   -0.77045  -0.76799  -0.76068  -0.75729  -0.75002
 Alpha  occ. eigenvalues --   -0.74707  -0.72900  -0.72598  -0.71799  -0.71471
 Alpha  occ. eigenvalues --   -0.69988  -0.69669  -0.69022  -0.68724  -0.67774
 Alpha  occ. eigenvalues --   -0.67506  -0.67386  -0.67112  -0.65441  -0.65167
 Alpha  occ. eigenvalues --   -0.64988  -0.64756  -0.64670  -0.64555  -0.64375
 Alpha  occ. eigenvalues --   -0.64109  -0.62444  -0.62188  -0.60567  -0.60251
 Alpha  occ. eigenvalues --   -0.59955  -0.59684  -0.59115  -0.58892  -0.58633
 Alpha  occ. eigenvalues --   -0.58328  -0.57729  -0.57459  -0.57428  -0.57144
 Alpha  occ. eigenvalues --   -0.56443  -0.56138  -0.56109  -0.55798  -0.55653
 Alpha  occ. eigenvalues --   -0.55451  -0.55362  -0.55156  -0.54646  -0.54399
 Alpha  occ. eigenvalues --   -0.54057  -0.53798  -0.53426  -0.53370  -0.53134
 Alpha  occ. eigenvalues --   -0.53057  -0.53046  -0.52901  -0.52807  -0.52579
 Alpha  occ. eigenvalues --   -0.52516  -0.52318  -0.52034  -0.51789  -0.51776
 Alpha  occ. eigenvalues --   -0.51562  -0.51324  -0.51105  -0.50710  -0.50400
 Alpha  occ. eigenvalues --   -0.50135  -0.50048  -0.49877  -0.49775  -0.49658
 Alpha  occ. eigenvalues --   -0.49390  -0.49353  -0.49242  -0.49101  -0.48991
 Alpha  occ. eigenvalues --   -0.48733  -0.48577  -0.48565  -0.48455  -0.48283
 Alpha  occ. eigenvalues --   -0.48250  -0.47829  -0.47499  -0.47426  -0.47027
 Alpha  occ. eigenvalues --   -0.46922  -0.46714  -0.46611  -0.46485  -0.46448
 Alpha  occ. eigenvalues --   -0.46284  -0.46177  -0.45991  -0.45959  -0.45726
 Alpha  occ. eigenvalues --   -0.45302  -0.45112  -0.44714  -0.44640  -0.44418
 Alpha  occ. eigenvalues --   -0.44373  -0.44265  -0.44230  -0.44155  -0.44017
 Alpha  occ. eigenvalues --   -0.43991  -0.43850  -0.43635  -0.43520  -0.43463
 Alpha  occ. eigenvalues --   -0.43283  -0.43155  -0.42850  -0.42842  -0.42803
 Alpha  occ. eigenvalues --   -0.42754  -0.42463  -0.42124  -0.41872  -0.41835
 Alpha  occ. eigenvalues --   -0.41685  -0.41568  -0.41360  -0.41272  -0.41011
 Alpha  occ. eigenvalues --   -0.40956  -0.40875  -0.40674  -0.40632  -0.40600
 Alpha  occ. eigenvalues --   -0.40419  -0.40396  -0.40136  -0.39517  -0.39340
 Alpha  occ. eigenvalues --   -0.38577  -0.38254  -0.37924  -0.37562  -0.37432
 Alpha  occ. eigenvalues --   -0.37420  -0.37168  -0.37096  -0.36862  -0.36685
 Alpha  occ. eigenvalues --   -0.36325  -0.36121  -0.34417  -0.34151  -0.33937
 Alpha  occ. eigenvalues --   -0.33775  -0.33319  -0.33073  -0.31460  -0.31185
 Alpha  occ. eigenvalues --   -0.31166  -0.30869  -0.30163  -0.29858  -0.29582
 Alpha  occ. eigenvalues --   -0.29453  -0.29231  -0.29111  -0.24212  -0.23931
 Alpha  occ. eigenvalues --   -0.21258  -0.21014
 Alpha virt. eigenvalues --   -0.08905  -0.08691  -0.01877  -0.01581  -0.00191
 Alpha virt. eigenvalues --    0.00068   0.02073   0.02306   0.02962   0.03316
 Alpha virt. eigenvalues --    0.04568   0.04838   0.04932   0.05253   0.05991

 Mulliken charges:
               1
     1  Mg   0.838127
     2  C   -0.003343
     3  C   -0.094782
     4  C   -0.045461
     5  C   -0.063649
     6  N   -0.256775
     7  C   -0.052698
     8  C   -0.013894
     9  C   -0.086886
    10  C    0.046037
    11  C    0.104757
    12  C    0.053679
    13  C   -0.071497
    14  H    0.035054
    15  N   -0.433143
    16  C    0.168115
    17  C   -0.177671
    18  C   -0.004105
    19  C    0.148592
    20  C    0.110260
    21  C    0.012227
    22  O   -0.248728
    23  C    0.062698
    24  N   -0.341127
    25  C    0.041212
    26  C   -0.028304
    27  C   -0.024079
    28  C    0.074980
    29  C    0.076048
    30  C    0.034979
    31  C   -0.004538
    32  N   -0.310501
    33  C    0.080456
    34  C   -0.169491
    35  C    0.008421
    36  C    0.082927
    37  C    0.127288
    38  C    0.046129
    39  O   -0.188210
    40  C   -0.005354
    41  C    0.213014
    42  O   -0.257785
    43  O   -0.304568
    44  C    0.157728
    45  H   -0.017612
    46  H   -0.016276
    47  H   -0.041083
    48  H    0.001166
    49  H   -0.004437
    50  H    0.025654
    51  H    0.016726
    52  H    0.016760
    53  H    0.010244
    54  H    0.043544
    55  H    0.018540
    56  H    0.017701
    57  H    0.005714
    58  H    0.027238
    59  H    0.038495
    60  H    0.037481
    61  H    0.036314
    62  H    0.030186
    63  H    0.017215
    64  H    0.009633
    65  H    0.023668
    66  H    0.012456
    67  H    0.004911
    68  H    0.006824
    69  H    0.004715
    70  H    0.009641
    71  H    0.018498
    72  H    0.028455
    73  H    0.047701
    74  H    0.009410
    75  H    0.046240
    76  H    0.035376
    77  H    0.043401
    78  H    0.046138
    79  H    0.053222
    80  Mg   0.838106
    81  C   -0.016826
    82  C   -0.087597
    83  C   -0.045373
    84  C   -0.064794
    85  N   -0.254620
    86  C   -0.049549
    87  C   -0.015138
    88  C   -0.090559
    89  C    0.045833
    90  C    0.114234
    91  C    0.062603
    92  C   -0.077628
    93  H    0.034332
    94  N   -0.423555
    95  C    0.162980
    96  C   -0.174337
    97  C   -0.007845
    98  C    0.152231
    99  C    0.099382
   100  C    0.015738
   101  O   -0.252953
   102  C    0.061265
   103  N   -0.349949
   104  C    0.037628
   105  C   -0.019877
   106  C   -0.034800
   107  C    0.088948
   108  C    0.073586
   109  C    0.034772
   110  C   -0.007624
   111  N   -0.324110
   112  C    0.078501
   113  C   -0.163149
   114  C    0.002313
   115  C    0.096189
   116  C    0.131473
   117  C    0.042384
   118  O   -0.188042
   119  C    0.000909
   120  C    0.211192
   121  O   -0.251239
   122  O   -0.305480
   123  C    0.152132
   124  H   -0.019223
   125  H   -0.015565
   126  H   -0.040609
   127  H   -0.000470
   128  H   -0.004938
   129  H    0.022793
   130  H    0.015805
   131  H    0.016935
   132  H    0.013610
   133  H    0.037492
   134  H    0.020984
   135  H    0.019224
   136  H    0.008600
   137  H    0.025988
   138  H    0.038940
   139  H    0.037937
   140  H    0.036453
   141  H    0.033338
   142  H    0.014208
   143  H    0.012467
   144  H    0.024880
   145  H    0.012159
   146  H    0.005601
   147  H    0.006080
   148  H    0.003547
   149  H    0.010847
   150  H    0.017703
   151  H    0.030157
   152  H    0.045784
   153  H    0.008342
   154  H    0.047196
   155  H    0.035458
   156  H    0.043826
   157  H    0.049388
   158  H    0.053378
 Sum of Mulliken charges =  -0.00000

 Dipole moment (field-independent basis, Debye):
    X=              6.2737    Y=              0.7431    Z=              5.6108  Tot=              8.4494
 Quadrupole moment (field-independent basis, Debye-Ang):
   XX=           -551.7047   YY=           -512.9839   ZZ=           -478.7963
   XY=             16.4181   XZ=             18.8289   YZ=             58.8577

 Normal termination of Gaussian 16 at Sat Sep 11 15:57:15 2021.
