 Gaussian 16, Revision A.03,
 Gaussian 16:  ES64L-G16RevA.03 25-Dec-2016

 -----------------------------------
 #p cam-b3lyp/Def2SVP td=(nstates=5)
 -----------------------------------

 --------------------------------
 TDDFT excited states in gaussian
 --------------------------------
 Symbolic Z-matrix:
 Charge =  0 Multiplicity = 1

                         Standard orientation:
 ---------------------------------------------------------------------
 Center     Atomic      Atomic             Coordinates (Angstroms)
 Number     Number       Type             X           Y           Z
 ---------------------------------------------------------------------
      1         12           0        5.487345   -0.367016    0.128617
      2          6           0        5.494746    2.812100   -1.516186
      3          6           0        6.256136    1.289444    3.011006
      4          6           0        5.932935   -3.189644    1.503697
      5          6           0        5.845417   -1.828634   -3.014807
      6          7           0        5.806813    1.779618    0.565135
      7          6           0        5.721609    2.902651   -0.141058
      8          6           0        5.820936    4.189892    0.731019
      9          6           0        6.610716    3.588415    1.978605
     10          6           0        6.171772    2.138920    1.868069
     11          6           0        8.127218    3.655131    1.829372
     12          6           0        4.413899    4.733170    1.151526
     13          6           0        4.406048    6.154309    1.722189
     14          1           0        3.274756    7.020871    1.427916
     15          7           0        5.535311   -0.868207    2.038946
     16          6           0        5.853347   -0.061802    3.080028
     17          6           0        5.743675   -0.900115    4.293240
     18          6           0        5.521048   -2.306316    3.856056
     19          6           0        5.682425   -2.180106    2.430080
     20          6           0        5.801499   -0.346517    5.683900
     21          6           0        5.222287   -3.566114    4.605578
     22          8           0        5.295633   -4.718163    4.056052
     23          6           0        4.923706   -3.420921    6.041826
     24          7           0        6.059005   -2.233053   -0.612156
     25          6           0        6.119040   -3.303871    0.187049
     26          6           0        6.270906   -4.568559   -0.605063
     27          6           0        6.057603   -4.160792   -2.134109
     28          6           0        5.891866   -2.632127   -1.949767
     29          6           0        7.613990   -5.295990   -0.453471
     30          6           0        4.968387   -4.931090   -2.921935
     31          6           0        3.600829   -4.590634   -2.373327
     32          7           0        5.467815    0.320478   -1.930027
     33          6           0        5.659166   -0.457927   -3.080741
     34          6           0        5.667841    0.465356   -4.230324
     35          6           0        5.496402    1.726675   -3.663289
     36          6           0        5.413829    1.602008   -2.246979
     37          6           0        5.878461    0.101715   -5.589676
     38          6           0        5.388450    3.153209   -3.922524
     39          8           0        5.297494    3.845728   -4.937235
     40          6           0        5.505229    3.924960   -2.534507
     41          6           0        4.392990    4.936629   -2.481987
     42          8           0        3.200695    4.573798   -2.417543
     43          8           0        4.911511    6.157129   -2.276906
     44          6           0        3.858781    7.203785   -2.185121
     45          1           0        6.726509    1.671595    3.919109
     46          1           0        5.982807   -4.194792    1.927522
     47          1           0        5.867842   -2.220924   -4.033168
     48          1           0        6.395835    4.999930    0.281849
     49          1           0        6.269842    4.016759    2.920969
     50          1           0        8.415161    3.987994    0.832270
     51          1           0        8.482312    2.640217    2.009238
     52          1           0        8.567067    4.270100    2.614944
     53          1           0        4.061293    4.181395    2.022890
     54          1           0        3.713172    4.675547    0.317867
     55          1           0        5.345123    6.670210    1.519970
     56          1           0        4.363331    6.085621    2.809230
     57          1           0        6.138482    0.689322    5.688918
     58          1           0        6.585802   -0.889863    6.210543
     59          1           0        4.855013   -0.463618    6.211900
     60          1           0        5.771646   -2.950315    6.539898
     61          1           0        4.647548   -4.414364    6.393476
     62          1           0        4.081401   -2.738666    6.160147
     63          1           0        5.515565   -5.300456   -0.321847
     64          1           0        6.962899   -4.301663   -2.725100
     65          1           0        7.517231   -6.328315   -0.116352
     66          1           0        8.235057   -4.717922    0.230198
     67          1           0        8.231830   -5.306774   -1.351009
     68          1           0        5.103168   -6.005660   -2.803278
     69          1           0        4.973694   -4.712088   -3.989765
     70          1           0        3.504412   -5.265677   -1.523708
     71          1           0        2.831141   -4.790000   -3.119681
     72          1           0        3.569699   -3.572237   -1.985533
     73          1           0        5.144827    0.659305   -6.171778
     74          1           0        5.765304   -0.972473   -5.734312
     75          1           0        6.906057    0.436157   -5.731282
     76          1           0        6.487770    4.395601   -2.519225
     77          1           0        4.093507    7.961553   -2.932734
     78          1           0        3.823058    7.516670   -1.141459
     79          1           0        2.856896    6.908580   -2.498842
     80         12           0       -5.074107   -1.021276    0.120485
     81          6           0       -7.595083    1.532735    0.092008
     82          6           0       -2.769832    1.466392    0.489794
     83          6           0       -2.803758   -3.197287   -0.301309
     84          6           0       -7.403438   -3.142653   -1.369384
     85          7           0       -5.279100    1.176585    0.260615
     86          6           0       -6.291509    2.029723    0.299687
     87          6           0       -5.891617    3.486464    0.656821
     88          6           0       -4.356385    3.436102    0.188410
     89          6           0       -4.099341    1.939694    0.353782
     90          6           0       -4.161686    3.795280   -1.275297
     91          6           0       -6.014033    3.780317    2.193273
     92          6           0       -5.938194    5.260811    2.572916
     93          1           0       -6.753317    5.736209    3.687393
     94          7           0       -3.143079   -0.967294    0.575206
     95          6           0       -2.368481    0.129939    0.706904
     96          6           0       -1.020740   -0.365128    1.027336
     97          6           0       -1.026258   -1.848808    0.911774
     98          6           0       -2.348029   -2.065196    0.358416
     99          6           0        0.092166    0.536927    1.475842
    100          6           0       -0.005458   -2.898186    1.232665
    101          8           0       -0.134331   -4.108276    0.830271
    102          6           0        1.194884   -2.446957    1.951732
    103          7           0       -5.027404   -2.829967   -0.903632
    104          6           0       -3.930447   -3.607283   -0.884225
    105          6           0       -4.221050   -4.975185   -1.454139
    106          6           0       -5.808486   -5.035402   -1.638540
    107          6           0       -6.168019   -3.596371   -1.208046
    108          6           0       -3.541761   -5.299633   -2.784433
    109          6           0       -6.551623   -6.217793   -0.958568
    110          6           0       -6.476998   -6.078094    0.544866
    111          7           0       -7.177744   -0.926996   -0.363141
    112          6           0       -7.949751   -1.917514   -1.008882
    113          6           0       -9.297162   -1.349995   -1.220597
    114          6           0       -9.208195   -0.050192   -0.699928
    115          6           0       -7.892116    0.183354   -0.217362
    116          6           0      -10.383535   -2.004781   -1.866479
    117          6           0       -9.925390    1.181073   -0.458442
    118          8           0      -11.095306    1.542679   -0.577882
    119          6           0       -8.877709    2.304346   -0.049775
    120          6           0       -9.407241    3.012893    1.166799
    121          8           0       -9.525476    2.409864    2.247997
    122          8           0       -9.480588    4.331904    0.911469
    123          6           0       -9.990117    5.078856    2.092260
    124          1           0       -1.951665    2.178456    0.378185
    125          1           0       -2.089248   -4.020521   -0.373691
    126          1           0       -8.213890   -3.774727   -1.738625
    127          1           0       -6.423833    4.251923    0.104915
    128          1           0       -3.720062    4.008602    0.858255
    129          1           0       -5.103660    3.910702   -1.790560
    130          1           0       -3.592764    2.981107   -1.704811
    131          1           0       -3.530449    4.684053   -1.364602
    132          1           0       -5.114521    3.409712    2.701481
    133          1           0       -6.911712    3.350263    2.593095
    134          1           0       -6.058324    5.916382    1.701858
    135          1           0       -4.929037    5.475519    2.932813
    136          1           0       -0.152466    1.592693    1.305803
    137          1           0        0.944662    0.345816    0.815090
    138          1           0        0.396085    0.349735    2.507961
    139          1           0        1.698048   -1.679407    1.368498
    140          1           0        1.763471   -3.353302    2.168826
    141          1           0        0.883709   -1.975432    2.890586
    142          1           0       -3.917533   -5.753697   -0.765008
    143          1           0       -6.092518   -5.126932   -2.697207
    144          1           0       -2.916843   -6.211746   -2.744386
    145          1           0       -2.948715   -4.445138   -3.082216
    146          1           0       -4.216432   -5.418742   -3.630510
    147          1           0       -6.064783   -7.164083   -1.206891
    148          1           0       -7.591447   -6.302777   -1.256114
    149          1           0       -5.499281   -6.506849    0.784311
    150          1           0       -7.280211   -6.636155    1.021787
    151          1           0       -6.455850   -5.023012    0.841518
    152          1           0      -11.265048   -1.805839   -1.271618
    153          1           0      -10.202114   -3.073051   -1.964833
    154          1           0      -10.370929   -1.495504   -2.833822
    155          1           0       -8.770276    2.977461   -0.901208
    156          1           0      -10.862530    5.648666    1.757741
    157          1           0       -9.127863    5.656405    2.475254
    158          1           0      -10.413747    4.501695    2.905822
 ---------------------------------------------------------------------

 SCF Done:  E(RCAM-B3LYP) =  -4069.81232698     A.U. after   19 cycles

 Excitation energies and oscillator strengths:

 Excited State   1:      Singlet-A      1.6634 eV  745.35 nm  f=0.3232  <S**2>=0.000
     309 -> 315        0.11323
     310 -> 316       -0.12759
     311 -> 313        0.45386
     312 -> 314        0.51542
 This state for optimization and/or second-order correction.
 Total Energy, E(TD-HF/TD-DFT) =  -4069.75119693
 Copying the excited state density for this state as the 1-particle RhoCI density.

 Excited State   2:      Singlet-A      1.6834 eV  736.52 nm  f=0.4632  <S**2>=0.000
     309 -> 315        0.13368
     310 -> 316        0.11560
     311 -> 313        0.51429
     312 -> 314       -0.45293

 Excited State   3:      Singlet-A      2.1828 eV  567.99 nm  f=0.0223  <S**2>=0.000
     309 -> 313       -0.27640
     310 -> 314        0.58190
     311 -> 315        0.11474
     312 -> 316        0.24426

 Excited State   4:      Singlet-A      2.1970 eV  564.35 nm  f=0.1563  <S**2>=0.000
     309 -> 313        0.57804
     310 -> 314        0.27301
     311 -> 315       -0.25447
     312 -> 316        0.11917

 Excited State   5:      Singlet-A      2.3941 eV  517.87 nm  f=0.0000  <S**2>=0.000
     312 -> 313        0.70653

 The electronic state is 1-A.
 Alpha  occ. eigenvalues --  -46.88115 -46.87477 -19.26648 -19.26231 -19.19406
 Alpha  occ. eigenvalues --  -19.19036 -19.19020 -19.18530 -19.18443 -19.17888
 Alpha  occ. eigenvalues --  -14.42742 -14.42304 -14.41687 -14.41180 -14.39701
 Alpha  occ. eigenvalues --  -14.39166 -14.38873 -14.38421 -10.39453 -10.38961
 Alpha  occ. eigenvalues --  -10.35648 -10.35195 -10.34667 -10.34067 -10.32049
 Alpha  occ. eigenvalues --  -10.31688 -10.31659 -10.31211 -10.31104 -10.30844
 Alpha  occ. eigenvalues --  -10.30827 -10.30769 -10.30409 -10.30224 -10.30174
 Alpha  occ. eigenvalues --  -10.30122 -10.29960 -10.29876 -10.29731 -10.29513
 Alpha  occ. eigenvalues --  -10.29245 -10.29227 -10.29090 -10.28956 -10.28652
 Alpha  occ. eigenvalues --  -10.28549 -10.28526 -10.28421 -10.28217 -10.28055
 Alpha  occ. eigenvalues --  -10.27995 -10.27903 -10.27845 -10.27816 -10.27734
 Alpha  occ. eigenvalues --  -10.27683 -10.27550 -10.27500 -10.27460 -10.27441
 Alpha  occ. eigenvalues --  -10.27376 -10.27303 -10.27282 -10.27262 -10.27239
 Alpha  occ. eigenvalues --  -10.27144 -10.26891 -10.26598 -10.26552 -10.26493
 Alpha  occ. eigenvalues --  -10.26234 -10.26210 -10.26079 -10.26043 -10.26017
 Alpha  occ. eigenvalues --  -10.25758 -10.25701 -10.25692 -10.25491 -10.25279
 Alpha  occ. eigenvalues --  -10.25100 -10.25022 -10.24693 -10.24616 -10.24514
 Alpha  occ. eigenvalues --  -10.24401  -3.16849  -3.16227  -1.91733  -1.91315
 Alpha  occ. eigenvalues --   -1.91158  -1.91109  -1.90698  -1.90535  -1.16999
 Alpha  occ. eigenvalues --   -1.16523  -1.08906  -1.08501  -1.07413  -1.07021
 Alpha  occ. eigenvalues --   -1.06820  -1.06774  -1.04870  -1.04302  -1.04008
 Alpha  occ. eigenvalues --   -1.03497  -1.03479  -1.02860  -1.02666  -1.01930
 Alpha  occ. eigenvalues --   -0.92250  -0.91809  -0.89663  -0.89499  -0.89334
 Alpha  occ. eigenvalues --   -0.88942  -0.88396  -0.88116  -0.88068  -0.87939
 Alpha  occ. eigenvalues --   -0.87623  -0.87520  -0.87494  -0.86930  -0.85282
 Alpha  occ. eigenvalues --   -0.84812  -0.84021  -0.83734  -0.83135  -0.82905
 Alpha  occ. eigenvalues --   -0.82745  -0.82461  -0.81875  -0.81445  -0.80862
 Alpha  occ. eigenvalues --   -0.80273  -0.79044  -0.78445  -0.77452  -0.77172
 Alpha  occ. eigenvalues --   -0.76966  -0.76735  -0.76197  -0.75647  -0.75032
 Alpha  occ. eigenvalues --   -0.74650  -0.73007  -0.72518  -0.71907  -0.71395
 Alpha  occ. eigenvalues --   -0.69911  -0.69616  -0.69149  -0.68641  -0.67895
 Alpha  occ. eigenvalues --   -0.67536  -0.67426  -0.67028  -0.65590  -0.65115
 Alpha  occ. eigenvalues --   -0.65090  -0.64862  -0.64596  -0.64482  -0.64389
 Alpha  occ. eigenvalues --   -0.64046  -0.62580  -0.62130  -0.60661  -0.60157
 Alpha  occ. eigenvalues --   -0.60104  -0.59597  -0.59225  -0.58816  -0.58744
 Alpha  occ. eigenvalues --   -0.58254  -0.57885  -0.57499  -0.57399  -0.57073
 Alpha  occ. eigenvalues --   -0.56563  -0.56296  -0.56024  -0.55766  -0.55736
 Alpha  occ. eigenvalues --   -0.55509  -0.55277  -0.55101  -0.54702  -0.54348
 Alpha  occ. eigenvalues --   -0.54215  -0.53716  -0.53524  -0.53501  -0.53185
 Alpha  occ. eigenvalues --   -0.53054  -0.53013  -0.52962  -0.52735  -0.52484
 Alpha  occ. eigenvalues --   -0.52409  -0.52266  -0.52135  -0.51921  -0.51726
 Alpha  occ. eigenvalues --   -0.51479  -0.51416  -0.51036  -0.50790  -0.50280
 Alpha  occ. eigenvalues --   -0.50214  -0.50059  -0.49792  -0.49775  -0.49698
 Alpha  occ. eigenvalues --   -0.49481  -0.49364  -0.49286  -0.49011  -0.48911
 Alpha  occ. eigenvalues --   -0.48873  -0.48681  -0.48603  -0.48378  -0.48226
 Alpha  occ. eigenvalues --   -0.48145  -0.47921  -0.47525  -0.47406  -0.47013
 Alpha  occ. eigenvalues --   -0.46938  -0.46854  -0.46589  -0.46534  -0.46367
 Alpha  occ. eigenvalues --   -0.46362  -0.46101  -0.46088  -0.45931  -0.45667
 Alpha  occ. eigenvalues --   -0.45328  -0.45055  -0.44839  -0.44726  -0.44381
 Alpha  occ. eigenvalues --   -0.44353  -0.44306  -0.44275  -0.44229  -0.43933
 Alpha  occ. eigenvalues --   -0.43915  -0.43762  -0.43736  -0.43619  -0.43408
 Alpha  occ. eigenvalues --   -0.43262  -0.43209  -0.43017  -0.42788  -0.42735
 Alpha  occ. eigenvalues --   -0.42735  -0.42393  -0.42136  -0.41947  -0.41812
 Alpha  occ. eigenvalues --   -0.41782  -0.41498  -0.41386  -0.41288  -0.41123
 Alpha  occ. eigenvalues --   -0.41056  -0.40794  -0.40662  -0.40586  -0.40549
 Alpha  occ. eigenvalues --   -0.40522  -0.40333  -0.40069  -0.39403  -0.39287
 Alpha  occ. eigenvalues --   -0.38611  -0.38197  -0.38089  -0.37580  -0.37497
 Alpha  occ. eigenvalues --   -0.37472  -0.37100  -0.37018  -0.37015  -0.36641
 Alpha  occ. eigenvalues --   -0.36415  -0.36060  -0.34551  -0.34137  -0.34075
 Alpha  occ. eigenvalues --   -0.33726  -0.33447  -0.32991  -0.31542  -0.31285
 Alpha  occ. eigenvalues --   -0.31078  -0.30788  -0.30305  -0.29796  -0.29719
 Alpha  occ. eigenvalues --   -0.29592  -0.29144  -0.29034  -0.24351  -0.23850
 Alpha  occ. eigenvalues --   -0.21379  -0.20932
 Alpha virt. eigenvalues --   -0.09033  -0.08607  -0.02004  -0.01507  -0.00316
 Alpha virt. eigenvalues --    0.00145   0.01897   0.02017   0.02433   0.03378
 Alpha virt. eigenvalues --    0.04423   0.04736   0.04914   0.05300   0.05748

 Mulliken charges:
               1
     1  Mg   0.825960
     2  C   -0.003441
     3  C   -0.094493
     4  C   -0.044422
     5  C   -0.062289
     6  N   -0.256404
     7  C   -0.054009
     8  C   -0.013248
     9  C   -0.086725
    10  C    0.045120
    11  C    0.104662
    12  C    0.053383
    13  C   -0.071564
    14  H    0.034542
    15  N   -0.434386
    16  C    0.166795
    17  C   -0.178783
    18  C   -0.004400
    19  C    0.146505
    20  C    0.110425
    21  C    0.011897
    22  O   -0.247439
    23  C    0.062796
    24  N   -0.340020
    25  C    0.041826
    26  C   -0.028334
    27  C   -0.024365
    28  C    0.075510
    29  C    0.075889
    30  C    0.034387
    31  C   -0.003178
    32  N   -0.310818
    33  C    0.080529
    34  C   -0.169069
    35  C    0.008599
    36  C    0.081991
    37  C    0.127253
    38  C    0.046107
    39  O   -0.187966
    40  C   -0.005701
    41  C    0.213443
    42  O   -0.259547
    43  O   -0.304124
    44  C    0.157713
    45  H   -0.017419
    46  H   -0.015294
    47  H   -0.040217
    48  H    0.001505
    49  H   -0.004306
    50  H    0.025786
    51  H    0.017140
    52  H    0.017158
    53  H    0.009434
    54  H    0.041689
    55  H    0.019345
    56  H    0.018348
    57  H    0.005856
    58  H    0.027789
    59  H    0.038535
    60  H    0.037730
    61  H    0.037432
    62  H    0.029787
    63  H    0.019815
    64  H    0.009384
    65  H    0.024291
    66  H    0.012049
    67  H    0.004914
    68  H    0.006943
    69  H    0.003609
    70  H    0.015624
    71  H    0.019472
    72  H    0.026272
    73  H    0.047788
    74  H    0.010161
    75  H    0.046458
    76  H    0.035794
    77  H    0.044024
    78  H    0.046246
    79  H    0.052421
    80  Mg   0.837720
    81  C   -0.016920
    82  C   -0.088033
    83  C   -0.045496
    84  C   -0.064991
    85  N   -0.254537
    86  C   -0.049810
    87  C   -0.015149
    88  C   -0.090173
    89  C    0.044959
    90  C    0.113973
    91  C    0.062696
    92  C   -0.077336
    93  H    0.033679
    94  N   -0.423721
    95  C    0.162598
    96  C   -0.174979
    97  C   -0.008071
    98  C    0.152777
    99  C    0.100611
   100  C    0.014356
   101  O   -0.252779
   102  C    0.054722
   103  N   -0.349989
   104  C    0.037759
   105  C   -0.019883
   106  C   -0.034688
   107  C    0.088764
   108  C    0.073689
   109  C    0.034866
   110  C   -0.007595
   111  N   -0.323975
   112  C    0.078177
   113  C   -0.163498
   114  C    0.002136
   115  C    0.095984
   116  C    0.131545
   117  C    0.042087
   118  O   -0.188558
   119  C    0.001008
   120  C    0.211184
   121  O   -0.251392
   122  O   -0.305489
   123  C    0.152228
   124  H   -0.014921
   125  H   -0.015958
   126  H   -0.040965
   127  H   -0.000776
   128  H   -0.004702
   129  H    0.021667
   130  H    0.017117
   131  H    0.018047
   132  H    0.013354
   133  H    0.037249
   134  H    0.021006
   135  H    0.019055
   136  H    0.011940
   137  H    0.027884
   138  H    0.038073
   139  H    0.039893
   140  H    0.045916
   141  H    0.031697
   142  H    0.014145
   143  H    0.012192
   144  H    0.024192
   145  H    0.012108
   146  H    0.005500
   147  H    0.005797
   148  H    0.003415
   149  H    0.010843
   150  H    0.017515
   151  H    0.030265
   152  H    0.045520
   153  H    0.008142
   154  H    0.046807
   155  H    0.035160
   156  H    0.043643
   157  H    0.049326
   158  H    0.053231
 Sum of Mulliken charges =  -0.00000

 Dipole moment (field-independent basis, Debye):
    X=              6.2421    Y=              2.2867    Z=              3.3828  Tot=              7.4590
 Quadrupole moment (field-independent basis, Debye-Ang):
   XX=           -554.9203   YY=           -480.4227   ZZ=           -504.7221
   XY=             17.0632   XZ=             29.0167   YZ=             49.3308

 Normal termination of Gaussian 16 at Sat Sep 11 01:28:53 2021.
