 Gaussian 16, Revision A.03,
 Gaussian 16:  ES64L-G16RevA.03 25-Dec-2016

 -----------------------------------
 #p cam-b3lyp/Def2SVP td=(nstates=5)
 -----------------------------------

 --------------------------------
 TDDFT excited states in gaussian
 --------------------------------
 Symbolic Z-matrix:
 Charge =  0 Multiplicity = 1

                         Standard orientation:
 ---------------------------------------------------------------------
 Center     Atomic      Atomic             Coordinates (Angstroms)
 Number     Number       Type             X           Y           Z
 ---------------------------------------------------------------------
      1         12           0        7.799295   -0.955645    0.090770
      2          6           0        8.395521    2.416453   -0.951193
      3          6           0        8.832645   -0.018710    3.204835
      4          6           0        7.715266   -4.015226    0.920543
      5          6           0        7.911488   -1.858897   -3.273336
      6          7           0        8.498910    0.982359    0.900291
      7          6           0        8.624156    2.212182    0.411394
      8          6           0        8.948144    3.279448    1.499213
      9          6           0        9.606001    2.328441    2.596850
     10          6           0        8.912611    1.026267    2.237023
     11          6           0       11.110628    2.147900    2.423632
     12          6           0        7.659533    3.980463    2.046744
     13          6           0        7.904761    5.251437    2.865182
     14          1           0        6.951542    6.345953    2.761462
     15          7           0        7.740566   -1.797523    1.877006
     16          6           0        8.191190   -1.265187    3.038403
     17          6           0        7.921873   -2.277366    4.082262
     18          6           0        7.451639   -3.516889    3.403620
     19          6           0        7.644479   -3.163509    2.020395
     20          6           0        8.068037   -2.006512    5.548217
     21          6           0        6.923674   -4.817890    3.920131
     22          8           0        6.791438   -5.844364    3.169506
     23          6           0        6.644993   -4.886158    5.366063
     24          7           0        8.029273   -2.726854   -0.989768
     25          6           0        7.888000   -3.918666   -0.399337
     26          6           0        7.814494   -5.023831   -1.410845
     27          6           0        7.690688   -4.312191   -2.834921
     28          6           0        7.803182   -2.838393   -2.372823
     29          6           0        9.002327   -5.995830   -1.427611
     30          6           0        6.486208   -4.717403   -3.721177
     31          6           0        5.198664   -4.242924   -3.085411
     32          7           0        7.920913    0.088299   -1.808292
     33          6           0        7.977169   -0.488413   -3.085364
     34          6           0        8.162055    0.612420   -4.048719
     35          6           0        8.217482    1.758936   -3.258610
     36          6           0        8.102496    1.394662   -1.886613
     37          6           0        8.314051    0.471276   -5.456345
     38          6           0        8.371807    3.204621   -3.252572
     39          8           0        8.415841    4.075646   -4.122554
     40          6           0        8.615491    3.676250   -1.751236
     41          6           0        7.704555    4.844296   -1.488226
     42          8           0        6.465786    4.695867   -1.460205
     43          8           0        8.433970    5.893561   -1.078912
     44          6           0        7.587585    7.077574   -0.772482
     45          1           0        9.357274    0.100446    4.154839
     46          1           0        7.578863   -5.073197    1.154059
     47          1           0        7.870523   -2.056201   -4.346111
     48          1           0        9.663814    4.041267    1.189578
     49          1           0        9.340930    2.631650    3.609532
     50          1           0       11.461982    2.600017    1.496237
     51          1           0       11.274546    1.070230    2.407767
     52          1           0       11.648384    2.519965    3.296078
     53          1           0        7.205922    3.351301    2.812546
     54          1           0        6.966575    4.202781    1.234519
     55          1           0        8.923329    5.618453    2.735846
     56          1           0        7.841715    4.994238    3.922572
     57          1           0        8.587051   -1.066629    5.732037
     58          1           0        8.736738   -2.768714    5.947712
     59          1           0        7.111854   -2.046174    6.070207
     60          1           0        7.560195   -4.674423    5.919346
     61          1           0        6.190656   -5.861099    5.539030
     62          1           0        5.939318   -4.097022    5.627284
     63          1           0        6.936842   -5.647418   -1.245639
     64          1           0        8.560126   -4.503003   -3.464479
     65          1           0        8.717487   -7.037913   -1.280529
     66          1           0        9.712418   -5.673369   -0.666638
     67          1           0        9.615066   -5.953312   -2.327700
     68          1           0        6.423142   -5.802008   -3.802413
     69          1           0        6.539544   -4.311691   -4.731526
     70          1           0        4.974835   -5.033272   -2.369812
     71          1           0        4.411518   -4.161182   -3.835699
     72          1           0        5.349482   -3.323696   -2.519055
     73          1           0        7.698197    1.248275   -5.909076
     74          1           0        8.009308   -0.520372   -5.790065
     75          1           0        9.386318    0.635923   -5.561179
     76          1           0        9.666885    3.951999   -1.676029
     77          1           0        7.961611    7.904432   -1.376341
     78          1           0        7.600887    7.195890    0.311136
     79          1           0        6.551310    7.029373   -1.108860
     80         12           0       -7.968716    0.938702    0.281376
     81          6           0       -8.192654   -2.583845   -0.367116
     82          6           0       -7.078997    1.332400   -2.987872
     83          6           0       -7.326157    3.978382    0.925525
     84          6           0       -7.750503    0.159789    3.671271
     85          7           0       -7.704911   -0.513991   -1.365541
     86          6           0       -7.877603   -1.819256   -1.509743
     87          6           0       -7.781730   -2.322740   -2.974960
     88          6           0       -6.881569   -1.137496   -3.578099
     89          6           0       -7.266664   -0.021042   -2.609635
     90          6           0       -5.388659   -1.389378   -3.447338
     91          6           0       -9.183819   -2.392815   -3.675858
     92          6           0       -9.204386   -3.164332   -4.997257
     93          1           0      -10.392076   -3.946998   -5.327860
     94          7           0       -7.780427    2.496846   -0.933244
     95          6           0       -7.434041    2.474797   -2.237394
     96          6           0       -7.416325    3.879888   -2.672779
     97          6           0       -7.619590    4.743737   -1.478137
     98          6           0       -7.561223    3.752230   -0.422865
     99          6           0       -7.299526    4.283823   -4.113828
    100          6           0       -7.819053    6.219807   -1.311902
    101          8           0       -7.737558    6.785282   -0.164545
    102          6           0       -8.019922    6.997025   -2.543602
    103          7           0       -7.380602    1.918060    2.018432
    104          6           0       -7.220155    3.252885    2.038954
    105          6           0       -7.066262    3.762125    3.452240
    106          6           0       -7.400052    2.515546    4.396808
    107          6           0       -7.611438    1.430330    3.318377
    108          6           0       -5.689084    4.318885    3.812470
    109          6           0       -8.507349    2.719908    5.466774
    110          6           0       -9.849776    2.893444    4.793603
    111          7           0       -8.152866   -0.848323    1.481663
    112          6           0       -7.999399   -0.955305    2.881333
    113          6           0       -8.102773   -2.388996    3.222326
    114          6           0       -8.287700   -3.023975    1.984948
    115          6           0       -8.278583   -2.056495    0.944085
    116          6           0       -7.976814   -2.945063    4.526569
    117          6           0       -8.477909   -4.293801    1.321577
    118          8           0       -8.654684   -5.452079    1.696918
    119          6           0       -8.298336   -4.078515   -0.242958
    120          6           0       -9.443660   -4.760229   -0.940115
    121          8           0      -10.608777   -4.352800   -0.788067
    122          8           0       -8.955070   -5.637281   -1.835895
    123          6           0      -10.052999   -6.330710   -2.560825
    124          1           0       -6.573546    1.542251   -3.930941
    125          1           0       -7.208732    5.025354    1.214552
    126          1           0       -7.790862   -0.154749    4.716318
    127          1           0       -7.275534   -3.272870   -3.096607
    128          1           0       -7.186471   -0.885993   -4.590591
    129          1           0       -5.178795   -2.272432   -2.862247
    130          1           0       -4.983200   -0.510133   -2.964047
    131          1           0       -4.925098   -1.429990   -4.437186
    132          1           0       -9.453412   -1.392417   -4.038170
    133          1           0       -9.922600   -2.795715   -3.010648
    134          1           0       -8.297192   -3.764343   -5.138395
    135          1           0       -9.180587   -2.445015   -5.819473
    136          1           0       -6.997961    3.438968   -4.745234
    137          1           0       -6.461966    4.986467   -4.182070
    138          1           0       -8.201653    4.771796   -4.488933
    139          1           0       -7.163128    6.862172   -3.199475
    140          1           0       -8.233588    8.015858   -2.214674
    141          1           0       -8.889230    6.593013   -3.074357
    142          1           0       -7.773404    4.556786    3.656117
    143          1           0       -6.525129    2.205799    4.987065
    144          1           0       -5.722234    5.362544    4.178193
    145          1           0       -5.051116    4.241022    2.942140
    146          1           0       -5.138246    3.743877    4.554868
    147          1           0       -8.322926    3.636585    6.032327
    148          1           0       -8.571501    1.907243    6.182636
    149          1           0       -9.857896    3.955133    4.529323
    150          1           0      -10.657411    2.651775    5.481613
    151          1           0       -9.898846    2.320983    3.860048
    152          1           0       -8.760619   -3.684027    4.627002
    153          1           0       -8.051607   -2.178138    5.294681
    154          1           0       -6.969577   -3.365418    4.462929
    155          1           0       -7.335122   -4.506043   -0.524052
    156          1           0       -9.894674   -7.405407   -2.428067
    157          1           0      -10.020687   -5.940834   -3.595573
    158          1           0      -11.059170   -6.215902   -2.174973
 ---------------------------------------------------------------------

 SCF Done:  E(RCAM-B3LYP) =  -4069.81182748     A.U. after   19 cycles

 Excitation energies and oscillator strengths:

 Excited State   1:      Singlet-A      1.6707 eV  742.09 nm  f=0.0643  <S**2>=0.000
     309 -> 315        0.10184
     310 -> 316        0.13943
     311 -> 313        0.40325
     312 -> 314        0.55534
 This state for optimization and/or second-order correction.
 Total Energy, E(TD-HF/TD-DFT) =  -4069.75042904
 Copying the excited state density for this state as the 1-particle RhoCI density.

 Excited State   2:      Singlet-A      1.6847 eV  735.92 nm  f=0.6902  <S**2>=0.000
     309 -> 315        0.14306
     310 -> 316       -0.10340
     311 -> 313        0.55459
     312 -> 314       -0.40280

 Excited State   3:      Singlet-A      2.1860 eV  567.16 nm  f=0.0671  <S**2>=0.000
     309 -> 313        0.12420
     310 -> 314        0.63054
     312 -> 316       -0.26773

 Excited State   4:      Singlet-A      2.1931 eV  565.35 nm  f=0.1277  <S**2>=0.000
     309 -> 313        0.62867
     310 -> 314       -0.12325
     311 -> 315       -0.27324

 Excited State   5:      Singlet-A      2.7648 eV  448.44 nm  f=0.0000  <S**2>=0.000
     312 -> 313        0.70710

 The electronic state is 1-A.
 Alpha  occ. eigenvalues --  -46.87836 -46.87589 -19.26326 -19.26294 -19.19104
 Alpha  occ. eigenvalues --  -19.19065 -19.18838 -19.18637 -19.18215 -19.17986
 Alpha  occ. eigenvalues --  -14.42488 -14.42423 -14.41489 -14.41290 -14.39441
 Alpha  occ. eigenvalues --  -14.39278 -14.38628 -14.38530 -10.39124 -10.39033
 Alpha  occ. eigenvalues --  -10.35470 -10.35313 -10.34434 -10.34164 -10.31717
 Alpha  occ. eigenvalues --  -10.31706 -10.31446 -10.31235 -10.30946 -10.30943
 Alpha  occ. eigenvalues --  -10.30612 -10.30548 -10.30329 -10.30290 -10.30245
 Alpha  occ. eigenvalues --  -10.30071 -10.29963 -10.29831 -10.29670 -10.29362
 Alpha  occ. eigenvalues --  -10.29330 -10.29291 -10.28782 -10.28642 -10.28590
 Alpha  occ. eigenvalues --  -10.28565 -10.28403 -10.28331 -10.28150 -10.28056
 Alpha  occ. eigenvalues --  -10.27929 -10.27833 -10.27765 -10.27621 -10.27591
 Alpha  occ. eigenvalues --  -10.27546 -10.27507 -10.27489 -10.27468 -10.27442
 Alpha  occ. eigenvalues --  -10.27412 -10.27392 -10.27368 -10.27322 -10.27200
 Alpha  occ. eigenvalues --  -10.26985 -10.26736 -10.26624 -10.26420 -10.26329
 Alpha  occ. eigenvalues --  -10.26265 -10.26240 -10.26101 -10.26062 -10.25923
 Alpha  occ. eigenvalues --  -10.25901 -10.25869 -10.25801 -10.25468 -10.25343
 Alpha  occ. eigenvalues --  -10.24874 -10.24826 -10.24803 -10.24752 -10.24694
 Alpha  occ. eigenvalues --  -10.24620  -3.16579  -3.16339  -1.91461  -1.91221
 Alpha  occ. eigenvalues --   -1.91047  -1.90890  -1.90809  -1.90646  -1.16675
 Alpha  occ. eigenvalues --   -1.16588  -1.08673  -1.08595  -1.07238  -1.06889
 Alpha  occ. eigenvalues --   -1.06888  -1.06687  -1.04619  -1.04421  -1.03800
 Alpha  occ. eigenvalues --   -1.03592  -1.03274  -1.02969  -1.02451  -1.02041
 Alpha  occ. eigenvalues --   -0.92012  -0.91917  -0.89564  -0.89434  -0.89222
 Alpha  occ. eigenvalues --   -0.89073  -0.88329  -0.88162  -0.87916  -0.87730
 Alpha  occ. eigenvalues --   -0.87711  -0.87612  -0.87304  -0.87039  -0.85016
 Alpha  occ. eigenvalues --   -0.84926  -0.83982  -0.83822  -0.82995  -0.82856
 Alpha  occ. eigenvalues --   -0.82682  -0.82578  -0.81626  -0.81534  -0.80634
 Alpha  occ. eigenvalues --   -0.80375  -0.78833  -0.78560  -0.77258  -0.77074
 Alpha  occ. eigenvalues --   -0.76972  -0.76834  -0.75961  -0.75765  -0.74938
 Alpha  occ. eigenvalues --   -0.74742  -0.72816  -0.72631  -0.71710  -0.71510
 Alpha  occ. eigenvalues --   -0.69956  -0.69706  -0.68908  -0.68754  -0.67678
 Alpha  occ. eigenvalues --   -0.67533  -0.67250  -0.67127  -0.65323  -0.65200
 Alpha  occ. eigenvalues --   -0.64894  -0.64703  -0.64660  -0.64587  -0.64312
 Alpha  occ. eigenvalues --   -0.64145  -0.62339  -0.62218  -0.60476  -0.60266
 Alpha  occ. eigenvalues --   -0.59840  -0.59721  -0.59027  -0.58925  -0.58544
 Alpha  occ. eigenvalues --   -0.58358  -0.57627  -0.57491  -0.57348  -0.57171
 Alpha  occ. eigenvalues --   -0.56349  -0.56134  -0.56017  -0.55823  -0.55553
 Alpha  occ. eigenvalues --   -0.55383  -0.55380  -0.55191  -0.54567  -0.54432
 Alpha  occ. eigenvalues --   -0.53929  -0.53836  -0.53336  -0.53255  -0.53160
 Alpha  occ. eigenvalues --   -0.53070  -0.52955  -0.52835  -0.52784  -0.52585
 Alpha  occ. eigenvalues --   -0.52489  -0.52354  -0.51965  -0.51828  -0.51649
 Alpha  occ. eigenvalues --   -0.51583  -0.51238  -0.51137  -0.50597  -0.50393
 Alpha  occ. eigenvalues --   -0.50073  -0.49948  -0.49904  -0.49803  -0.49547
 Alpha  occ. eigenvalues --   -0.49412  -0.49253  -0.49132  -0.49128  -0.49032
 Alpha  occ. eigenvalues --   -0.48633  -0.48500  -0.48489  -0.48476  -0.48317
 Alpha  occ. eigenvalues --   -0.48263  -0.47730  -0.47522  -0.47332  -0.47045
 Alpha  occ. eigenvalues --   -0.46838  -0.46643  -0.46589  -0.46480  -0.46400
 Alpha  occ. eigenvalues --   -0.46205  -0.46202  -0.46024  -0.45866  -0.45761
 Alpha  occ. eigenvalues --   -0.45241  -0.45146  -0.44620  -0.44539  -0.44449
 Alpha  occ. eigenvalues --   -0.44403  -0.44185  -0.44123  -0.44055  -0.44055
 Alpha  occ. eigenvalues --   -0.44014  -0.43865  -0.43537  -0.43493  -0.43422
 Alpha  occ. eigenvalues --   -0.43316  -0.43067  -0.42869  -0.42837  -0.42740
 Alpha  occ. eigenvalues --   -0.42701  -0.42493  -0.42054  -0.41905  -0.41744
 Alpha  occ. eigenvalues --   -0.41602  -0.41568  -0.41390  -0.41178  -0.40917
 Alpha  occ. eigenvalues --   -0.40906  -0.40848  -0.40650  -0.40626  -0.40613
 Alpha  occ. eigenvalues --   -0.40434  -0.40264  -0.40155  -0.39491  -0.39376
 Alpha  occ. eigenvalues --   -0.38510  -0.38291  -0.37782  -0.37585  -0.37362
 Alpha  occ. eigenvalues --   -0.37299  -0.37203  -0.37126  -0.36756  -0.36714
 Alpha  occ. eigenvalues --   -0.36234  -0.36155  -0.34326  -0.34184  -0.33815
 Alpha  occ. eigenvalues --   -0.33802  -0.33226  -0.33105  -0.31368  -0.31197
 Alpha  occ. eigenvalues --   -0.31073  -0.30902  -0.30074  -0.29891  -0.29486
 Alpha  occ. eigenvalues --   -0.29364  -0.29252  -0.29142  -0.24120  -0.23965
 Alpha  occ. eigenvalues --   -0.21167  -0.21045
 Alpha virt. eigenvalues --   -0.08813  -0.08719  -0.01788  -0.01613  -0.00090
 Alpha virt. eigenvalues --    0.00048   0.02158   0.02273   0.03075   0.03291
 Alpha virt. eigenvalues --    0.04682   0.04803   0.05055   0.05224   0.06147

 Mulliken charges:
               1
     1  Mg   0.838651
     2  C   -0.002978
     3  C   -0.094068
     4  C   -0.045849
     5  C   -0.064035
     6  N   -0.256806
     7  C   -0.052475
     8  C   -0.014024
     9  C   -0.087009
    10  C    0.046358
    11  C    0.104785
    12  C    0.053454
    13  C   -0.071893
    14  H    0.036258
    15  N   -0.433194
    16  C    0.168479
    17  C   -0.177053
    18  C   -0.003874
    19  C    0.148739
    20  C    0.110151
    21  C    0.012399
    22  O   -0.249395
    23  C    0.062416
    24  N   -0.341123
    25  C    0.041293
    26  C   -0.028273
    27  C   -0.023898
    28  C    0.074719
    29  C    0.076127
    30  C    0.035173
    31  C   -0.004469
    32  N   -0.310392
    33  C    0.080244
    34  C   -0.170019
    35  C    0.008293
    36  C    0.082842
    37  C    0.127394
    38  C    0.045941
    39  O   -0.188670
    40  C   -0.005247
    41  C    0.212852
    42  O   -0.257283
    43  O   -0.304750
    44  C    0.157705
    45  H   -0.017457
    46  H   -0.016666
    47  H   -0.041712
    48  H    0.000963
    49  H   -0.003938
    50  H    0.025486
    51  H    0.016470
    52  H    0.016777
    53  H    0.011207
    54  H    0.044042
    55  H    0.017910
    56  H    0.018024
    57  H    0.005928
    58  H    0.027000
    59  H    0.039705
    60  H    0.037376
    61  H    0.036011
    62  H    0.031545
    63  H    0.016659
    64  H    0.009467
    65  H    0.023384
    66  H    0.012638
    67  H    0.004755
    68  H    0.006465
    69  H    0.004464
    70  H    0.009070
    71  H    0.017518
    72  H    0.028958
    73  H    0.047186
    74  H    0.008890
    75  H    0.046071
    76  H    0.035209
    77  H    0.042947
    78  H    0.046548
    79  H    0.053596
    80  Mg   0.837940
    81  C   -0.016826
    82  C   -0.087551
    83  C   -0.045367
    84  C   -0.064961
    85  N   -0.254566
    86  C   -0.049811
    87  C   -0.015126
    88  C   -0.090505
    89  C    0.045713
    90  C    0.114236
    91  C    0.062533
    92  C   -0.077835
    93  H    0.034648
    94  N   -0.423591
    95  C    0.162934
    96  C   -0.174147
    97  C   -0.007701
    98  C    0.152252
    99  C    0.099145
   100  C    0.015721
   101  O   -0.253267
   102  C    0.061166
   103  N   -0.350033
   104  C    0.037643
   105  C   -0.019857
   106  C   -0.034707
   107  C    0.088850
   108  C    0.073644
   109  C    0.034816
   110  C   -0.007625
   111  N   -0.324041
   112  C    0.078364
   113  C   -0.163330
   114  C    0.002210
   115  C    0.096110
   116  C    0.131507
   117  C    0.042278
   118  O   -0.188140
   119  C    0.000950
   120  C    0.211224
   121  O   -0.251113
   122  O   -0.305588
   123  C    0.152088
   124  H   -0.019089
   125  H   -0.015580
   126  H   -0.040815
   127  H   -0.000689
   128  H   -0.004299
   129  H    0.022414
   130  H    0.015019
   131  H    0.016545
   132  H    0.013903
   133  H    0.037550
   134  H    0.020794
   135  H    0.019657
   136  H    0.009011
   137  H    0.026909
   138  H    0.039703
   139  H    0.038732
   140  H    0.036302
   141  H    0.033753
   142  H    0.014257
   143  H    0.012131
   144  H    0.024918
   145  H    0.012242
   146  H    0.005345
   147  H    0.005986
   148  H    0.003405
   149  H    0.010898
   150  H    0.017719
   151  H    0.030256
   152  H    0.045812
   153  H    0.008228
   154  H    0.046824
   155  H    0.035102
   156  H    0.043793
   157  H    0.049510
   158  H    0.053473
 Sum of Mulliken charges =  -0.00000

 Dipole moment (field-independent basis, Debye):
    X=              4.2332    Y=              1.2243    Z=              0.6274  Tot=              4.4511
 Quadrupole moment (field-independent basis, Debye-Ang):
   XX=           -520.8889   YY=           -544.8615   ZZ=           -453.1344
   XY=            -22.4254   XZ=             66.2750   YZ=             40.9172

 Normal termination of Gaussian 16 at Sat Sep 11 21:09:10 2021.
