 Gaussian 16, Revision A.03,
 Gaussian 16:  ES64L-G16RevA.03 25-Dec-2016

 -----------------------------------
 #p cam-b3lyp/Def2SVP td=(nstates=5)
 -----------------------------------

 --------------------------------
 TDDFT excited states in gaussian
 --------------------------------
 Symbolic Z-matrix:
 Charge =  0 Multiplicity = 1

                         Standard orientation:
 ---------------------------------------------------------------------
 Center     Atomic      Atomic             Coordinates (Angstroms)
 Number     Number       Type             X           Y           Z
 ---------------------------------------------------------------------
      1         12           0       15.994545   -0.634312    0.051419
      2          6           0       16.170312    2.713967   -1.201718
      3          6           0       16.870003    0.619840    3.101622
      4          6           0       16.289480   -3.621636    1.073929
      5          6           0       16.253638   -1.725650   -3.248204
      6          7           0       16.435538    1.423738    0.737423
      7          6           0       16.409274    2.626347    0.171550
      8          6           0       16.584906    3.792296    1.189926
      9          6           0       17.346633    3.003197    2.347118
     10          6           0       16.826973    1.603630    2.069469
     11          6           0       18.863671    3.004277    2.188696
     12          6           0       15.212630    4.357354    1.689226
     13          6           0       15.287094    5.698055    2.425657
     14          1           0       14.204304    6.654240    2.250660
     15          7           0       16.024784   -1.362927    1.887462
     16          6           0       16.392886   -0.705855    3.013537
     17          6           0       16.243185   -1.676396    4.119124
     18          6           0       15.940156   -3.005694    3.519762
     19          6           0       16.100636   -2.718344    2.117245
     20          6           0       16.339272   -1.297626    5.565170
     21          6           0       15.575667   -4.328068    4.116928
     22          8           0       15.581711   -5.408146    3.432845
     23          6           0       15.293386   -4.340111    5.563722
     24          7           0       16.457286   -2.426461   -0.913831
     25          6           0       16.461833   -3.587092   -0.249078
     26          6           0       16.538687   -4.754019   -1.188393
     27          6           0       16.340216   -4.154710   -2.655087
     28          6           0       16.260956   -2.652438   -2.287435
     29          6           0       17.839925   -5.566757   -1.140969
     30          6           0       15.205522   -4.764186   -3.516149
     31          6           0       13.862046   -4.417707   -2.914384
     32          7           0       16.002285    0.295218   -1.909948
     33          6           0       16.143741   -0.348812   -3.147644
     34          6           0       16.197684    0.703849   -4.178694
     35          6           0       16.099886    1.895508   -3.462993
     36          6           0       16.018122    1.606536   -2.070836
     37          6           0       16.380378    0.494937   -5.574191
     38          6           0       16.070237    3.346594   -3.548606
     39          8           0       16.012567    4.159774   -4.472135
     40          6           0       16.237335    3.938702   -2.079827
     41          6           0       15.183525    4.996082   -1.893431
     42          8           0       13.973221    4.693910   -1.858466
     43          8           0       15.770380    6.152958   -1.550240
     44          6           0       14.778148    7.237053   -1.321400
     45          1           0       17.365834    0.863982    4.043156
     46          1           0       16.285519   -4.671582    1.373988
     47          1           0       16.248672   -1.993572   -4.306338
     48          1           0       17.201643    4.617699    0.833878
     49          1           0       17.035251    3.333397    3.337941
     50          1           0       19.164348    3.438102    1.235118
     51          1           0       19.162594    1.957221    2.241724
     52          1           0       19.341345    3.495574    3.036771
     53          1           0       14.834509    3.725150    2.492596
     54          1           0       14.505300    4.438577    0.863143
     55          1           0       16.252368    6.182341    2.275248
     56          1           0       15.246470    5.501894    3.497138
     57          1           0       16.733501   -0.289867    5.689865
     58          1           0       17.094889   -1.942313    6.013647
     59          1           0       15.390587   -1.425272    6.086741
     60          1           0       16.168914   -3.979751    6.104221
     61          1           0       14.964170   -5.351961    5.797448
     62          1           0       14.491077   -3.631930    5.772837
     63          1           0       15.745253   -5.472184   -0.985592
     64          1           0       17.233053   -4.272974   -3.269521
     65          1           0       17.687581   -6.625219   -0.928471
     66          1           0       18.495927   -5.109728   -0.400647
     67          1           0       18.451359   -5.503569   -2.040731
     68          1           0       15.280823   -5.850982   -3.528365
     69          1           0       15.217278   -4.419282   -4.550148
     70          1           0       13.732723   -5.183509   -2.150411
     71          1           0       13.078431   -4.483691   -3.669900
     72          1           0       13.889830   -3.453020   -2.407339
     73          1           0       15.675846    1.157624   -6.076634
     74          1           0       16.206734   -0.546331   -5.844768
     75          1           0       17.424243    0.787235   -5.687172
     76          1           0       17.244654    4.349653   -2.020239
     77          1           0       15.050725    8.065054   -1.975885
     78          1           0       14.765546    7.423956   -0.247476
     79          1           0       13.759689    7.036868   -1.656072
     80         12           0      -15.756372   -0.850205    0.153958
     81          6           0      -17.675364    2.149146   -0.293693
     82          6           0      -13.371797    1.076657    1.649152
     83          6           0      -13.851417   -3.387629    0.160196
     84          6           0      -17.712825   -2.307818   -2.334685
     85          7           0      -15.652446    1.320343    0.566497
     86          6           0      -16.467755    2.351829    0.406332
     87          6           0      -15.997319    3.657534    1.101597
     88          6           0      -14.423322    3.344642    1.161055
     89          6           0      -14.477388    1.818295    1.161566
     90          6           0      -13.672757    3.795584   -0.080975
     91          6           0      -16.605008    3.821765    2.538870
     92          6           0      -16.437901    5.213604    3.152554
     93          1           0      -17.508251    5.734388    3.998477
     94          7           0      -14.125530   -1.229142    1.219479
     95          6           0      -13.285925   -0.327695    1.770611
     96          6           0      -12.231781   -1.111850    2.432456
     97          6           0      -12.427373   -2.546176    2.087236
     98          6           0      -13.486456   -2.438585    1.103945
     99          6           0      -11.221765   -0.498973    3.358561
    100          6           0      -11.761523   -3.805069    2.554172
    101          8           0      -11.927456   -4.920443    1.944884
    102          6           0      -10.836225   -3.675130    3.689261
    103          7           0      -15.634799   -2.525034   -1.071799
    104          6           0      -14.750199   -3.505191   -0.817393
    105          6           0      -15.031075   -4.725899   -1.660819
    106          6           0      -16.440841   -4.447936   -2.362873
    107          6           0      -16.699936   -3.013877   -1.851259
    108          6           0      -13.986665   -5.051593   -2.728299
    109          6           0      -17.550197   -5.516300   -2.161395
    110          6           0      -17.988416   -5.538804   -0.714729
    111          7           0      -17.513267   -0.289261   -0.971518
    112          6           0      -18.153015   -1.038053   -1.983505
    113          6           0      -19.233823   -0.193730   -2.532504
    114          6           0      -19.132353    1.005830   -1.811904
    115          6           0      -18.050935    0.922893   -0.893668
    116          6           0      -20.111389   -0.552023   -3.594399
    117          6           0      -19.687454    2.327277   -1.626644
    118          8           0      -20.668965    2.926374   -2.064199
    119          6           0      -18.689169    3.172747   -0.723880
    120          6           0      -19.495516    3.853681    0.347875
    121          8           0      -20.078935    3.186201    1.220054
    122          8           0      -19.267891    5.178757    0.295667
    123          6           0      -20.037207    5.896527    1.346757
    124          1           0      -12.466396    1.617082    1.926802
    125          1           0      -13.294700   -4.326903    0.196364
    126          1           0      -18.429470   -2.725858   -3.044845
    127          1           0      -16.175161    4.563508    0.534706
    128          1           0      -13.982421    3.710869    2.084555
    129          1           0      -14.342980    4.146674   -0.851467
    130          1           0      -13.123379    2.928535   -0.423695
    131          1           0      -12.920226    4.543731    0.184192
    132          1           0      -16.011254    3.231097    3.248303
    133          1           0      -17.641239    3.544706    2.548333
    134          1           0      -16.140217    5.960125    2.406205
    135          1           0      -15.599569    5.185694    3.852859
    136          1           0      -11.223259    0.595737    3.287757
    137          1           0      -10.232225   -0.793469    2.992569
    138          1           0      -11.333480   -0.841185    4.389613
    139          1           0      -10.047034   -2.972222    3.433204
    140          1           0      -10.528979   -4.693768    3.933914
    141          1           0      -11.380254   -3.242624    4.536368
    142          1           0      -15.114634   -5.611753   -1.043253
    143          1           0      -16.344859   -4.378901   -3.456420
    144          1           0      -13.566036   -6.070252   -2.630938
    145          1           0      -13.201379   -4.309263   -2.675229
    146          1           0      -14.330323   -4.951252   -3.756410
    147          1           0      -17.160902   -6.512977   -2.383307
    148          1           0      -18.418555   -5.361734   -2.793105
    149          1           0      -17.236995   -6.176198   -0.239146
    150          1           0      -18.984523   -5.967014   -0.622817
    151          1           0      -17.908864   -4.542780   -0.263869
    152          1           0      -21.103301   -0.237748   -3.298039
    153          1           0      -20.075764   -1.620557   -3.796241
    154          1           0      -19.680117    0.034406   -4.410106
    155          1           0      -18.185615    3.888778   -1.374511
    156          1           0      -20.636003    6.659368    0.839612
    157          1           0      -19.286063    6.249686    2.078067
    158          1           0      -20.804336    5.341222    1.873640
 ---------------------------------------------------------------------

 SCF Done:  E(RCAM-B3LYP) =  -4069.81178090     A.U. after   19 cycles

 Excitation energies and oscillator strengths:

 Excited State   1:      Singlet-A      1.6755 eV  739.99 nm  f=0.3292  <S**2>=0.000
     310 -> 316       -0.17180
     312 -> 314        0.67896
     310 <- 316       -0.10355
 This state for optimization and/or second-order correction.
 Total Energy, E(TD-HF/TD-DFT) =  -4069.75020773
 Copying the excited state density for this state as the 1-particle RhoCI density.

 Excited State   2:      Singlet-A      1.6799 eV  738.03 nm  f=0.4512  <S**2>=0.000
     309 -> 315        0.17377
     311 -> 313        0.67861
     309 <- 315        0.10406

 Excited State   3:      Singlet-A      2.1861 eV  567.14 nm  f=0.0951  <S**2>=0.000
     310 -> 314        0.64210
     312 -> 316        0.27296

 Excited State   4:      Singlet-A      2.1926 eV  565.47 nm  f=0.1050  <S**2>=0.000
     309 -> 313        0.64032
     311 -> 315       -0.27816

 Excited State   5:      Singlet-A      3.0618 eV  404.94 nm  f=0.0000  <S**2>=0.000
     312 -> 313        0.70710

 The electronic state is 1-A.
 Alpha  occ. eigenvalues --  -46.87815 -46.87660 -19.26351 -19.26308 -19.19163
 Alpha  occ. eigenvalues --  -19.19043 -19.18833 -19.18713 -19.18189 -19.18052
 Alpha  occ. eigenvalues --  -14.42497 -14.42469 -14.41468 -14.41359 -14.39422
 Alpha  occ. eigenvalues --  -14.39352 -14.38606 -14.38600 -10.39102 -10.39092
 Alpha  occ. eigenvalues --  -10.35466 -10.35390 -10.34409 -10.34229 -10.31758
 Alpha  occ. eigenvalues --  -10.31704 -10.31424 -10.31309 -10.31022 -10.30928
 Alpha  occ. eigenvalues --  -10.30589 -10.30526 -10.30398 -10.30361 -10.30225
 Alpha  occ. eigenvalues --  -10.30140 -10.29939 -10.29895 -10.29649 -10.29436
 Alpha  occ. eigenvalues --  -10.29401 -10.29273 -10.28770 -10.28719 -10.28655
 Alpha  occ. eigenvalues --  -10.28563 -10.28404 -10.28384 -10.28139 -10.28136
 Alpha  occ. eigenvalues --  -10.28001 -10.27812 -10.27746 -10.27668 -10.27603
 Alpha  occ. eigenvalues --  -10.27518 -10.27517 -10.27500 -10.27483 -10.27467
 Alpha  occ. eigenvalues --  -10.27465 -10.27463 -10.27423 -10.27375 -10.27179
 Alpha  occ. eigenvalues --  -10.27051 -10.26728 -10.26693 -10.26428 -10.26413
 Alpha  occ. eigenvalues --  -10.26253 -10.26199 -10.26139 -10.26037 -10.26021
 Alpha  occ. eigenvalues --  -10.25934 -10.25861 -10.25853 -10.25450 -10.25395
 Alpha  occ. eigenvalues --  -10.24873 -10.24852 -10.24806 -10.24733 -10.24703
 Alpha  occ. eigenvalues --  -10.24689  -3.16558  -3.16410  -1.91440  -1.91292
 Alpha  occ. eigenvalues --   -1.91026  -1.90881  -1.90868  -1.90718  -1.16656
 Alpha  occ. eigenvalues --   -1.16645  -1.08659  -1.08647  -1.07234  -1.06965
 Alpha  occ. eigenvalues --   -1.06947  -1.06665  -1.04600  -1.04495  -1.03779
 Alpha  occ. eigenvalues --   -1.03663  -1.03252  -1.03038  -1.02430  -1.02111
 Alpha  occ. eigenvalues --   -0.91991  -0.91987  -0.89537  -0.89495  -0.89208
 Alpha  occ. eigenvalues --   -0.89150  -0.88304  -0.88220  -0.87889  -0.87794
 Alpha  occ. eigenvalues --   -0.87692  -0.87684  -0.87292  -0.87119  -0.85002
 Alpha  occ. eigenvalues --   -0.84999  -0.83954  -0.83876  -0.82985  -0.82930
 Alpha  occ. eigenvalues --   -0.82668  -0.82652  -0.81606  -0.81597  -0.80616
 Alpha  occ. eigenvalues --   -0.80443  -0.78816  -0.78635  -0.77237  -0.77144
 Alpha  occ. eigenvalues --   -0.76954  -0.76898  -0.75943  -0.75838  -0.74916
 Alpha  occ. eigenvalues --   -0.74802  -0.72793  -0.72699  -0.71691  -0.71580
 Alpha  occ. eigenvalues --   -0.69924  -0.69758  -0.68893  -0.68827  -0.67660
 Alpha  occ. eigenvalues --   -0.67602  -0.67240  -0.67200  -0.65307  -0.65272
 Alpha  occ. eigenvalues --   -0.64873  -0.64770  -0.64654  -0.64640  -0.64287
 Alpha  occ. eigenvalues --   -0.64204  -0.62319  -0.62279  -0.60460  -0.60339
 Alpha  occ. eigenvalues --   -0.59824  -0.59796  -0.59006  -0.58993  -0.58523
 Alpha  occ. eigenvalues --   -0.58426  -0.57605  -0.57555  -0.57327  -0.57236
 Alpha  occ. eigenvalues --   -0.56329  -0.56204  -0.56000  -0.55887  -0.55539
 Alpha  occ. eigenvalues --   -0.55452  -0.55358  -0.55248  -0.54543  -0.54488
 Alpha  occ. eigenvalues --   -0.53915  -0.53912  -0.53317  -0.53242  -0.53227
 Alpha  occ. eigenvalues --   -0.53141  -0.52935  -0.52902  -0.52775  -0.52667
 Alpha  occ. eigenvalues --   -0.52455  -0.52402  -0.51933  -0.51886  -0.51658
 Alpha  occ. eigenvalues --   -0.51637  -0.51215  -0.51202  -0.50591  -0.50474
 Alpha  occ. eigenvalues --   -0.50049  -0.49979  -0.49937  -0.49867  -0.49534
 Alpha  occ. eigenvalues --   -0.49487  -0.49234  -0.49202  -0.49116  -0.49104
 Alpha  occ. eigenvalues --   -0.48613  -0.48558  -0.48479  -0.48464  -0.48376
 Alpha  occ. eigenvalues --   -0.48338  -0.47714  -0.47594  -0.47315  -0.47117
 Alpha  occ. eigenvalues --   -0.46816  -0.46709  -0.46576  -0.46553  -0.46378
 Alpha  occ. eigenvalues --   -0.46270  -0.46181  -0.46086  -0.45842  -0.45823
 Alpha  occ. eigenvalues --   -0.45218  -0.45208  -0.44597  -0.44526  -0.44514
 Alpha  occ. eigenvalues --   -0.44476  -0.44163  -0.44127  -0.44108  -0.44078
 Alpha  occ. eigenvalues --   -0.44039  -0.43939  -0.43554  -0.43515  -0.43404
 Alpha  occ. eigenvalues --   -0.43386  -0.43046  -0.42931  -0.42902  -0.42720
 Alpha  occ. eigenvalues --   -0.42674  -0.42553  -0.42028  -0.41965  -0.41723
 Alpha  occ. eigenvalues --   -0.41669  -0.41554  -0.41459  -0.41160  -0.40989
 Alpha  occ. eigenvalues --   -0.40888  -0.40842  -0.40722  -0.40698  -0.40589
 Alpha  occ. eigenvalues --   -0.40493  -0.40256  -0.40227  -0.39458  -0.39426
 Alpha  occ. eigenvalues --   -0.38487  -0.38350  -0.37769  -0.37654  -0.37338
 Alpha  occ. eigenvalues --   -0.37284  -0.37266  -0.37199  -0.36772  -0.36734
 Alpha  occ. eigenvalues --   -0.36217  -0.36212  -0.34305  -0.34254  -0.33863
 Alpha  occ. eigenvalues --   -0.33793  -0.33205  -0.33175  -0.31362  -0.31272
 Alpha  occ. eigenvalues --   -0.31054  -0.30973  -0.30049  -0.29956  -0.29468
 Alpha  occ. eigenvalues --   -0.29341  -0.29327  -0.29212  -0.24099  -0.24036
 Alpha  occ. eigenvalues --   -0.21146  -0.21117
 Alpha virt. eigenvalues --   -0.08793  -0.08792  -0.01768  -0.01683  -0.00077
 Alpha virt. eigenvalues --   -0.00028   0.02181   0.02207   0.03102   0.03226
 Alpha virt. eigenvalues --    0.04698   0.04730   0.05076   0.05164   0.06155

 Mulliken charges:
               1
     1  Mg   0.838708
     2  C   -0.002986
     3  C   -0.094146
     4  C   -0.045850
     5  C   -0.063944
     6  N   -0.256788
     7  C   -0.052482
     8  C   -0.014007
     9  C   -0.086995
    10  C    0.046332
    11  C    0.104809
    12  C    0.053462
    13  C   -0.071775
    14  H    0.036044
    15  N   -0.433143
    16  C    0.168420
    17  C   -0.177148
    18  C   -0.003998
    19  C    0.148712
    20  C    0.110171
    21  C    0.012283
    22  O   -0.249587
    23  C    0.062478
    24  N   -0.341139
    25  C    0.041232
    26  C   -0.028183
    27  C   -0.023989
    28  C    0.074845
    29  C    0.076162
    30  C    0.035129
    31  C   -0.004509
    32  N   -0.310470
    33  C    0.080407
    34  C   -0.169711
    35  C    0.008350
    36  C    0.082981
    37  C    0.127315
    38  C    0.046101
    39  O   -0.188457
    40  C   -0.005323
    41  C    0.212860
    42  O   -0.257143
    43  O   -0.304773
    44  C    0.157707
    45  H   -0.017593
    46  H   -0.016808
    47  H   -0.041473
    48  H    0.000942
    49  H   -0.004049
    50  H    0.025483
    51  H    0.016470
    52  H    0.016670
    53  H    0.011186
    54  H    0.044091
    55  H    0.017899
    56  H    0.017945
    57  H    0.005870
    58  H    0.026858
    59  H    0.039530
    60  H    0.037362
    61  H    0.035680
    62  H    0.031468
    63  H    0.016569
    64  H    0.009485
    65  H    0.023244
    66  H    0.012552
    67  H    0.004776
    68  H    0.006404
    69  H    0.004738
    70  H    0.008795
    71  H    0.018146
    72  H    0.028948
    73  H    0.047551
    74  H    0.009127
    75  H    0.046028
    76  H    0.035168
    77  H    0.042951
    78  H    0.046392
    79  H    0.053636
    80  Mg   0.837862
    81  C   -0.016823
    82  C   -0.087775
    83  C   -0.045502
    84  C   -0.064883
    85  N   -0.254581
    86  C   -0.049832
    87  C   -0.015113
    88  C   -0.090504
    89  C    0.045751
    90  C    0.114366
    91  C    0.062530
    92  C   -0.077891
    93  H    0.034872
    94  N   -0.423495
    95  C    0.162930
    96  C   -0.174583
    97  C   -0.007772
    98  C    0.152123
    99  C    0.099339
   100  C    0.015586
   101  O   -0.253149
   102  C    0.061189
   103  N   -0.350081
   104  C    0.037549
   105  C   -0.019843
   106  C   -0.034817
   107  C    0.088928
   108  C    0.073635
   109  C    0.034730
   110  C   -0.007675
   111  N   -0.324126
   112  C    0.078448
   113  C   -0.163141
   114  C    0.002250
   115  C    0.096174
   116  C    0.131493
   117  C    0.042362
   118  O   -0.187901
   119  C    0.000915
   120  C    0.211253
   121  O   -0.251029
   122  O   -0.305619
   123  C    0.152030
   124  H   -0.019594
   125  H   -0.015538
   126  H   -0.040468
   127  H   -0.000635
   128  H   -0.004318
   129  H    0.022464
   130  H    0.014472
   131  H    0.016342
   132  H    0.013906
   133  H    0.037662
   134  H    0.020810
   135  H    0.019595
   136  H    0.008787
   137  H    0.026239
   138  H    0.039780
   139  H    0.038315
   140  H    0.036417
   141  H    0.033865
   142  H    0.014400
   143  H    0.012434
   144  H    0.025170
   145  H    0.011693
   146  H    0.005695
   147  H    0.006276
   148  H    0.003641
   149  H    0.010938
   150  H    0.017916
   151  H    0.030095
   152  H    0.045985
   153  H    0.008507
   154  H    0.046951
   155  H    0.035044
   156  H    0.043910
   157  H    0.049501
   158  H    0.053567
 Sum of Mulliken charges =  -0.00000

 Dipole moment (field-independent basis, Debye):
    X=              6.1861    Y=              1.2051    Z=              5.2487  Tot=              8.2018
 Quadrupole moment (field-independent basis, Debye-Ang):
   XX=           -594.5583   YY=           -503.7461   ZZ=           -486.9576
   XY=              5.7393   XZ=             53.8606   YZ=             57.0836

 Normal termination of Gaussian 16 at Sun Sep 12 20:58:51 2021.
