 Gaussian 16, Revision A.03,
 Gaussian 16:  ES64L-G16RevA.03 25-Dec-2016

 -----------------------------------
 #p cam-b3lyp/Def2SVP td=(nstates=5)
 -----------------------------------

 --------------------------------
 TDDFT excited states in gaussian
 --------------------------------
 Symbolic Z-matrix:
 Charge =  0 Multiplicity = 1

                         Standard orientation:
 ---------------------------------------------------------------------
 Center     Atomic      Atomic             Coordinates (Angstroms)
 Number     Number       Type             X           Y           Z
 ---------------------------------------------------------------------
      1         12           0        8.151352    0.453670    0.853648
      2          6           0        8.532228   -2.478298   -1.163952
      3          6           0        9.281416    2.255526   -1.814559
      4          6           0        8.256283    2.992474    2.751037
      5          6           0        8.150907   -1.642044    3.638185
      6          7           0        8.791984   -0.148570   -1.177987
      7          6           0        8.833830   -1.297269   -1.845752
      8          6           0        9.155381   -1.120322   -3.359908
      9          6           0        9.909518    0.282901   -3.294790
     10          6           0        9.264847    0.847169   -2.041025
     11          6           0       11.411488    0.157093   -3.060776
     12          6           0        7.860831   -1.034836   -4.236585
     13          6           0        8.081260   -1.189547   -5.744176
     14          1           0        7.071692   -1.880205   -6.532282
     15          7           0        8.217266    2.378862    0.415310
     16          6           0        8.694836    2.934045   -0.724420
     17          6           0        8.524420    4.394668   -0.568791
     18          6           0        8.084469    4.654954    0.830061
     19          6           0        8.195099    3.337823    1.403040
     20          6           0        8.725243    5.370322   -1.687505
     21          6           0        7.645606    5.896066    1.540815
     22          8           0        7.529072    5.946177    2.813011
     23          6           0        7.438264    7.092920    0.705596
     24          7           0        8.417376    0.678179    2.911915
     25          6           0        8.362404    1.884368    3.487302
     26          6           0        8.296175    1.773925    4.981743
     27          6           0        8.071404    0.225614    5.301059
     28          6           0        8.132854   -0.324934    3.854895
     29          6           0        9.528197    2.278875    5.745392
     30          6           0        6.848284   -0.141072    6.178520
     31          6           0        5.570023    0.152960    5.425730
     32          7           0        8.133014   -1.688627    1.201892
     33          6           0        8.157952   -2.341348    2.442862
     34          6           0        8.243530   -3.787567    2.168642
     35          6           0        8.279379   -3.875316    0.778368
     36          6           0        8.246436   -2.565521    0.220117
     37          6           0        8.336536   -4.817088    3.146328
     38          6           0        8.362700   -4.769755   -0.364826
     39          8           0        8.323374   -5.991880   -0.514346
     40          6           0        8.652617   -3.896269   -1.664363
     41          6           0        7.698710   -4.346785   -2.736932
     42          8           0        6.471366   -4.150604   -2.625096
     43          8           0        8.394037   -4.719079   -3.822500
     44          6           0        7.505771   -5.149612   -4.935055
     45          1           0        9.843247    2.893680   -2.499429
     46          1           0        8.182978    3.835578    3.441139
     47          1           0        8.069747   -2.360992    4.455486
     48          1           0        9.817610   -1.879923   -3.775700
     49          1           0        9.677348    0.909994   -4.155355
     50          1           0       11.696657   -0.873155   -2.848202
     51          1           0       11.627166    0.796244   -2.204353
     52          1           0       11.970395    0.577926   -3.897017
     53          1           0        7.474799   -0.015872   -4.209132
     54          1           0        7.120719   -1.763406   -3.903800
     55          1           0        9.073463   -1.584999   -5.963402
     56          1           0        8.080230   -0.196283   -6.193203
     57          1           0        9.205516    4.902164   -2.545824
     58          1           0        9.448418    6.108126   -1.340557
     59          1           0        7.797512    5.868884   -1.968719
     60          1           0        8.366752    7.336268    0.188643
     61          1           0        7.040860    7.858672    1.370836
     62          1           0        6.707655    6.860229   -0.069655
     63          1           0        7.458826    2.345883    5.379406
     64          1           0        8.918888   -0.209967    5.830885
     65          1           0        9.301989    3.054224    6.477764
     66          1           0       10.256285    2.631076    5.015233
     67          1           0       10.095520    1.504426    6.260942
     68          1           0        6.834794    0.466165    7.082968
     69          1           0        6.834530   -1.188031    6.481735
     70          1           0        5.418817    1.216199    5.608739
     71          1           0        4.745723   -0.434205    5.831903
     72          1           0        5.701775    0.022744    4.351406
     73          1           0        7.662882   -5.609360    2.820041
     74          1           0        8.065602   -4.449236    4.135713
     75          1           0        9.393385   -5.072457    3.070748
     76          1           0        9.691575   -4.077072   -1.938220
     77          1           0        7.810243   -6.157542   -5.217203
     78          1           0        7.563712   -4.371726   -5.696595
     79          1           0        6.458567   -5.314956   -4.679392
     80         12           0       -7.659943    0.504700   -0.594917
     81          6           0      -10.131971   -1.723711    0.747576
     82          6           0      -10.125445    2.848301   -0.846859
     83          6           0       -5.619227    2.335924   -2.191639
     84          6           0       -5.713501   -2.299814   -1.296156
     85          7           0       -9.810953    0.450405   -0.082602
     86          6           0      -10.625841   -0.430234    0.478457
     87          6           0      -12.027238    0.130218    0.841125
     88          6           0      -12.079613    1.344493   -0.208490
     89          6           0      -10.581334    1.593849   -0.368728
     90          6           0      -12.644952    0.946308   -1.561700
     91          6           0      -12.099817    0.646640    2.321011
     92          6           0      -13.513863    0.920519    2.837937
     93          1           0      -13.808796    0.639805    4.240328
     94          7           0       -7.695621    2.456104   -0.954531
     95          6           0       -8.781692    3.256095   -0.996424
     96          6           0       -8.278824    4.600651   -1.318070
     97          6           0       -6.826278    4.497229   -1.624871
     98          6           0       -6.658187    3.057841   -1.622479
     99          6           0       -9.135341    5.830757   -1.236621
    100          6           0       -5.766889    5.523502   -1.890691
    101          8           0       -4.622439    5.201403   -2.369554
    102          6           0       -6.141323    6.926681   -1.661848
    103          7           0       -6.014301    0.072175   -1.789538
    104          6           0       -5.268279    1.056347   -2.321326
    105          6           0       -3.987245    0.513380   -2.908295
    106          6           0       -3.915687   -1.015154   -2.443486
    107          6           0       -5.271193   -1.120559   -1.710751
    108          6           0       -3.868742    0.588266   -4.430375
    109          6           0       -2.632301   -1.462795   -1.691677
    110          6           0       -2.561613   -0.784789   -0.342350
    111          7           0       -7.770970   -1.611040   -0.171426
    112          6           0       -6.862652   -2.611720   -0.580928
    113          6           0       -7.421994   -3.909715   -0.151083
    114          6           0       -8.637726   -3.573404    0.463241
    115          6           0       -8.832596   -2.167099    0.401462
    116          6           0       -6.838528   -5.186308   -0.387709
    117          6           0       -9.805557   -4.089310    1.140523
    118          8           0      -10.152376   -5.195007    1.553923
    119          6           0      -10.885070   -2.927167    1.242703
    120          6           0      -11.403284   -2.897388    2.654481
    121          8           0      -10.652010   -2.591654    3.597197
    122          8           0      -12.742936   -3.021089    2.634822
    123          6           0      -13.304647   -2.986067    4.011442
    124          1           0      -10.865391    3.576788   -1.179526
    125          1           0       -4.831519    2.931675   -2.658621
    126          1           0       -5.120317   -3.211890   -1.390611
    127          1           0      -12.849607   -0.551941    0.661848
    128          1           0      -12.567546    2.216129    0.219911
    129          1           0      -12.809001   -0.118708   -1.632221
    130          1           0      -11.912804    1.265505   -2.291849
    131          1           0      -13.552238    1.518928   -1.774471
    132          1           0      -11.683164    1.661048    2.367097
    133          1           0      -11.596712   -0.028777    2.985342
    134          1           0      -14.282012    0.483107    2.188664
    135          1           0      -13.699960    1.996030    2.786312
    136          1           0      -10.198387    5.575476   -1.146329
    137          1           0       -9.059089    6.338137   -2.204413
    138          1           0       -8.812611    6.517479   -0.451166
    139          1           0       -6.994806    7.179197   -2.286557
    140          1           0       -5.227291    7.502497   -1.819551
    141          1           0       -6.469034    7.036210   -0.622026
    142          1           0       -3.127274    1.041065   -2.514479
    143          1           0       -3.966720   -1.704122   -3.299375
    144          1           0       -2.975165    1.144192   -4.771766
    145          1           0       -4.770412    1.040889   -4.821079
    146          1           0       -3.853380   -0.373483   -4.940268
    147          1           0       -1.742026   -1.150405   -2.243016
    148          1           0       -2.565126   -2.536736   -1.553414
    149          1           0       -2.126929    0.190992   -0.578949
    150          1           0       -1.923241   -1.347248    0.336005
    151          1           0       -3.564891   -0.609206    0.062922
    152          1           0       -6.931074   -5.746465    0.533245
    153          1           0       -5.799230   -5.097265   -0.697052
    154          1           0       -7.478533   -5.546137   -1.197769
    155          1           0      -11.673266   -3.147886    0.521867
    156          1           0      -13.894798   -3.898824    4.139017
    157          1           0      -13.843179   -2.022959    4.089946
    158          1           0      -12.609227   -3.066486    4.838706
 ---------------------------------------------------------------------

 SCF Done:  E(RCAM-B3LYP) =  -4069.81190139     A.U. after   19 cycles

 Excitation energies and oscillator strengths:

 Excited State   1:      Singlet-A      1.6694 eV  742.70 nm  f=0.0201  <S**2>=0.000
     309 -> 315       -0.10226
     310 -> 316        0.13876
     311 -> 313       -0.40568
     312 -> 314        0.55366
 This state for optimization and/or second-order correction.
 Total Energy, E(TD-HF/TD-DFT) =  -4069.75055324
 Copying the excited state density for this state as the 1-particle RhoCI density.

 Excited State   2:      Singlet-A      1.6853 eV  735.67 nm  f=0.7361  <S**2>=0.000
     309 -> 315        0.14283
     310 -> 316        0.10406
     311 -> 313        0.55283
     312 -> 314        0.40515

 Excited State   3:      Singlet-A      2.1855 eV  567.31 nm  f=0.0958  <S**2>=0.000
     310 -> 314        0.64009
     312 -> 316       -0.27170

 Excited State   4:      Singlet-A      2.1931 eV  565.34 nm  f=0.1045  <S**2>=0.000
     309 -> 313        0.63822
     311 -> 315       -0.27741

 Excited State   5:      Singlet-A      2.7915 eV  444.15 nm  f=0.0000  <S**2>=0.000
     312 -> 313        0.70699

 The electronic state is 1-A.
 Alpha  occ. eigenvalues --  -46.87757 -46.87580 -19.26290 -19.26283 -19.19097
 Alpha  occ. eigenvalues --  -19.19020 -19.18758 -19.18657 -19.18139 -19.17978
 Alpha  occ. eigenvalues --  -14.42421 -14.42412 -14.41408 -14.41272 -14.39361
 Alpha  occ. eigenvalues --  -14.39275 -14.38549 -14.38519 -10.39076 -10.39026
 Alpha  occ. eigenvalues --  -10.35390 -10.35336 -10.34360 -10.34156 -10.31703
 Alpha  occ. eigenvalues --  -10.31686 -10.31371 -10.31231 -10.30955 -10.30872
 Alpha  occ. eigenvalues --  -10.30532 -10.30466 -10.30315 -10.30279 -10.30159
 Alpha  occ. eigenvalues --  -10.30049 -10.29879 -10.29802 -10.29588 -10.29359
 Alpha  occ. eigenvalues --  -10.29322 -10.29210 -10.28724 -10.28658 -10.28605
 Alpha  occ. eigenvalues --  -10.28530 -10.28331 -10.28326 -10.28087 -10.28078
 Alpha  occ. eigenvalues --  -10.27923 -10.27752 -10.27688 -10.27593 -10.27540
 Alpha  occ. eigenvalues --  -10.27447 -10.27427 -10.27410 -10.27408 -10.27398
 Alpha  occ. eigenvalues --  -10.27391 -10.27385 -10.27368 -10.27266 -10.27135
 Alpha  occ. eigenvalues --  -10.26981 -10.26692 -10.26636 -10.26375 -10.26339
 Alpha  occ. eigenvalues --  -10.26204 -10.26121 -10.25975 -10.25970 -10.25943
 Alpha  occ. eigenvalues --  -10.25838 -10.25801 -10.25745 -10.25385 -10.25308
 Alpha  occ. eigenvalues --  -10.24795 -10.24794 -10.24745 -10.24620 -10.24608
 Alpha  occ. eigenvalues --  -10.24541  -3.16500  -3.16330  -1.91382  -1.91212
 Alpha  occ. eigenvalues --   -1.90968  -1.90810  -1.90800  -1.90637  -1.16631
 Alpha  occ. eigenvalues --   -1.16583  -1.08599  -1.08585  -1.07158  -1.06910
 Alpha  occ. eigenvalues --   -1.06882  -1.06641  -1.04544  -1.04420  -1.03719
 Alpha  occ. eigenvalues --   -1.03583  -1.03193  -1.02954  -1.02371  -1.02030
 Alpha  occ. eigenvalues --   -0.91938  -0.91911  -0.89472  -0.89386  -0.89160
 Alpha  occ. eigenvalues --   -0.89085  -0.88239  -0.88108  -0.87830  -0.87708
 Alpha  occ. eigenvalues --   -0.87636  -0.87606  -0.87224  -0.87054  -0.84951
 Alpha  occ. eigenvalues --   -0.84931  -0.83888  -0.83758  -0.82911  -0.82859
 Alpha  occ. eigenvalues --   -0.82614  -0.82583  -0.81562  -0.81522  -0.80562
 Alpha  occ. eigenvalues --   -0.80369  -0.78751  -0.78561  -0.77178  -0.77065
 Alpha  occ. eigenvalues --   -0.76905  -0.76815  -0.75894  -0.75768  -0.74855
 Alpha  occ. eigenvalues --   -0.74709  -0.72733  -0.72614  -0.71635  -0.71503
 Alpha  occ. eigenvalues --   -0.69854  -0.69621  -0.68839  -0.68756  -0.67602
 Alpha  occ. eigenvalues --   -0.67525  -0.67188  -0.67138  -0.65257  -0.65202
 Alpha  occ. eigenvalues --   -0.64820  -0.64686  -0.64586  -0.64576  -0.64224
 Alpha  occ. eigenvalues --   -0.64093  -0.62277  -0.62202  -0.60393  -0.60263
 Alpha  occ. eigenvalues --   -0.59772  -0.59727  -0.58949  -0.58910  -0.58466
 Alpha  occ. eigenvalues --   -0.58343  -0.57560  -0.57482  -0.57268  -0.57148
 Alpha  occ. eigenvalues --   -0.56270  -0.56125  -0.55962  -0.55819  -0.55477
 Alpha  occ. eigenvalues --   -0.55386  -0.55302  -0.55150  -0.54492  -0.54389
 Alpha  occ. eigenvalues --   -0.53867  -0.53848  -0.53255  -0.53185  -0.53147
 Alpha  occ. eigenvalues --   -0.53071  -0.52885  -0.52827  -0.52710  -0.52610
 Alpha  occ. eigenvalues --   -0.52384  -0.52248  -0.51876  -0.51791  -0.51596
 Alpha  occ. eigenvalues --   -0.51584  -0.51160  -0.51114  -0.50514  -0.50412
 Alpha  occ. eigenvalues --   -0.49981  -0.49909  -0.49872  -0.49764  -0.49477
 Alpha  occ. eigenvalues --   -0.49423  -0.49178  -0.49134  -0.49065  -0.49032
 Alpha  occ. eigenvalues --   -0.48564  -0.48488  -0.48417  -0.48400  -0.48282
 Alpha  occ. eigenvalues --   -0.48277  -0.47655  -0.47518  -0.47255  -0.47044
 Alpha  occ. eigenvalues --   -0.46757  -0.46620  -0.46526  -0.46486  -0.46319
 Alpha  occ. eigenvalues --   -0.46184  -0.46126  -0.45999  -0.45794  -0.45742
 Alpha  occ. eigenvalues --   -0.45155  -0.45114  -0.44546  -0.44462  -0.44444
 Alpha  occ. eigenvalues --   -0.44395  -0.44100  -0.44056  -0.44054  -0.43981
 Alpha  occ. eigenvalues --   -0.43978  -0.43875  -0.43472  -0.43468  -0.43349
 Alpha  occ. eigenvalues --   -0.43311  -0.42990  -0.42859  -0.42820  -0.42681
 Alpha  occ. eigenvalues --   -0.42611  -0.42445  -0.41968  -0.41856  -0.41668
 Alpha  occ. eigenvalues --   -0.41589  -0.41502  -0.41377  -0.41104  -0.40913
 Alpha  occ. eigenvalues --   -0.40833  -0.40773  -0.40661  -0.40618  -0.40526
 Alpha  occ. eigenvalues --   -0.40380  -0.40210  -0.40169  -0.39385  -0.39283
 Alpha  occ. eigenvalues --   -0.38424  -0.38247  -0.37724  -0.37588  -0.37276
 Alpha  occ. eigenvalues --   -0.37233  -0.37167  -0.37127  -0.36698  -0.36697
 Alpha  occ. eigenvalues --   -0.36163  -0.36127  -0.34247  -0.34172  -0.33795
 Alpha  occ. eigenvalues --   -0.33764  -0.33149  -0.33095  -0.31289  -0.31215
 Alpha  occ. eigenvalues --   -0.30996  -0.30895  -0.30000  -0.29882  -0.29405
 Alpha  occ. eigenvalues --   -0.29283  -0.29254  -0.29133  -0.24042  -0.23956
 Alpha  occ. eigenvalues --   -0.21087  -0.21036
 Alpha virt. eigenvalues --   -0.08732  -0.08715  -0.01707  -0.01603  -0.00013
 Alpha virt. eigenvalues --    0.00037   0.02238   0.02287   0.03156   0.03314
 Alpha virt. eigenvalues --    0.04750   0.04802   0.05106   0.05230   0.06195

 Mulliken charges:
               1
     1  Mg   0.838555
     2  C   -0.003202
     3  C   -0.094107
     4  C   -0.045730
     5  C   -0.063909
     6  N   -0.256788
     7  C   -0.052607
     8  C   -0.013966
     9  C   -0.087015
    10  C    0.046292
    11  C    0.104806
    12  C    0.053473
    13  C   -0.071706
    14  H    0.035670
    15  N   -0.433159
    16  C    0.168475
    17  C   -0.177043
    18  C   -0.003843
    19  C    0.148746
    20  C    0.110150
    21  C    0.012509
    22  O   -0.249513
    23  C    0.062357
    24  N   -0.341126
    25  C    0.041251
    26  C   -0.028204
    27  C   -0.023993
    28  C    0.074824
    29  C    0.076171
    30  C    0.035107
    31  C   -0.004550
    32  N   -0.310405
    33  C    0.080270
    34  C   -0.169778
    35  C    0.008272
    36  C    0.082826
    37  C    0.127335
    38  C    0.045930
    39  O   -0.188610
    40  C   -0.005261
    41  C    0.212948
    42  O   -0.257612
    43  O   -0.304665
    44  C    0.157798
    45  H   -0.017591
    46  H   -0.016711
    47  H   -0.041399
    48  H    0.000879
    49  H   -0.004018
    50  H    0.025452
    51  H    0.016509
    52  H    0.016648
    53  H    0.011273
    54  H    0.043727
    55  H    0.017951
    56  H    0.018101
    57  H    0.005815
    58  H    0.026814
    59  H    0.039964
    60  H    0.037200
    61  H    0.035808
    62  H    0.031976
    63  H    0.016737
    64  H    0.009448
    65  H    0.023279
    66  H    0.012474
    67  H    0.004750
    68  H    0.006475
    69  H    0.004783
    70  H    0.008971
    71  H    0.018407
    72  H    0.028750
    73  H    0.047480
    74  H    0.009243
    75  H    0.045989
    76  H    0.035164
    77  H    0.043002
    78  H    0.046414
    79  H    0.053261
    80  Mg   0.837834
    81  C   -0.016966
    82  C   -0.087974
    83  C   -0.045530
    84  C   -0.064775
    85  N   -0.254553
    86  C   -0.049879
    87  C   -0.015061
    88  C   -0.090502
    89  C    0.045732
    90  C    0.114443
    91  C    0.062558
    92  C   -0.077815
    93  H    0.034779
    94  N   -0.423430
    95  C    0.162864
    96  C   -0.174829
    97  C   -0.007985
    98  C    0.152127
    99  C    0.099442
   100  C    0.015488
   101  O   -0.253485
   102  C    0.061259
   103  N   -0.350162
   104  C    0.037552
   105  C   -0.019722
   106  C   -0.035208
   107  C    0.089055
   108  C    0.073863
   109  C    0.034661
   110  C   -0.007873
   111  N   -0.324163
   112  C    0.078581
   113  C   -0.162838
   114  C    0.002191
   115  C    0.096336
   116  C    0.131355
   117  C    0.042459
   118  O   -0.187856
   119  C    0.000899
   120  C    0.211234
   121  O   -0.250972
   122  O   -0.305664
   123  C    0.152053
   124  H   -0.019941
   125  H   -0.015795
   126  H   -0.039654
   127  H   -0.000752
   128  H   -0.004479
   129  H    0.022395
   130  H    0.014379
   131  H    0.016066
   132  H    0.013917
   133  H    0.037712
   134  H    0.020708
   135  H    0.019500
   136  H    0.008629
   137  H    0.025824
   138  H    0.039610
   139  H    0.038077
   140  H    0.035975
   141  H    0.033966
   142  H    0.014476
   143  H    0.012645
   144  H    0.024761
   145  H    0.011156
   146  H    0.005799
   147  H    0.007394
   148  H    0.004868
   149  H    0.010591
   150  H    0.019301
   151  H    0.029271
   152  H    0.046185
   153  H    0.009346
   154  H    0.046845
   155  H    0.034886
   156  H    0.043837
   157  H    0.049400
   158  H    0.053583
 Sum of Mulliken charges =  -0.00000

 Dipole moment (field-independent basis, Debye):
    X=              0.1116    Y=              6.8420    Z=             -3.8223  Tot=              7.8380
 Quadrupole moment (field-independent basis, Debye-Ang):
   XX=           -420.1207   YY=           -542.2900   ZZ=           -482.2133
   XY=            -27.8590   XZ=            -10.5812   YZ=             -3.7598

 Normal termination of Gaussian 16 at Sat Sep 11 19:40:23 2021.
