 Gaussian 16, Revision A.03,
 Gaussian 16:  ES64L-G16RevA.03 25-Dec-2016

 -----------------------------------
 #p cam-b3lyp/Def2SVP td=(nstates=5)
 -----------------------------------

 --------------------------------
 TDDFT excited states in gaussian
 --------------------------------
 Symbolic Z-matrix:
 Charge =  0 Multiplicity = 1

                         Standard orientation:
 ---------------------------------------------------------------------
 Center     Atomic      Atomic             Coordinates (Angstroms)
 Number     Number       Type             X           Y           Z
 ---------------------------------------------------------------------
      1         12           0       -3.845396    0.591773    0.648773
      2          6           0       -4.355440   -2.392547   -1.260653
      3          6           0       -4.168340   -1.325153    3.453086
      4          6           0       -3.851788    3.269954    2.346985
      5          6           0       -4.688081    2.391293   -2.214315
      6          7           0       -4.211480   -1.573174    0.930969
      7          6           0       -4.328725   -2.617962    0.117432
      8          6           0       -4.344681   -3.984623    0.865334
      9          6           0       -4.850562   -3.484782    2.292303
     10          6           0       -4.350311   -2.052006    2.239165
     11          6           0       -6.369612   -3.469903    2.429304
     12          6           0       -2.920697   -4.629445    0.955928
     13          6           0       -2.895740   -6.101917    1.376116
     14          1           0       -1.894775   -6.980527    0.790059
     15          7           0       -3.507205    0.889994    2.572192
     16          6           0       -3.676387   -0.007389    3.572876
     17          6           0       -3.291796    0.692584    4.817387
     18          6           0       -3.066917    2.126178    4.482229
     19          6           0       -3.497302    2.158361    3.107779
     20          6           0       -3.125261   -0.001786    6.134151
     21          6           0       -2.556570    3.285704    5.277954
     22          8           0       -2.658598    4.491434    4.865184
     23          6           0       -2.006627    2.976889    6.610334
     24          7           0       -4.427104    2.548518    0.212428
     25          6           0       -4.271190    3.530524    1.107045
     26          6           0       -4.488165    4.877165    0.483012
     27          6           0       -4.587733    4.624358   -1.090496
     28          6           0       -4.486225    3.079055   -1.088124
     29          6           0       -5.731940    5.641756    0.956758
     30          6           0       -3.617568    5.425864   -1.994258
     31          6           0       -2.195932    4.970712   -1.751596
     32          7           0       -4.250563    0.125355   -1.431934
     33          6           0       -4.602999    1.028468   -2.445271
     34          6           0       -4.882042    0.233003   -3.654998
     35          6           0       -4.687372   -1.087363   -3.254272
     36          6           0       -4.336159   -1.116659   -1.874386
     37          6           0       -5.317868    0.746926   -4.908143
     38          6           0       -4.718378   -2.481859   -3.664486
     39          8           0       -4.860348   -3.066607   -4.739385
     40          6           0       -4.623735   -3.390136   -2.359916
     41          6           0       -3.586224   -4.448711   -2.617398
     42          8           0       -2.382400   -4.146473   -2.747110
     43          8           0       -4.132736   -5.660542   -2.434827
     44          6           0       -3.148488   -6.755457   -2.645945
     45          1           0       -4.485144   -1.780437    4.393454
     46          1           0       -3.759563    4.225927    2.866647
     47          1           0       -4.874367    2.889547   -3.167464
     48          1           0       -5.042169   -4.717140    0.458697
     49          1           0       -4.368302   -4.024561    3.107033
     50          1           0       -6.857509   -3.682863    1.478239
     51          1           0       -6.621320   -2.465299    2.769757
     52          1           0       -6.693686   -4.144860    3.221886
     53          1           0       -2.379054   -4.188510    1.792744
     54          1           0       -2.384397   -4.514366    0.013344
     55          1           0       -3.886295   -6.552594    1.308306
     56          1           0       -2.648120   -6.150331    2.436560
     57          1           0       -3.519315   -1.016860    6.104297
     58          1           0       -3.762997    0.516213    6.850167
     59          1           0       -2.091899    0.017968    6.480710
     60          1           0       -2.775207    2.493316    7.213650
     61          1           0       -1.608766    3.914796    6.996193
     62          1           0       -1.201134    2.250267    6.500100
     63          1           0       -3.649337    5.541798    0.685637
     64          1           0       -5.576309    4.865769   -1.481792
     65          1           0       -5.510289    6.627562    1.366346
     66          1           0       -6.250323    5.022037    1.687866
     67          1           0       -6.503518    5.773909    0.198721
     68          1           0       -3.660843    6.486698   -1.749914
     69          1           0       -3.834300    5.321303   -3.057435
     70          1           0       -1.901888    5.547455   -0.875389
     71          1           0       -1.566995    5.214414   -2.608485
     72          1           0       -2.156954    3.916663   -1.476009
     73          1           0       -4.740988    0.222820   -5.670042
     74          1           0       -5.166807    1.824497   -4.968348
     75          1           0       -6.372703    0.473938   -4.882510
     76          1           0       -5.613791   -3.816946   -2.202615
     77          1           0       -3.564420   -7.419194   -3.404027
     78          1           0       -2.939527   -7.178070   -1.663022
     79          1           0       -2.205692   -6.472250   -3.115274
     80         12           0        3.960799    0.743821   -0.821461
     81          6           0        4.133746   -2.411987    0.878538
     82          6           0        3.619610    2.205807    2.241342
     83          6           0        3.354928    3.481773   -2.306048
     84          6           0        3.173489   -1.019494   -3.722597
     85          7           0        3.900033   -0.099786    1.222278
     86          6           0        4.037345   -1.306953    1.749774
     87          6           0        4.154036   -1.323054    3.297567
     88          6           0        3.412801    0.067052    3.609074
     89          6           0        3.686590    0.790521    2.292153
     90          6           0        1.908671   -0.076176    3.771616
     91          6           0        5.645381   -1.300583    3.784811
     92          6           0        5.842588   -1.625424    5.267162
     93          1           0        7.033070   -2.372446    5.663624
     94          7           0        4.034883    2.610962   -0.152993
     95          6           0        3.899516    3.023803    1.124703
     96          6           0        4.011453    4.490179    1.087710
     97          6           0        4.059135    4.921216   -0.335888
     98          6           0        3.791369    3.662172   -1.001629
     99          6           0        4.142559    5.327755    2.326538
    100          6           0        4.292728    6.249508   -0.989549
    101          8           0        4.054253    6.438462   -2.234649
    102          6           0        4.719897    7.347105   -0.109620
    103          7           0        3.146650    1.188811   -2.681975
    104          6           0        3.042341    2.461001   -3.104569
    105          6           0        2.687799    2.521255   -4.571222
    106          6           0        2.813498    1.019214   -5.105674
    107          6           0        3.146854    0.305066   -3.777425
    108          6           0        1.296013    3.062442   -4.897472
    109          6           0        3.744417    0.782111   -6.326265
    110          6           0        5.182952    1.032131   -5.934470
    111          7           0        3.875112   -1.335250   -1.402986
    112          6           0        3.496724   -1.854326   -2.660550
    113          6           0        3.483052   -3.326457   -2.537670
    114          6           0        3.834864   -3.562859   -1.200198
    115          6           0        4.032750   -2.324876   -0.531056
    116          6           0        3.127716   -4.243829   -3.566398
    117          6           0        4.073469   -4.577909   -0.199485
    118          8           0        4.138552   -5.806514   -0.206656
    119          6           0        4.154198   -3.875172    1.223903
    120          6           0        5.365468   -4.409697    1.937787
    121          8           0        6.508001   -4.176648    1.505443
    122          8           0        4.988297   -4.919493    3.124471
    123          6           0        6.156730   -5.452233    3.874643
    124          1           0        3.279915    2.741302    3.128324
    125          1           0        3.238053    4.394664   -2.894655
    126          1           0        3.033748   -1.643330   -4.608019
    127          1           0        3.633350   -2.139223    3.783909
    128          1           0        3.885217    0.589796    4.436682
    129          1           0        1.570839   -1.073727    3.533076
    130          1           0        1.469632    0.644153    3.093805
    131          1           0        1.606995    0.232793    4.776532
    132          1           0        6.011752   -0.266053    3.768814
    133          1           0        6.251109   -1.954383    3.187923
    134          1           0        4.944471   -2.067629    5.715253
    135          1           0        5.980597   -0.688538    5.812334
    136          1           0        3.909226    4.749906    3.229341
    137          1           0        3.357386    6.090220    2.281593
    138          1           0        5.112904    5.823570    2.399036
    139          1           0        3.973230    7.499550    0.666076
    140          1           0        4.922050    8.190981   -0.772114
    141          1           0        5.644376    7.049300    0.397600
    142          1           0        3.386953    3.146601   -5.112724
    143          1           0        1.843434    0.623328   -5.440467
    144          1           0        1.315328    3.934866   -5.577605
    145          1           0        0.801710    3.315116   -3.968838
    146          1           0        0.610074    2.339034   -5.334912
    147          1           0        3.511937    1.492420   -7.123492
    148          1           0        3.659107   -0.214021   -6.747495
    149          1           0        5.278468    2.118211   -6.026050
    150          1           0        5.859884    0.517709   -6.613570
    151          1           0        5.355167    0.773552   -4.883216
    152          1           0        3.853192   -5.045726   -3.532681
    153          1           0        3.112307   -3.761336   -4.541457
    154          1           0        2.126310   -4.530737   -3.234509
    155          1           0        3.230458   -4.105802    1.755970
    156          1           0        5.933399   -6.496436    4.114334
    157          1           0        6.305998   -4.760972    4.725307
    158          1           0        7.092790   -5.553944    3.338079
 ---------------------------------------------------------------------

 SCF Done:  E(RCAM-B3LYP) =  -4069.81243183     A.U. after   19 cycles

 Excitation energies and oscillator strengths:

 Excited State   1:      Singlet-A      1.6526 eV  750.25 nm  f=0.1737  <S**2>=0.000
     309 -> 315        0.11703
     310 -> 316       -0.11991
     311 -> 313       -0.47858
     312 -> 314        0.49258
 This state for optimization and/or second-order correction.
 Total Energy, E(TD-HF/TD-DFT) =  -4069.75170063
 Copying the excited state density for this state as the 1-particle RhoCI density.

 Excited State   2:      Singlet-A      1.6895 eV  733.85 nm  f=0.4746  <S**2>=0.000
     309 -> 315       -0.12687
     310 -> 316       -0.12416
     311 -> 313        0.49087
     312 -> 314        0.47730

 Excited State   3:      Singlet-A      2.1840 eV  567.69 nm  f=0.0618  <S**2>=0.000
     309 -> 313       -0.34281
     310 -> 314        0.54419
     311 -> 315       -0.14319
     312 -> 316        0.23028

 Excited State   4:      Singlet-A      2.1902 eV  566.08 nm  f=0.1303  <S**2>=0.000
     309 -> 313        0.54207
     310 -> 314        0.34029
     311 -> 315        0.23454
     312 -> 316        0.14862

 Excited State   5:      Singlet-A      2.2339 eV  555.01 nm  f=0.0000  <S**2>=0.000
     312 -> 313        0.70702

 The electronic state is 1-A.
 Alpha  occ. eigenvalues --  -46.87912 -46.87415 -19.26307 -19.26297 -19.19088
 Alpha  occ. eigenvalues --  -19.19070 -19.19055 -19.18495 -19.18299 -19.17850
 Alpha  occ. eigenvalues --  -14.42556 -14.42270 -14.41558 -14.41104 -14.39536
 Alpha  occ. eigenvalues --  -14.39107 -14.38706 -14.38336 -10.39144 -10.38993
 Alpha  occ. eigenvalues --  -10.35695 -10.35176 -10.34512 -10.34032 -10.31747
 Alpha  occ. eigenvalues --  -10.31636 -10.31499 -10.31082 -10.31018 -10.30837
 Alpha  occ. eigenvalues --  -10.30689 -10.30639 -10.30329 -10.30126 -10.30086
 Alpha  occ. eigenvalues --  -10.30024 -10.29867 -10.29778 -10.29621 -10.29400
 Alpha  occ. eigenvalues --  -10.29166 -10.29123 -10.28785 -10.28649 -10.28627
 Alpha  occ. eigenvalues --  -10.28496 -10.28414 -10.28174 -10.28172 -10.28046
 Alpha  occ. eigenvalues --  -10.27938 -10.27841 -10.27746 -10.27736 -10.27689
 Alpha  occ. eigenvalues --  -10.27566 -10.27528 -10.27513 -10.27429 -10.27256
 Alpha  occ. eigenvalues --  -10.27250 -10.27210 -10.27200 -10.27193 -10.27125
 Alpha  occ. eigenvalues --  -10.26893 -10.26752 -10.26681 -10.26625 -10.26289
 Alpha  occ. eigenvalues --  -10.26220 -10.26186 -10.26133 -10.26016 -10.25991
 Alpha  occ. eigenvalues --  -10.25855 -10.25629 -10.25518 -10.25365 -10.25187
 Alpha  occ. eigenvalues --  -10.24973 -10.24909 -10.24629 -10.24598 -10.24487
 Alpha  occ. eigenvalues --  -10.24448  -3.16654  -3.16165  -1.91535  -1.91122
 Alpha  occ. eigenvalues --   -1.91048  -1.90965  -1.90636  -1.90472  -1.16664
 Alpha  occ. eigenvalues --   -1.16581  -1.08751  -1.08468  -1.07462  -1.06854
 Alpha  occ. eigenvalues --   -1.06752  -1.06703  -1.04689  -1.04275  -1.03872
 Alpha  occ. eigenvalues --   -1.03417  -1.03360  -1.02775  -1.02531  -1.01854
 Alpha  occ. eigenvalues --   -0.92083  -0.91765  -0.89602  -0.89236  -0.89234
 Alpha  occ. eigenvalues --   -0.89033  -0.88366  -0.88007  -0.87966  -0.87769
 Alpha  occ. eigenvalues --   -0.87498  -0.87467  -0.87419  -0.86866  -0.85047
 Alpha  occ. eigenvalues --   -0.84849  -0.84000  -0.83634  -0.83180  -0.82726
 Alpha  occ. eigenvalues --   -0.82703  -0.82491  -0.81649  -0.81426  -0.80697
 Alpha  occ. eigenvalues --   -0.80245  -0.78961  -0.78364  -0.77302  -0.76974
 Alpha  occ. eigenvalues --   -0.76954  -0.76728  -0.75991  -0.75673  -0.74975
 Alpha  occ. eigenvalues --   -0.74583  -0.72890  -0.72428  -0.71767  -0.71378
 Alpha  occ. eigenvalues --   -0.69947  -0.69504  -0.68959  -0.68662  -0.67771
 Alpha  occ. eigenvalues --   -0.67381  -0.67285  -0.67044  -0.65346  -0.65123
 Alpha  occ. eigenvalues --   -0.64945  -0.64693  -0.64547  -0.64470  -0.64347
 Alpha  occ. eigenvalues --   -0.63957  -0.62354  -0.62120  -0.60603  -0.60090
 Alpha  occ. eigenvalues --   -0.59884  -0.59632  -0.59090  -0.58759  -0.58612
 Alpha  occ. eigenvalues --   -0.58206  -0.57680  -0.57418  -0.57378  -0.56996
 Alpha  occ. eigenvalues --   -0.56446  -0.56022  -0.55963  -0.55751  -0.55671
 Alpha  occ. eigenvalues --   -0.55406  -0.55255  -0.55030  -0.54579  -0.54298
 Alpha  occ. eigenvalues --   -0.53947  -0.53797  -0.53457  -0.53328  -0.53029
 Alpha  occ. eigenvalues --   -0.52993  -0.52957  -0.52892  -0.52736  -0.52473
 Alpha  occ. eigenvalues --   -0.52469  -0.52149  -0.52051  -0.51706  -0.51516
 Alpha  occ. eigenvalues --   -0.51473  -0.51279  -0.50985  -0.50803  -0.50248
 Alpha  occ. eigenvalues --   -0.50116  -0.50079  -0.49805  -0.49629  -0.49623
 Alpha  occ. eigenvalues --   -0.49344  -0.49299  -0.49164  -0.49031  -0.48911
 Alpha  occ. eigenvalues --   -0.48683  -0.48639  -0.48539  -0.48379  -0.48157
 Alpha  occ. eigenvalues --   -0.48117  -0.47800  -0.47421  -0.47399  -0.46889
 Alpha  occ. eigenvalues --   -0.46883  -0.46611  -0.46501  -0.46467  -0.46392
 Alpha  occ. eigenvalues --   -0.46257  -0.46017  -0.45904  -0.45828  -0.45603
 Alpha  occ. eigenvalues --   -0.45288  -0.44989  -0.44702  -0.44620  -0.44373
 Alpha  occ. eigenvalues --   -0.44259  -0.44243  -0.44150  -0.44133  -0.43950
 Alpha  occ. eigenvalues --   -0.43853  -0.43737  -0.43575  -0.43456  -0.43396
 Alpha  occ. eigenvalues --   -0.43203  -0.43126  -0.42787  -0.42760  -0.42690
 Alpha  occ. eigenvalues --   -0.42681  -0.42309  -0.42057  -0.41810  -0.41764
 Alpha  occ. eigenvalues --   -0.41582  -0.41470  -0.41292  -0.41233  -0.41034
 Alpha  occ. eigenvalues --   -0.40898  -0.40812  -0.40635  -0.40557  -0.40537
 Alpha  occ. eigenvalues --   -0.40257  -0.40244  -0.40120  -0.39462  -0.39161
 Alpha  occ. eigenvalues --   -0.38529  -0.38130  -0.37774  -0.37540  -0.37403
 Alpha  occ. eigenvalues --   -0.37312  -0.37027  -0.36999  -0.36770  -0.36658
 Alpha  occ. eigenvalues --   -0.36259  -0.36005  -0.34398  -0.34015  -0.33850
 Alpha  occ. eigenvalues --   -0.33739  -0.33303  -0.32920  -0.31579  -0.31150
 Alpha  occ. eigenvalues --   -0.31057  -0.30742  -0.30152  -0.29761  -0.29612
 Alpha  occ. eigenvalues --   -0.29461  -0.29068  -0.28927  -0.24194  -0.23784
 Alpha  occ. eigenvalues --   -0.21249  -0.20860
 Alpha virt. eigenvalues --   -0.08913  -0.08531  -0.01876  -0.01435  -0.00231
 Alpha virt. eigenvalues --    0.00192   0.02065   0.02364   0.02579   0.03586
 Alpha virt. eigenvalues --    0.04656   0.04905   0.05032   0.05277   0.06176

 Mulliken charges:
               1
     1  Mg   0.838914
     2  C   -0.002617
     3  C   -0.094406
     4  C   -0.045873
     5  C   -0.064191
     6  N   -0.256905
     7  C   -0.051808
     8  C   -0.014092
     9  C   -0.086886
    10  C    0.046376
    11  C    0.104805
    12  C    0.053681
    13  C   -0.073830
    14  H    0.041677
    15  N   -0.433132
    16  C    0.168091
    17  C   -0.177685
    18  C   -0.005278
    19  C    0.148678
    20  C    0.110039
    21  C    0.010508
    22  O   -0.250014
    23  C    0.063222
    24  N   -0.341430
    25  C    0.041627
    26  C   -0.028085
    27  C   -0.024175
    28  C    0.075846
    29  C    0.076159
    30  C    0.034805
    31  C   -0.007092
    32  N   -0.310630
    33  C    0.080934
    34  C   -0.170478
    35  C    0.008245
    36  C    0.083411
    37  C    0.127402
    38  C    0.045718
    39  O   -0.188254
    40  C   -0.005196
    41  C    0.213110
    42  O   -0.258032
    43  O   -0.304712
    44  C    0.157581
    45  H   -0.017539
    46  H   -0.017279
    47  H   -0.041272
    48  H    0.001275
    49  H   -0.003771
    50  H    0.025572
    51  H    0.016153
    52  H    0.016956
    53  H    0.010220
    54  H    0.044700
    55  H    0.017307
    56  H    0.017783
    57  H    0.006538
    58  H    0.027025
    59  H    0.037197
    60  H    0.038580
    61  H    0.034574
    62  H    0.028054
    63  H    0.016448
    64  H    0.009554
    65  H    0.023093
    66  H    0.012368
    67  H    0.005036
    68  H    0.006842
    69  H    0.004334
    70  H    0.009038
    71  H    0.023801
    72  H    0.028556
    73  H    0.046727
    74  H    0.009314
    75  H    0.046600
    76  H    0.035575
    77  H    0.043104
    78  H    0.047996
    79  H    0.053595
    80  Mg   0.837375
    81  C   -0.017083
    82  C   -0.087956
    83  C   -0.045049
    84  C   -0.059441
    85  N   -0.254498
    86  C   -0.050156
    87  C   -0.014861
    88  C   -0.090981
    89  C    0.045041
    90  C    0.114500
    91  C    0.062791
    92  C   -0.077352
    93  H    0.034512
    94  N   -0.423471
    95  C    0.162021
    96  C   -0.174122
    97  C   -0.008288
    98  C    0.151783
    99  C    0.099325
   100  C    0.015163
   101  O   -0.254344
   102  C    0.061246
   103  N   -0.349887
   104  C    0.037029
   105  C   -0.020530
   106  C   -0.035595
   107  C    0.088595
   108  C    0.072394
   109  C    0.034574
   110  C   -0.007526
   111  N   -0.324830
   112  C    0.078280
   113  C   -0.158106
   114  C    0.001963
   115  C    0.096833
   116  C    0.129856
   117  C    0.042888
   118  O   -0.189540
   119  C    0.000700
   120  C    0.210957
   121  O   -0.250928
   122  O   -0.306251
   123  C    0.152184
   124  H   -0.019724
   125  H   -0.016626
   126  H   -0.037711
   127  H   -0.002547
   128  H   -0.005317
   129  H    0.021921
   130  H    0.018348
   131  H    0.010731
   132  H    0.014303
   133  H    0.037818
   134  H    0.019148
   135  H    0.019295
   136  H    0.008518
   137  H    0.027561
   138  H    0.038661
   139  H    0.038653
   140  H    0.035477
   141  H    0.033625
   142  H    0.013635
   143  H    0.016611
   144  H    0.023028
   145  H    0.012124
   146  H    0.007566
   147  H    0.005675
   148  H    0.004857
   149  H    0.010237
   150  H    0.017478
   151  H    0.029895
   152  H    0.043307
   153  H    0.008728
   154  H    0.056277
   155  H    0.033487
   156  H    0.042985
   157  H    0.048979
   158  H    0.053701
 Sum of Mulliken charges =  -0.00000

 Dipole moment (field-independent basis, Debye):
    X=             -2.9511    Y=              1.6856    Z=              6.6707  Tot=              7.4865
 Quadrupole moment (field-independent basis, Debye-Ang):
   XX=           -519.5430   YY=           -523.3821   ZZ=           -476.2211
   XY=             16.2616   XZ=              2.7658   YZ=            -23.2817

 Normal termination of Gaussian 16 at Thu Sep  9 03:22:30 2021.
