 Gaussian 16, Revision A.03,
 Gaussian 16:  ES64L-G16RevA.03 25-Dec-2016

 -----------------------------------
 #p cam-b3lyp/Def2SVP td=(nstates=5)
 -----------------------------------

 --------------------------------
 TDDFT excited states in gaussian
 --------------------------------
 Symbolic Z-matrix:
 Charge =  0 Multiplicity = 1

                         Standard orientation:
 ---------------------------------------------------------------------
 Center     Atomic      Atomic             Coordinates (Angstroms)
 Number     Number       Type             X           Y           Z
 ---------------------------------------------------------------------
      1         12           0        6.766728   -0.554339    0.635701
      2          6           0        7.092344    2.430736   -1.312506
      3          6           0        7.372565    1.358599    3.395536
      4          6           0        6.934793   -3.234416    2.322581
      5          6           0        7.315194   -2.352908   -2.298579
      6          7           0        7.165055    1.609311    0.881868
      7          6           0        7.203595    2.654688    0.061580
      8          6           0        7.297704    4.020469    0.805327
      9          6           0        7.941771    3.517698    2.174413
     10          6           0        7.434768    2.086316    2.170142
     11          6           0        9.466867    3.498628    2.159470
     12          6           0        5.891599    4.668973    1.037800
     13          6           0        5.912661    6.141037    1.459625
     14          1           0        4.860743    7.022957    0.976887
     15          7           0        6.620906   -0.853800    2.582983
     16          6           0        6.891355    0.042015    3.562605
     17          6           0        6.630660   -0.658317    4.838636
     18          6           0        6.369577   -2.090935    4.526326
     19          6           0        6.660883   -2.122732    3.115827
     20          6           0        6.597973    0.035028    6.166022
     21          6           0        5.937801   -3.249984    5.367935
     22          8           0        5.994900   -4.455521    4.946041
     23          6           0        5.524104   -2.941190    6.748711
     24          7           0        7.296705   -2.512138    0.141956
     25          6           0        7.227934   -3.494720    1.046824
     26          6           0        7.377986   -4.841238    0.403154
     27          6           0        7.321086   -4.586946   -1.172235
     28          6           0        7.224578   -3.041383   -1.158466
     29          6           0        8.660638   -5.609660    0.750059
     30          6           0        6.263552   -5.384864   -1.975582
     31          6           0        4.874401   -4.926205   -1.592190
     32          7           0        6.963995   -0.086686   -1.474614
     33          6           0        7.211295   -0.989604   -2.518768
     34          6           0        7.370693   -0.193539   -3.749597
     35          6           0        7.220530    1.126894   -3.330367
     36          6           0        7.008535    1.155588   -1.922344
     37          6           0        7.678164   -0.707224   -5.040342
     38          6           0        7.214380    2.521758   -3.740456
     39          8           0        7.250232    3.107322   -4.823656
     40          6           0        7.252604    3.428830   -2.432180
     41          6           0        6.197533    4.490446   -2.584186
     42          8           0        4.985947    4.191553   -2.593644
     43          8           0        6.762845    5.700616   -2.455917
     44          6           0        5.765488    6.798378   -2.567063
     45          1           0        7.782679    1.811993    4.300070
     46          1           0        6.892133   -4.190718    2.848038
     47          1           0        7.404278   -2.850593   -3.265960
     48          1           0        7.953255    4.751581    0.331879
     49          1           0        7.544517    4.057850    3.033568
     50          1           0        9.858229    3.711348    1.164730
     51          1           0        9.748452    2.492981    2.472322
     52          1           0        9.870104    4.171839    2.916413
     53          1           0        5.434754    4.228549    1.924017
     54          1           0        5.263799    4.556369    0.153203
     55          1           0        6.892781    6.589155    1.293902
     56          1           0        5.771990    6.188930    2.539495
     57          1           0        6.989892    1.049083    6.097936
     58          1           0        7.302401   -0.485460    6.814544
     59          1           0        5.604200    0.017636    6.613734
     60          1           0        6.350266   -2.460334    7.272909
     61          1           0        5.164056   -3.878465    7.171477
     62          1           0        4.713644   -2.212308    6.719840
     63          1           0        6.561673   -5.503864    0.687734
     64          1           0        8.265121   -4.830549   -1.660222
     65          1           0        8.478154   -6.595328    1.178852
     66          1           0        9.250945   -4.992135    1.426441
     67          1           0        9.352539   -5.743020   -0.081148
     68          1           0        6.328017   -6.446081   -1.737655
     69          1           0        6.373636   -5.279697   -3.054967
     70          1           0        4.667471   -5.503139   -0.691546
     71          1           0        4.162602   -5.167281   -2.382403
     72          1           0        4.865961   -3.872364   -1.313205
     73          1           0        7.029737   -0.180739   -5.740574
     74          1           0        7.518890   -1.784322   -5.086115
     75          1           0        8.731057   -0.437070   -5.119636
     76          1           0        8.254574    3.852832   -2.373881
     77          1           0        6.105701    7.461849   -3.362233
     78          1           0        5.656598    7.220451   -1.567863
     79          1           0        4.779871    6.518201   -2.940424
     80         12           0       -6.404630   -0.762027   -0.512328
     81          6           0       -8.862448    1.585281    0.640221
     82          6           0       -4.650999    1.898839   -1.728517
     83          6           0       -4.452937   -2.823132   -1.930129
     84          6           0       -8.842419   -3.237491   -0.238475
     85          7           0       -6.807497    1.412647   -0.485139
     86          6           0       -7.742631    2.193093    0.035236
     87          6           0       -7.422924    3.710715   -0.029223
     88          6           0       -6.403686    3.689253   -1.270022
     89          6           0       -5.890000    2.256847   -1.139626
     90          6           0       -7.092678    3.828798   -2.617296
     91          6           0       -6.726646    4.230899    1.277147
     92          6           0       -6.665619    5.754130    1.410506
     93          1           0       -6.797407    6.342210    2.740645
     94          7           0       -4.569247   -0.511272   -1.224399
     95          6           0       -4.012446    0.641623   -1.651118
     96          6           0       -2.654633    0.291988   -2.096390
     97          6           0       -2.512958   -1.188758   -2.051420
     98          6           0       -3.876119   -1.574858   -1.746765
     99          6           0       -1.617935    1.323924   -2.433722
    100          6           0       -1.346683   -2.106176   -2.262003
    101          8           0       -1.502074   -3.369894   -2.409364
    102          6           0       -0.026467   -1.470844   -2.383919
    103          7           0       -6.670000   -2.700778   -1.214593
    104          6           0       -5.643813   -3.391845   -1.741179
    105          6           0       -6.001964   -4.847754   -1.921297
    106          6           0       -7.405128   -5.040089   -1.178520
    107          6           0       -7.670042   -3.578449   -0.755643
    108          6           0       -6.121493   -5.329485   -3.367001
    109          6           0       -7.480803   -6.148808   -0.093305
    110          6           0       -6.618072   -5.772744    1.089771
    111          7           0       -8.419249   -0.882473    0.258932
    112          6           0       -9.269609   -2.009818    0.251136
    113          6           0      -10.578027   -1.571882    0.779030
    114          6           0      -10.403675   -0.203997    1.037828
    115          6           0       -9.086278    0.187666    0.676488
    116          6           0      -11.735451   -2.389004    0.916177
    117          6           0      -11.037844    1.000001    1.524593
    118          8           0      -12.120248    1.260983    2.048066
    119          6           0      -10.107982    2.239507    1.170556
    120          6           0       -9.981059    3.092019    2.403286
    121          8           0       -9.403340    2.657753    3.415344
    122          8           0      -10.367123    4.347678    2.112331
    123          6           0      -10.248653    5.233797    3.300855
    124          1           0       -4.136702    2.637153   -2.344383
    125          1           0       -3.786237   -3.598851   -2.313845
    126          1           0       -9.624142   -3.971120   -0.030206
    127          1           0       -8.271771    4.344523   -0.256236
    128          1           0       -5.593242    4.399406   -1.127779
    129          1           0       -8.168208    3.800630   -2.524626
    130          1           0       -6.742473    2.996981   -3.214353
    131          1           0       -6.745523    4.732459   -3.126423
    132          1           0       -5.654033    4.003649    1.226018
    133          1           0       -7.189039    3.810082    2.148782
    134          1           0       -7.332876    6.257155    0.700095
    135          1           0       -5.666012    6.087984    1.121806
    136          1           0       -2.061749    2.322087   -2.534219
    137          1           0       -1.247687    1.088986   -3.437505
    138          1           0       -0.777042    1.319671   -1.736901
    139          1           0       -0.037628   -0.771786   -3.216772
    140          1           0        0.689503   -2.293119   -2.439912
    141          1           0        0.162605   -0.880741   -1.480234
    142          1           0       -5.265241   -5.488156   -1.452023
    143          1           0       -8.204768   -5.313377   -1.882589
    144          1           0       -5.454847   -6.181228   -3.599768
    145          1           0       -5.914849   -4.494481   -4.023203
    146          1           0       -7.123778   -5.622622   -3.674723
    147          1           0       -7.080803   -7.088116   -0.483009
    148          1           0       -8.489998   -6.347137    0.251921
    149          1           0       -5.619410   -6.093912    0.778945
    150          1           0       -6.942297   -6.301567    1.983793
    151          1           0       -6.587504   -4.685316    1.224719
    152          1           0      -12.166749   -2.158477    1.881235
    153          1           0      -11.488610   -3.445313    0.832249
    154          1           0      -12.325020   -2.036398    0.065670
    155          1           0      -10.579069    2.777845    0.347235
    156          1           0      -11.232152    5.686161    3.461407
    157          1           0       -9.408941    5.919235    3.079936
    158          1           0      -10.072901    4.763389    4.261210
 ---------------------------------------------------------------------

 SCF Done:  E(RCAM-B3LYP) =  -4069.81234693     A.U. after   19 cycles

 Excitation energies and oscillator strengths:

 Excited State   1:      Singlet-A      1.6679 eV  743.36 nm  f=0.2378  <S**2>=0.000
     309 -> 315        0.11048
     310 -> 316        0.13251
     311 -> 313       -0.43798
     312 -> 314        0.52857
 This state for optimization and/or second-order correction.
 Total Energy, E(TD-HF/TD-DFT) =  -4069.75105289
 Copying the excited state density for this state as the 1-particle RhoCI density.

 Excited State   2:      Singlet-A      1.6868 eV  735.03 nm  f=0.5393  <S**2>=0.000
     309 -> 315       -0.13679
     310 -> 316        0.11258
     311 -> 313        0.52767
     312 -> 314        0.43740

 Excited State   3:      Singlet-A      2.1874 eV  566.81 nm  f=0.0316  <S**2>=0.000
     309 -> 313       -0.23839
     310 -> 314        0.59693
     311 -> 315       -0.10087
     312 -> 316       -0.25417

 Excited State   4:      Singlet-A      2.1949 eV  564.87 nm  f=0.1560  <S**2>=0.000
     309 -> 313        0.59480
     310 -> 314        0.23672
     311 -> 315        0.25985
     312 -> 316       -0.10330

 Excited State   5:      Singlet-A      2.6195 eV  473.31 nm  f=0.0000  <S**2>=0.000
     312 -> 313        0.70694

 The electronic state is 1-A.
 Alpha  occ. eigenvalues --  -46.87919 -46.87514 -19.26520 -19.26269 -19.19272
 Alpha  occ. eigenvalues --  -19.19073 -19.18881 -19.18509 -19.18321 -19.17919
 Alpha  occ. eigenvalues --  -14.42573 -14.42352 -14.41553 -14.41215 -14.39518
 Alpha  occ. eigenvalues --  -14.39197 -14.38716 -14.38454 -10.39319 -10.38999
 Alpha  occ. eigenvalues --  -10.35512 -10.35175 -10.34545 -10.34100 -10.31928
 Alpha  occ. eigenvalues --  -10.31696 -10.31538 -10.31171 -10.31036 -10.30865
 Alpha  occ. eigenvalues --  -10.30696 -10.30619 -10.30286 -10.30254 -10.30211
 Alpha  occ. eigenvalues --  -10.30019 -10.29983 -10.29767 -10.29742 -10.29358
 Alpha  occ. eigenvalues --  -10.29267 -10.29229 -10.28904 -10.28737 -10.28594
 Alpha  occ. eigenvalues --  -10.28575 -10.28492 -10.28254 -10.28247 -10.28005
 Alpha  occ. eigenvalues --  -10.27910 -10.27842 -10.27841 -10.27691 -10.27564
 Alpha  occ. eigenvalues --  -10.27532 -10.27531 -10.27511 -10.27487 -10.27396
 Alpha  occ. eigenvalues --  -10.27340 -10.27327 -10.27285 -10.27258 -10.27108
 Alpha  occ. eigenvalues --  -10.26931 -10.26903 -10.26590 -10.26448 -10.26354
 Alpha  occ. eigenvalues --  -10.26158 -10.26115 -10.26107 -10.26032 -10.25955
 Alpha  occ. eigenvalues --  -10.25888 -10.25788 -10.25731 -10.25468 -10.25289
 Alpha  occ. eigenvalues --  -10.24959 -10.24889 -10.24720 -10.24629 -10.24617
 Alpha  occ. eigenvalues --  -10.24547  -3.16663  -3.16264  -1.91545  -1.91147
 Alpha  occ. eigenvalues --   -1.91131  -1.90973  -1.90735  -1.90572  -1.16870
 Alpha  occ. eigenvalues --   -1.16561  -1.08788  -1.08534  -1.07279  -1.06888
 Alpha  occ. eigenvalues --   -1.06857  -1.06761  -1.04706  -1.04348  -1.03867
 Alpha  occ. eigenvalues --   -1.03516  -1.03348  -1.02891  -1.02525  -1.01963
 Alpha  occ. eigenvalues --   -0.92108  -0.91847  -0.89588  -0.89360  -0.89331
 Alpha  occ. eigenvalues --   -0.89022  -0.88347  -0.88092  -0.87989  -0.87792
 Alpha  occ. eigenvalues --   -0.87653  -0.87538  -0.87365  -0.86888  -0.85118
 Alpha  occ. eigenvalues --   -0.84865  -0.83990  -0.83755  -0.83028  -0.82771
 Alpha  occ. eigenvalues --   -0.82722  -0.82481  -0.81747  -0.81480  -0.80726
 Alpha  occ. eigenvalues --   -0.80302  -0.78899  -0.78437  -0.77321  -0.77066
 Alpha  occ. eigenvalues --   -0.76992  -0.76780  -0.76062  -0.75697  -0.74973
 Alpha  occ. eigenvalues --   -0.74672  -0.72882  -0.72549  -0.71784  -0.71444
 Alpha  occ. eigenvalues --   -0.69931  -0.69636  -0.69000  -0.68684  -0.67758
 Alpha  occ. eigenvalues --   -0.67454  -0.67357  -0.67045  -0.65429  -0.65142
 Alpha  occ. eigenvalues --   -0.64984  -0.64740  -0.64634  -0.64524  -0.64340
 Alpha  occ. eigenvalues --   -0.64074  -0.62465  -0.62167  -0.60529  -0.60143
 Alpha  occ. eigenvalues --   -0.59939  -0.59657  -0.59101  -0.58854  -0.58622
 Alpha  occ. eigenvalues --   -0.58283  -0.57754  -0.57435  -0.57405  -0.57082
 Alpha  occ. eigenvalues --   -0.56430  -0.56160  -0.56043  -0.55766  -0.55626
 Alpha  occ. eigenvalues --   -0.55439  -0.55277  -0.55127  -0.54641  -0.54376
 Alpha  occ. eigenvalues --   -0.54041  -0.53782  -0.53399  -0.53347  -0.53077
 Alpha  occ. eigenvalues --   -0.53059  -0.52981  -0.52854  -0.52769  -0.52453
 Alpha  occ. eigenvalues --   -0.52436  -0.52281  -0.52036  -0.51756  -0.51754
 Alpha  occ. eigenvalues --   -0.51497  -0.51315  -0.51069  -0.50639  -0.50222
 Alpha  occ. eigenvalues --   -0.50090  -0.50003  -0.49798  -0.49714  -0.49633
 Alpha  occ. eigenvalues --   -0.49342  -0.49311  -0.49229  -0.49036  -0.48973
 Alpha  occ. eigenvalues --   -0.48739  -0.48559  -0.48528  -0.48424  -0.48252
 Alpha  occ. eigenvalues --   -0.48137  -0.47801  -0.47430  -0.47399  -0.46932
 Alpha  occ. eigenvalues --   -0.46899  -0.46697  -0.46571  -0.46470  -0.46412
 Alpha  occ. eigenvalues --   -0.46274  -0.46109  -0.45970  -0.45954  -0.45706
 Alpha  occ. eigenvalues --   -0.45267  -0.45077  -0.44716  -0.44600  -0.44384
 Alpha  occ. eigenvalues --   -0.44332  -0.44248  -0.44193  -0.44134  -0.43988
 Alpha  occ. eigenvalues --   -0.43928  -0.43741  -0.43646  -0.43497  -0.43443
 Alpha  occ. eigenvalues --   -0.43250  -0.43142  -0.42895  -0.42819  -0.42766
 Alpha  occ. eigenvalues --   -0.42705  -0.42407  -0.42090  -0.41842  -0.41824
 Alpha  occ. eigenvalues --   -0.41661  -0.41533  -0.41329  -0.41255  -0.40983
 Alpha  occ. eigenvalues --   -0.40908  -0.40851  -0.40634  -0.40584  -0.40522
 Alpha  occ. eigenvalues --   -0.40393  -0.40370  -0.40090  -0.39450  -0.39308
 Alpha  occ. eigenvalues --   -0.38540  -0.38228  -0.37906  -0.37537  -0.37408
 Alpha  occ. eigenvalues --   -0.37399  -0.37134  -0.37058  -0.36903  -0.36676
 Alpha  occ. eigenvalues --   -0.36319  -0.36096  -0.34407  -0.34111  -0.34001
 Alpha  occ. eigenvalues --   -0.33763  -0.33308  -0.33030  -0.31413  -0.31150
 Alpha  occ. eigenvalues --   -0.31074  -0.30825  -0.30184  -0.29829  -0.29560
 Alpha  occ. eigenvalues --   -0.29446  -0.29154  -0.29056  -0.24200  -0.23892
 Alpha  occ. eigenvalues --   -0.21239  -0.20964
 Alpha virt. eigenvalues --   -0.08887  -0.08631  -0.01855  -0.01535  -0.00162
 Alpha virt. eigenvalues --    0.00154   0.02074   0.02347   0.02901   0.03351
 Alpha virt. eigenvalues --    0.04586   0.04860   0.04874   0.05262   0.06005

 Mulliken charges:
               1
     1  Mg   0.837092
     2  C   -0.003947
     3  C   -0.094281
     4  C   -0.045361
     5  C   -0.063583
     6  N   -0.256879
     7  C   -0.052887
     8  C   -0.013873
     9  C   -0.086979
    10  C    0.046152
    11  C    0.104726
    12  C    0.053497
    13  C   -0.071611
    14  H    0.034945
    15  N   -0.433327
    16  C    0.168435
    17  C   -0.177013
    18  C   -0.003637
    19  C    0.148715
    20  C    0.110091
    21  C    0.012673
    22  O   -0.248825
    23  C    0.062333
    24  N   -0.341184
    25  C    0.041405
    26  C   -0.028320
    27  C   -0.024040
    28  C    0.074839
    29  C    0.076065
    30  C    0.034900
    31  C   -0.004964
    32  N   -0.310229
    33  C    0.079691
    34  C   -0.170100
    35  C    0.008034
    36  C    0.081984
    37  C    0.127454
    38  C    0.045260
    39  O   -0.188987
    40  C   -0.004985
    41  C    0.213223
    42  O   -0.259344
    43  O   -0.304215
    44  C    0.157982
    45  H   -0.017323
    46  H   -0.016107
    47  H   -0.040987
    48  H    0.000983
    49  H   -0.003973
    50  H    0.025546
    51  H    0.016771
    52  H    0.016933
    53  H    0.011063
    54  H    0.042612
    55  H    0.018402
    56  H    0.018413
    57  H    0.005877
    58  H    0.027266
    59  H    0.039985
    60  H    0.037367
    61  H    0.036369
    62  H    0.031712
    63  H    0.017446
    64  H    0.009512
    65  H    0.023723
    66  H    0.012353
    67  H    0.004932
    68  H    0.007038
    69  H    0.004749
    70  H    0.009893
    71  H    0.021250
    72  H    0.026798
    73  H    0.046892
    74  H    0.009665
    75  H    0.046224
    76  H    0.035491
    77  H    0.043312
    78  H    0.046636
    79  H    0.052249
    80  Mg   0.837228
    81  C   -0.016893
    82  C   -0.087503
    83  C   -0.045525
    84  C   -0.064990
    85  N   -0.254521
    86  C   -0.050271
    87  C   -0.015060
    88  C   -0.090459
    89  C    0.045556
    90  C    0.114322
    91  C    0.062528
    92  C   -0.077594
    93  H    0.033912
    94  N   -0.423603
    95  C    0.162730
    96  C   -0.174217
    97  C   -0.007614
    98  C    0.152169
    99  C    0.099142
   100  C    0.015255
   101  O   -0.254153
   102  C    0.061408
   103  N   -0.350002
   104  C    0.037667
   105  C   -0.019844
   106  C   -0.034633
   107  C    0.088602
   108  C    0.073744
   109  C    0.034841
   110  C   -0.007603
   111  N   -0.323934
   112  C    0.077958
   113  C   -0.163589
   114  C    0.002017
   115  C    0.095815
   116  C    0.131584
   117  C    0.042032
   118  O   -0.188670
   119  C    0.000998
   120  C    0.211192
   121  O   -0.251311
   122  O   -0.305588
   123  C    0.152195
   124  H   -0.018641
   125  H   -0.015730
   126  H   -0.040927
   127  H   -0.000944
   128  H   -0.004094
   129  H    0.022199
   130  H    0.014716
   131  H    0.016450
   132  H    0.013960
   133  H    0.037355
   134  H    0.020772
   135  H    0.019649
   136  H    0.009323
   137  H    0.028538
   138  H    0.042850
   139  H    0.041335
   140  H    0.035766
   141  H    0.034188
   142  H    0.014240
   143  H    0.012119
   144  H    0.024824
   145  H    0.011833
   146  H    0.005466
   147  H    0.005935
   148  H    0.003391
   149  H    0.010918
   150  H    0.017583
   151  H    0.030220
   152  H    0.045524
   153  H    0.008190
   154  H    0.046589
   155  H    0.034806
   156  H    0.043643
   157  H    0.049380
   158  H    0.053257
 Sum of Mulliken charges =  -0.00000

 Dipole moment (field-independent basis, Debye):
    X=              4.6786    Y=              2.9244    Z=              1.3924  Tot=              5.6904
 Quadrupole moment (field-independent basis, Debye-Ang):
   XX=           -543.6416   YY=           -467.0907   ZZ=           -518.2411
   XY=             12.8257   XZ=             57.3377   YZ=             29.0409

 Normal termination of Gaussian 16 at Sat Sep 11 03:57:17 2021.
