 Gaussian 16, Revision A.03,
 Gaussian 16:  ES64L-G16RevA.03 25-Dec-2016

 -----------------------------------
 #p cam-b3lyp/Def2SVP td=(nstates=5)
 -----------------------------------

 --------------------------------
 TDDFT excited states in gaussian
 --------------------------------
 Symbolic Z-matrix:
 Charge =  0 Multiplicity = 1

                         Standard orientation:
 ---------------------------------------------------------------------
 Center     Atomic      Atomic             Coordinates (Angstroms)
 Number     Number       Type             X           Y           Z
 ---------------------------------------------------------------------
      1         12           0        8.082861    0.490931    0.939104
      2          6           0        8.530397   -2.403976   -1.117942
      3          6           0        9.252419    2.345965   -1.675097
      4          6           0        8.126854    2.998716    2.879645
      5          6           0        8.042746   -1.650575    3.688286
      6          7           0        8.770481   -0.072283   -1.088361
      7          6           0        8.835933   -1.209376   -1.773858
      8          6           0        9.187198   -1.004729   -3.277888
      9          6           0        9.927815    0.403358   -3.174085
     10          6           0        9.252564    0.941465   -1.924925
     11          6           0       11.425645    0.286008   -2.910956
     12          6           0        7.910366   -0.915342   -4.179798
     13          6           0        8.163231   -1.043234   -5.684809
     14          1           0        7.176108   -1.728990   -6.504977
     15          7           0        8.141379    2.423599    0.533863
     16          6           0        8.637652    3.001492   -0.586422
     17          6           0        8.451586    4.457889   -0.410442
     18          6           0        7.980601    4.691340    0.983031
     19          6           0        8.090606    3.365845    1.536512
     20          6           0        8.667155    5.453562   -1.508583
     21          6           0        7.516553    5.916863    1.704755
     22          8           0        7.373317    5.944925    2.974901
     23          6           0        7.316308    7.125654    0.885141
     24          7           0        8.304348    0.683471    3.005867
     25          6           0        8.227191    1.879468    3.599688
     26          6           0        8.131025    1.743734    5.090415
     27          6           0        7.912932    0.188552    5.379550
     28          6           0        8.008967   -0.337430    3.926144
     29          6           0        9.342637    2.246043    5.887719
     30          6           0        6.675108   -0.202641    6.225232
     31          6           0        5.410220    0.093337    5.450924
     32          7           0        8.075626   -1.656921    1.251712
     33          6           0        8.080475   -2.329893    2.482062
     34          6           0        8.184053   -3.770617    2.186002
     35          6           0        8.249386   -3.835017    0.795524
     36          6           0        8.216807   -2.516465    0.258262
     37          6           0        8.265615   -4.815403    3.148397
     38          6           0        8.363961   -4.709674   -0.360203
     39          8           0        8.338174   -5.929435   -0.530531
     40          6           0        8.673213   -3.812423   -1.638926
     41          6           0        7.745567   -4.252908   -2.738360
     42          8           0        6.514543   -4.068676   -2.648890
     43          8           0        8.466345   -4.601446   -3.815180
     44          6           0        7.604980   -5.020750   -4.952892
     45          1           0        9.822818    2.999966   -2.337568
     46          1           0        8.032100    3.829638    3.581805
     47          1           0        7.950849   -2.383611    4.491820
     48          1           0        9.864345   -1.751880   -3.692208
     49          1           0        9.708139    1.042703   -4.028896
     50          1           0       11.715147   -0.745250   -2.709416
     51          1           0       11.618104    0.912625   -2.039863
     52          1           0       11.998107    0.725210   -3.728370
     53          1           0        7.515161    0.099827   -4.143679
     54          1           0        7.169782   -1.655371   -3.874482
     55          1           0        9.163095   -1.426851   -5.889793
     56          1           0        8.163002   -0.042707   -6.117412
     57          1           0        9.169052    5.003647   -2.364282
     58          1           0        9.376674    6.191419   -1.134606
     59          1           0        7.741211    5.949093   -1.800831
     60          1           0        8.253173    7.385140    0.391685
     61          1           0        6.898709    7.876992    1.554434
     62          1           0        6.603897    6.899861    0.091140
     63          1           0        7.280778    2.302138    5.479890
     64          1           0        8.752970   -0.248786    5.919685
     65          1           0        9.094722    3.007267    6.627841
     66          1           0       10.082631    2.616253    5.178745
     67          1           0        9.905773    1.467834    6.402194
     68          1           0        6.637736    0.389392    7.139041
     69          1           0        6.664030   -1.254559    6.510885
     70          1           0        5.246187    1.152121    5.648158
     71          1           0        4.582743   -0.507218    5.830170
     72          1           0        5.565262   -0.017972    4.377584
     73          1           0        7.605643   -5.607656    2.795211
     74          1           0        7.971152   -4.466232    4.137828
     75          1           0        9.325944   -5.060811    3.090652
     76          1           0        9.719118   -3.980138   -1.894028
     77          1           0        7.923818   -6.021336   -5.245134
     78          1           0        7.672008   -4.229902   -5.700202
     79          1           0        6.554164   -5.198889   -4.721825
     80         12           0       -7.691869    0.436383   -0.836613
     81          6           0       -9.787550   -1.715505    1.127207
     82          6           0      -10.001477    2.895696   -0.334534
     83          6           0       -6.102199    2.218556   -2.925694
     84          6           0       -6.175748   -2.432088   -2.108999
     85          7           0       -9.605758    0.464920    0.271762
     86          6           0      -10.270188   -0.393706    1.030472
     87          6           0      -11.477994    0.219009    1.788981
     88          6           0      -11.765949    1.464241    0.816689
     89          6           0      -10.365570    1.649915    0.236057
     90          6           0      -12.715075    1.131404   -0.322487
     91          6           0      -11.096745    0.695184    3.234638
     92          6           0      -12.287284    1.017863    4.140315
     93          1           0      -12.182224    0.710392    5.564003
     94          7           0       -7.728032    2.396983   -1.142114
     95          6           0       -8.737666    3.246279   -0.858193
     96          6           0       -8.279154    4.575381   -1.291101
     97          6           0       -6.982757    4.415096   -2.004127
     98          6           0       -6.895753    2.970101   -2.071282
     99          6           0       -9.011571    5.840203   -0.948766
    100          6           0       -5.992298    5.399515   -2.548281
    101          8           0       -5.051265    5.039822   -3.340682
    102          6           0       -6.212335    6.811033   -2.200876
    103          7           0       -6.482118   -0.035617   -2.460201
    104          6           0       -5.869825    0.928659   -3.169567
    105          6           0       -4.840534    0.345349   -4.108009
    106          6           0       -4.718017   -1.197662   -3.705880
    107          6           0       -5.810352   -1.262617   -2.615931
    108          6           0       -5.159322    0.458759   -5.598616
    109          6           0       -3.298004   -1.724598   -3.361530
    110          6           0       -2.808722   -1.089793   -2.079725
    111          7           0       -7.786250   -1.683506   -0.430160
    112          6           0       -7.086380   -2.712098   -1.098187
    113          6           0       -7.565526   -3.995267   -0.544731
    114          6           0       -8.535202   -3.622071    0.398105
    115          6           0       -8.666558   -2.207169    0.415600
    116          6           0       -7.141175   -5.289643   -0.957840
    117          6           0       -9.485114   -4.103835    1.374958
    118          8           0       -9.755712   -5.204151    1.854372
    119          6           0      -10.428475   -2.897363    1.800282
    120          6           0      -10.518247   -2.884936    3.301710
    121          8           0       -9.513618   -2.640979    3.992956
    122          8           0      -11.811915   -2.947127    3.666313
    123          6           0      -11.953113   -2.926481    5.146671
    124          1           0      -10.766980    3.666312   -0.429654
    125          1           0       -5.451560    2.791216   -3.590665
    126          1           0       -5.682513   -3.367011   -2.383407
    127          1           0      -12.351405   -0.419683    1.843774
    128          1           0      -12.064914    2.344363    1.380041
    129          1           0      -12.947336    0.077409   -0.358468
    130          1           0      -12.207284    1.438043   -1.227564
    131          1           0      -13.614384    1.750493   -0.256947
    132          1           0      -10.632439    1.687898    3.173839
    133          1           0      -10.460076   -0.021274    3.716260
    134          1           0      -13.230803    0.634696    3.733006
    135          1           0      -12.424457    2.101750    4.160164
    136          1           0      -10.015930    5.630892   -0.560358
    137          1           0       -9.189627    6.371363   -1.890059
    138          1           0       -8.442275    6.488579   -0.279314
    139          1           0       -7.194758    7.119944   -2.549997
    140          1           0       -5.353280    7.349107   -2.606292
    141          1           0       -6.222305    6.905199   -1.109251
    142          1           0       -3.877671    0.821879   -3.970434
    143          1           0       -5.047687   -1.858565   -4.520960
    144          1           0       -4.373481    0.983207   -6.174355
    145          1           0       -6.110456    0.962921   -5.706855
    146          1           0       -5.340472   -0.487563   -6.105429
    147          1           0       -2.588065   -1.437095   -4.140948
    148          1           0       -3.249696   -2.804026   -3.264179
    149          1           0       -2.410160   -0.128290   -2.416990
    150          1           0       -2.032778   -1.699994   -1.621921
    151          1           0       -3.643367   -0.880663   -1.400547
    152          1           0       -6.994872   -5.871412   -0.057487
    153          1           0       -6.230907   -5.238917   -1.551641
    154          1           0       -8.004142   -5.596504   -1.554836
    155          1           0      -11.400453   -3.061177    1.333390
    156          1           0      -12.528376   -3.814845    5.425160
    157          1           0      -12.395983   -1.942613    5.390837
    158          1           0      -11.054975   -3.062248    5.737744
 ---------------------------------------------------------------------

 SCF Done:  E(RCAM-B3LYP) =  -4069.81184073     A.U. after   19 cycles

 Excitation energies and oscillator strengths:

 Excited State   1:      Singlet-A      1.6696 eV  742.62 nm  f=0.0196  <S**2>=0.000
     309 -> 315       -0.10274
     310 -> 316        0.13843
     311 -> 314       -0.40756
     312 -> 313        0.55226
 This state for optimization and/or second-order correction.
 Total Energy, E(TD-HF/TD-DFT) =  -4069.75048550
 Copying the excited state density for this state as the 1-particle RhoCI density.

 Excited State   2:      Singlet-A      1.6852 eV  735.74 nm  f=0.7373  <S**2>=0.000
     309 -> 315        0.14240
     310 -> 316        0.10451
     311 -> 314        0.55144
     312 -> 313        0.40705

 Excited State   3:      Singlet-A      2.1854 eV  567.32 nm  f=0.0827  <S**2>=0.000
     310 -> 313        0.63642
     312 -> 316       -0.27008

 Excited State   4:      Singlet-A      2.1929 eV  565.40 nm  f=0.1151  <S**2>=0.000
     309 -> 314        0.63454
     311 -> 315       -0.27574

 Excited State   5:      Singlet-A      2.8067 eV  441.75 nm  f=0.0000  <S**2>=0.000
     312 -> 314        0.70704

 The electronic state is 1-A.
 Alpha  occ. eigenvalues --  -46.87726 -46.87586 -19.26290 -19.26251 -19.19097
 Alpha  occ. eigenvalues --  -19.18984 -19.18740 -19.18662 -19.18108 -19.17981
 Alpha  occ. eigenvalues --  -14.42426 -14.42383 -14.41378 -14.41280 -14.39332
 Alpha  occ. eigenvalues --  -14.39280 -14.38524 -14.38518 -10.39041 -10.39027
 Alpha  occ. eigenvalues --  -10.35373 -10.35341 -10.34330 -10.34159 -10.31702
 Alpha  occ. eigenvalues --  -10.31656 -10.31340 -10.31236 -10.30959 -10.30844
 Alpha  occ. eigenvalues --  -10.30501 -10.30437 -10.30322 -10.30284 -10.30132
 Alpha  occ. eigenvalues --  -10.30060 -10.29849 -10.29812 -10.29560 -10.29365
 Alpha  occ. eigenvalues --  -10.29328 -10.29182 -10.28695 -10.28661 -10.28605
 Alpha  occ. eigenvalues --  -10.28502 -10.28336 -10.28298 -10.28081 -10.28060
 Alpha  occ. eigenvalues --  -10.27929 -10.27723 -10.27659 -10.27599 -10.27513
 Alpha  occ. eigenvalues --  -10.27419 -10.27413 -10.27413 -10.27408 -10.27407
 Alpha  occ. eigenvalues --  -10.27397 -10.27372 -10.27338 -10.27284 -10.27104
 Alpha  occ. eigenvalues --  -10.26984 -10.26660 -10.26637 -10.26379 -10.26330
 Alpha  occ. eigenvalues --  -10.26179 -10.26089 -10.25977 -10.25973 -10.25946
 Alpha  occ. eigenvalues --  -10.25848 -10.25768 -10.25753 -10.25364 -10.25328
 Alpha  occ. eigenvalues --  -10.24800 -10.24765 -10.24717 -10.24616 -10.24582
 Alpha  occ. eigenvalues --  -10.24547  -3.16469  -3.16335  -1.91351  -1.91218
 Alpha  occ. eigenvalues --   -1.90937  -1.90806  -1.90780  -1.90643  -1.16598
 Alpha  occ. eigenvalues --   -1.16583  -1.08588  -1.08568  -1.07141  -1.06916
 Alpha  occ. eigenvalues --   -1.06882  -1.06606  -1.04515  -1.04425  -1.03690
 Alpha  occ. eigenvalues --   -1.03589  -1.03163  -1.02961  -1.02341  -1.02036
 Alpha  occ. eigenvalues --   -0.91916  -0.91908  -0.89443  -0.89398  -0.89131
 Alpha  occ. eigenvalues --   -0.89089  -0.88210  -0.88123  -0.87800  -0.87713
 Alpha  occ. eigenvalues --   -0.87612  -0.87607  -0.87201  -0.87059  -0.84935
 Alpha  occ. eigenvalues --   -0.84923  -0.83859  -0.83772  -0.82891  -0.82867
 Alpha  occ. eigenvalues --   -0.82587  -0.82587  -0.81532  -0.81526  -0.80534
 Alpha  occ. eigenvalues --   -0.80374  -0.78726  -0.78566  -0.77150  -0.77070
 Alpha  occ. eigenvalues --   -0.76876  -0.76822  -0.75865  -0.75772  -0.74828
 Alpha  occ. eigenvalues --   -0.74720  -0.72704  -0.72621  -0.71607  -0.71510
 Alpha  occ. eigenvalues --   -0.69823  -0.69637  -0.68811  -0.68761  -0.67574
 Alpha  occ. eigenvalues --   -0.67531  -0.67161  -0.67141  -0.65228  -0.65206
 Alpha  occ. eigenvalues --   -0.64790  -0.64693  -0.64582  -0.64557  -0.64195
 Alpha  occ. eigenvalues --   -0.64107  -0.62246  -0.62206  -0.60369  -0.60270
 Alpha  occ. eigenvalues --   -0.59743  -0.59731  -0.58920  -0.58917  -0.58437
 Alpha  occ. eigenvalues --   -0.58350  -0.57529  -0.57485  -0.57240  -0.57157
 Alpha  occ. eigenvalues --   -0.56243  -0.56131  -0.55932  -0.55822  -0.55452
 Alpha  occ. eigenvalues --   -0.55390  -0.55272  -0.55160  -0.54462  -0.54398
 Alpha  occ. eigenvalues --   -0.53851  -0.53838  -0.53229  -0.53159  -0.53154
 Alpha  occ. eigenvalues --   -0.53076  -0.52855  -0.52832  -0.52688  -0.52614
 Alpha  occ. eigenvalues --   -0.52352  -0.52267  -0.51844  -0.51797  -0.51600
 Alpha  occ. eigenvalues --   -0.51557  -0.51130  -0.51120  -0.50496  -0.50417
 Alpha  occ. eigenvalues --   -0.49954  -0.49914  -0.49849  -0.49775  -0.49451
 Alpha  occ. eigenvalues --   -0.49428  -0.49151  -0.49138  -0.49037  -0.49037
 Alpha  occ. eigenvalues --   -0.48534  -0.48492  -0.48390  -0.48379  -0.48293
 Alpha  occ. eigenvalues --   -0.48282  -0.47629  -0.47524  -0.47230  -0.47051
 Alpha  occ. eigenvalues --   -0.46728  -0.46628  -0.46498  -0.46490  -0.46290
 Alpha  occ. eigenvalues --   -0.46191  -0.46097  -0.46007  -0.45763  -0.45747
 Alpha  occ. eigenvalues --   -0.45128  -0.45124  -0.44516  -0.44448  -0.44437
 Alpha  occ. eigenvalues --   -0.44401  -0.44072  -0.44060  -0.44027  -0.43986
 Alpha  occ. eigenvalues --   -0.43955  -0.43879  -0.43476  -0.43438  -0.43320
 Alpha  occ. eigenvalues --   -0.43316  -0.42961  -0.42862  -0.42827  -0.42650
 Alpha  occ. eigenvalues --   -0.42581  -0.42456  -0.41937  -0.41865  -0.41639
 Alpha  occ. eigenvalues --   -0.41595  -0.41474  -0.41384  -0.41076  -0.40920
 Alpha  occ. eigenvalues --   -0.40804  -0.40752  -0.40665  -0.40625  -0.40497
 Alpha  occ. eigenvalues --   -0.40395  -0.40182  -0.40172  -0.39354  -0.39298
 Alpha  occ. eigenvalues --   -0.38396  -0.38261  -0.37694  -0.37591  -0.37247
 Alpha  occ. eigenvalues --   -0.37204  -0.37178  -0.37132  -0.36701  -0.36664
 Alpha  occ. eigenvalues --   -0.36136  -0.36132  -0.34218  -0.34178  -0.33796
 Alpha  occ. eigenvalues --   -0.33728  -0.33119  -0.33101  -0.31270  -0.31220
 Alpha  occ. eigenvalues --   -0.30968  -0.30901  -0.29969  -0.29885  -0.29378
 Alpha  occ. eigenvalues --   -0.29259  -0.29253  -0.29138  -0.24012  -0.23962
 Alpha  occ. eigenvalues --   -0.21058  -0.21043
 Alpha virt. eigenvalues --   -0.08720  -0.08704  -0.01679  -0.01610   0.00012
 Alpha virt. eigenvalues --    0.00033   0.02267   0.02281   0.03199   0.03313
 Alpha virt. eigenvalues --    0.04780   0.04798   0.05140   0.05229   0.06224

 Mulliken charges:
               1
     1  Mg   0.838828
     2  C   -0.003113
     3  C   -0.094114
     4  C   -0.045768
     5  C   -0.063869
     6  N   -0.256787
     7  C   -0.052544
     8  C   -0.013998
     9  C   -0.087022
    10  C    0.046321
    11  C    0.104824
    12  C    0.053475
    13  C   -0.071670
    14  H    0.035657
    15  N   -0.433132
    16  C    0.168478
    17  C   -0.177098
    18  C   -0.003922
    19  C    0.148746
    20  C    0.110172
    21  C    0.012421
    22  O   -0.249633
    23  C    0.062398
    24  N   -0.341159
    25  C    0.041263
    26  C   -0.028163
    27  C   -0.024013
    28  C    0.074887
    29  C    0.076201
    30  C    0.035104
    31  C   -0.004563
    32  N   -0.310445
    33  C    0.080393
    34  C   -0.169635
    35  C    0.008298
    36  C    0.082970
    37  C    0.127297
    38  C    0.046042
    39  O   -0.188571
    40  C   -0.005325
    41  C    0.212911
    42  O   -0.257375
    43  O   -0.304719
    44  C    0.157805
    45  H   -0.017672
    46  H   -0.016818
    47  H   -0.041361
    48  H    0.000838
    49  H   -0.004049
    50  H    0.025423
    51  H    0.016476
    52  H    0.016581
    53  H    0.011340
    54  H    0.043878
    55  H    0.017877
    56  H    0.018061
    57  H    0.005809
    58  H    0.026718
    59  H    0.039843
    60  H    0.037212
    61  H    0.035608
    62  H    0.031863
    63  H    0.016674
    64  H    0.009399
    65  H    0.023181
    66  H    0.012433
    67  H    0.004713
    68  H    0.006368
    69  H    0.004840
    70  H    0.008810
    71  H    0.018640
    72  H    0.028905
    73  H    0.047628
    74  H    0.009298
    75  H    0.045916
    76  H    0.035097
    77  H    0.042925
    78  H    0.046364
    79  H    0.053331
    80  Mg   0.837957
    81  C   -0.016925
    82  C   -0.087936
    83  C   -0.045511
    84  C   -0.064740
    85  N   -0.254557
    86  C   -0.049829
    87  C   -0.015085
    88  C   -0.090468
    89  C    0.045720
    90  C    0.114428
    91  C    0.062542
    92  C   -0.077828
    93  H    0.034811
    94  N   -0.423423
    95  C    0.162873
    96  C   -0.174800
    97  C   -0.007961
    98  C    0.152125
    99  C    0.099434
   100  C    0.015489
   101  O   -0.253508
   102  C    0.061268
   103  N   -0.350150
   104  C    0.037569
   105  C   -0.019708
   106  C   -0.035057
   107  C    0.089135
   108  C    0.073813
   109  C    0.034679
   110  C   -0.007931
   111  N   -0.324186
   112  C    0.078647
   113  C   -0.162792
   114  C    0.002211
   115  C    0.096357
   116  C    0.131371
   117  C    0.042492
   118  O   -0.187818
   119  C    0.000889
   120  C    0.211254
   121  O   -0.250922
   122  O   -0.305685
   123  C    0.152048
   124  H   -0.019907
   125  H   -0.015816
   126  H   -0.039859
   127  H   -0.000742
   128  H   -0.004455
   129  H    0.022395
   130  H    0.014376
   131  H    0.016089
   132  H    0.013938
   133  H    0.037740
   134  H    0.020704
   135  H    0.019509
   136  H    0.008651
   137  H    0.025852
   138  H    0.039637
   139  H    0.038120
   140  H    0.035930
   141  H    0.033977
   142  H    0.014435
   143  H    0.012347
   144  H    0.024746
   145  H    0.011318
   146  H    0.005629
   147  H    0.006522
   148  H    0.004494
   149  H    0.010532
   150  H    0.020047
   151  H    0.029488
   152  H    0.046316
   153  H    0.009191
   154  H    0.046774
   155  H    0.034882
   156  H    0.043839
   157  H    0.049398
   158  H    0.053611
 Sum of Mulliken charges =  -0.00000

 Dipole moment (field-independent basis, Debye):
    X=             -0.1507    Y=              7.0051    Z=             -2.9534  Tot=              7.6038
 Quadrupole moment (field-independent basis, Debye-Ang):
   XX=           -423.1176   YY=           -540.0019   ZZ=           -478.5115
   XY=            -23.2906   XZ=            -21.9442   YZ=              3.0449

 Normal termination of Gaussian 16 at Sat Sep 11 20:28:27 2021.
