 Gaussian 16, Revision A.03,
 Gaussian 16:  ES64L-G16RevA.03 25-Dec-2016

 -----------------------------------
 #p cam-b3lyp/Def2SVP td=(nstates=5)
 -----------------------------------

 --------------------------------
 TDDFT excited states in gaussian
 --------------------------------
 Symbolic Z-matrix:
 Charge =  0 Multiplicity = 1

                         Standard orientation:
 ---------------------------------------------------------------------
 Center     Atomic      Atomic             Coordinates (Angstroms)
 Number     Number       Type             X           Y           Z
 ---------------------------------------------------------------------
      1         12           0        3.877311   -0.540497    1.221506
      2          6           0        4.655265    2.353125   -0.736542
      3          6           0        3.845623    1.501297    3.955210
      4          6           0        3.641286   -3.138770    3.024251
      5          6           0        5.073173   -2.469660   -1.423094
      6          7           0        4.219884    1.634409    1.451881
      7          6           0        4.450407    2.640959    0.614691
      8          6           0        4.378914    4.040157    1.296238
      9          6           0        4.690148    3.604800    2.798102
     10          6           0        4.190214    2.171941    2.744208
     11          6           0        6.178108    3.593579    3.133289
     12          6           0        2.960265    4.690848    1.170670
     13          6           0        2.891845    6.180929    1.517558
     14          1           0        1.982786    7.033707    0.766740
     15          7           0        3.288396   -0.750454    3.095525
     16          6           0        3.332196    0.191174    4.068513
     17          6           0        2.782937   -0.450883    5.282085
     18          6           0        2.592854   -1.897839    4.984964
     19          6           0        3.198907   -1.993162    3.681510
     20          6           0        2.451053    0.302872    6.533266
     21          6           0        1.974064   -3.019149    5.758200
     22          8           0        2.119957   -4.242558    5.416792
     23          6           0        1.257089   -2.649188    6.991941
     24          7           0        4.496107   -2.516031    0.953196
     25          6           0        4.217130   -3.456114    1.862812
     26          6           0        4.503515   -4.830081    1.333533
     27          6           0        4.809787   -4.649190   -0.223139
     28          6           0        4.720632   -3.105204   -0.303332
     29          6           0        5.668843   -5.574473    1.999794
     30          6           0        3.959961   -5.489276   -1.209278
     31          6           0        2.522319   -5.021155   -1.175433
     32          7           0        4.554464   -0.169777   -0.807059
     33          6           0        5.029403   -1.118590   -1.724043
     34          6           0        5.470205   -0.379381   -2.921261
     35          6           0        5.234916    0.958156   -2.609045
     36          6           0        4.706621    1.050707   -1.289715
     37          6           0        6.062125   -0.950443   -4.082274
     38          6           0        5.329903    2.332522   -3.073753
     39          8           0        5.615584    2.867591   -4.145938
     40          6           0        5.072518    3.299287   -1.834824
     41          6           0        4.085660    4.346834   -2.273076
     42          8           0        2.906841    4.041060   -2.545570
     43          8           0        4.612857    5.564777   -2.075036
     44          6           0        3.673022    6.650641   -2.462028
     45          1           0        4.040285    1.998294    4.907598
     46          1           0        3.474649   -4.069990    3.569687
     47          1           0        5.378615   -3.011016   -2.320362
     48          1           0        5.129130    4.752257    0.951980
     49          1           0        4.109684    4.181854    3.517681
     50          1           0        6.787720    3.762283    2.245689
     51          1           0        6.375494    2.605053    3.548438
     52          1           0        6.400966    4.303295    3.930418
     53          1           0        2.310561    4.289306    1.948301
     54          1           0        2.550883    4.533978    0.172109
     55          1           0        3.886177    6.626376    1.559861
     56          1           0        2.508143    6.277890    2.533221
     57          1           0        2.853362    1.314871    6.509787
     58          1           0        2.985777   -0.183146    7.349088
     59          1           0        1.381142    0.300640    6.742116
     60          1           0        1.943902   -2.140013    7.668386
     61          1           0        0.805071   -3.567920    7.364046
     62          1           0        0.478477   -1.926957    6.744767
     63          1           0        3.640355   -5.483396    1.454198
     64          1           0        5.839150   -4.909807   -0.470452
     65          1           0        5.388051   -6.540276    2.420611
     66          1           0        6.091949   -4.923062    2.763950
     67          1           0        6.531835   -5.742239    1.355965
     68          1           0        3.962838   -6.537986   -0.914076
     69          1           0        4.314565   -5.433492   -2.238547
     70          1           0        2.111900   -5.556996   -0.320294
     71          1           0        2.008917   -5.302464   -2.095484
     72          1           0        2.455704   -3.955609   -0.954838
     73          1           0        5.593776   -0.460512   -4.935846
     74          1           0        5.912010   -2.029379   -4.113380
     75          1           0        7.106616   -0.678365   -3.931050
     76          1           0        6.036755    3.731120   -1.568571
     77          1           0        4.189508    7.278545   -3.188123
     78          1           0        3.340631    7.117827   -1.534850
     79          1           0        2.797512    6.348008   -3.037558
     80         12           0       -3.654108   -0.737692   -1.251664
     81          6           0       -5.615530    1.505856    0.747940
     82          6           0       -2.934900    1.921679   -3.262902
     83          6           0       -2.293501   -2.765039   -3.277988
     84          6           0       -5.417407   -3.363011    0.212645
     85          7           0       -4.256058    1.388879   -1.164437
     86          6           0       -4.953292    2.138976   -0.324458
     87          6           0       -4.874282    3.663453   -0.606017
     88          6           0       -4.506325    3.600766   -2.167922
     89          6           0       -3.823541    2.235039   -2.203558
     90          6           0       -5.726622    3.548433   -3.072056
     91          6           0       -3.742664    4.366523    0.222935
     92          6           0       -3.808311    5.895358    0.233167
     93          1           0       -3.412422    6.600911    1.448867
     94          7           0       -2.359054   -0.411279   -2.719601
     95          6           0       -2.184534    0.734516   -3.410964
     96          6           0       -1.128078    0.453462   -4.395389
     97          6           0       -0.808649   -0.998939   -4.338923
     98          6           0       -1.845242   -1.462000   -3.438276
     99          6           0       -0.472462    1.527200   -5.214338
    100          6           0        0.246281   -1.835119   -4.997806
    101          8           0        0.191276   -3.115656   -4.992385
    102          6           0        1.295388   -1.110108   -5.729390
    103          7           0       -3.970989   -2.752079   -1.656824
    104          6           0       -3.205768   -3.406770   -2.547740
    105          6           0       -3.433349   -4.897635   -2.470902
    106          6           0       -4.336503   -5.127957   -1.171347
    107          6           0       -4.558761   -3.657697   -0.753818
    108          6           0       -4.116311   -5.529699   -3.683525
    109          6           0       -3.799050   -6.125008   -0.108468
    110          6           0       -2.556153   -5.563687    0.543843
    111          7           0       -5.098295   -0.943500    0.342081
    112          6           0       -5.727706   -2.131266    0.774694
    113          6           0       -6.714302   -1.750365    1.806192
    114          6           0       -6.605810   -0.353828    1.886310
    115          6           0       -5.635474    0.105348    0.955121
    116          6           0       -7.590332   -2.640909    2.488565
    117          6           0       -7.099079    0.837346    2.539359
    118          8           0       -7.865397    1.060664    3.475641
    119          6           0       -6.570331    2.106589    1.741975
    120          6           0       -6.017424    3.085630    2.741117
    121          8           0       -5.008534    2.803131    3.411155
    122          8           0       -6.636023    4.270374    2.585883
    123          6           0       -6.113934    5.277627    3.547494
    124          1           0       -2.832503    2.633968   -4.082077
    125          1           0       -1.776279   -3.518562   -3.876454
    126          1           0       -5.937171   -4.133145    0.786593
    127          1           0       -5.804582    4.200358   -0.464435
    128          1           0       -3.804780    4.385010   -2.440227
    129          1           0       -6.641524    3.442462   -2.508260
    130          1           0       -5.578353    2.692233   -3.717031
    131          1           0       -5.745871    4.421801   -3.730224
    132          1           0       -2.782265    4.223118   -0.288737
    133          1           0       -3.724022    3.998882    1.230472
    134          1           0       -4.773028    6.268950   -0.131120
    135          1           0       -3.082706    6.278680   -0.488347
    136          1           0       -1.029003    2.470967   -5.159831
    137          1           0       -0.554282    1.223847   -6.263693
    138          1           0        0.582659    1.660951   -4.966374
    139          1           0        0.838978   -0.501106   -6.506088
    140          1           0        2.005436   -1.873018   -6.054484
    141          1           0        1.790394   -0.419161   -5.037888
    142          1           0       -2.496168   -5.425951   -2.345678
    143          1           0       -5.325530   -5.534318   -1.429292
    144          1           0       -3.524171   -6.343525   -4.143010
    145          1           0       -4.317155   -4.750529   -4.406781
    146          1           0       -5.110156   -5.932536   -3.495926
    147          1           0       -3.503047   -7.062999   -0.584604
    148          1           0       -4.524340   -6.369066    0.660547
    149          1           0       -1.764354   -5.832206   -0.161874
    150          1           0       -2.391889   -6.024967    1.515585
    151          1           0       -2.597198   -4.469342    0.592447
    152          1           0       -7.579354   -2.350760    3.530772
    153          1           0       -7.283290   -3.676776    2.360209
    154          1           0       -8.529490   -2.424197    1.972539
    155          1           0       -7.413727    2.519825    1.187460
    156          1           0       -6.973373    5.662454    4.105133
    157          1           0       -5.542379    6.003416    2.938968
    158          1           0       -5.481782    4.921495    4.352477
 ---------------------------------------------------------------------

 SCF Done:  E(RCAM-B3LYP) =  -4069.81429612     A.U. after   17 cycles

 Excitation energies and oscillator strengths:

 Excited State   1:      Singlet-A      1.6347 eV  758.46 nm  f=0.0446  <S**2>=0.000
     309 -> 315        0.11467
     310 -> 316       -0.11696
     311 -> 313       -0.48018
     312 -> 314        0.49328
 This state for optimization and/or second-order correction.
 Total Energy, E(TD-HF/TD-DFT) =  -4069.75422299
 Copying the excited state density for this state as the 1-particle RhoCI density.

 Excited State   2:      Singlet-A      1.7124 eV  724.05 nm  f=0.6489  <S**2>=0.000
     309 -> 315       -0.13203
     310 -> 316       -0.12728
     311 -> 313        0.48985
     312 -> 314        0.47707

 Excited State   3:      Singlet-A      2.1841 eV  567.68 nm  f=0.0028  <S**2>=0.000
     309 -> 313        0.42925
     310 -> 314        0.48137
     311 -> 315        0.17891
     312 -> 316        0.20100

 Excited State   4:      Singlet-A      2.1989 eV  563.84 nm  f=0.1673  <S**2>=0.000
     309 -> 313        0.47677
     310 -> 314       -0.42425
     311 -> 315        0.21147
     312 -> 316       -0.18771

 Excited State   5:      Singlet-A      2.3089 eV  536.99 nm  f=0.0000  <S**2>=0.000
     312 -> 313        0.70694

 The electronic state is 1-A.
 Alpha  occ. eigenvalues --  -46.87769 -46.87369 -19.26590 -19.26277 -19.19370
 Alpha  occ. eigenvalues --  -19.19074 -19.18721 -19.18370 -19.18311 -19.17811
 Alpha  occ. eigenvalues --  -14.42430 -14.42206 -14.41399 -14.41069 -14.39369
 Alpha  occ. eigenvalues --  -14.39042 -14.38589 -14.38312 -10.39391 -10.38990
 Alpha  occ. eigenvalues --  -10.35345 -10.35029 -10.34537 -10.33999 -10.32012
 Alpha  occ. eigenvalues --  -10.31743 -10.31425 -10.31032 -10.30894 -10.30700
 Alpha  occ. eigenvalues --  -10.30579 -10.30497 -10.30128 -10.30097 -10.30054
 Alpha  occ. eigenvalues --  -10.29894 -10.29811 -10.29660 -10.29618 -10.29202
 Alpha  occ. eigenvalues --  -10.29082 -10.29065 -10.28788 -10.28648 -10.28540
 Alpha  occ. eigenvalues --  -10.28478 -10.28370 -10.28133 -10.28085 -10.27874
 Alpha  occ. eigenvalues --  -10.27814 -10.27699 -10.27672 -10.27550 -10.27415
 Alpha  occ. eigenvalues --  -10.27339 -10.27333 -10.27325 -10.27320 -10.27305
 Alpha  occ. eigenvalues --  -10.27272 -10.27203 -10.27166 -10.27097 -10.26849
 Alpha  occ. eigenvalues --  -10.26777 -10.26634 -10.26488 -10.26249 -10.26215
 Alpha  occ. eigenvalues --  -10.25942 -10.25914 -10.25903 -10.25859 -10.25852
 Alpha  occ. eigenvalues --  -10.25789 -10.25631 -10.25619 -10.25339 -10.25223
 Alpha  occ. eigenvalues --  -10.24888 -10.24756 -10.24569 -10.24469 -10.24417
 Alpha  occ. eigenvalues --  -10.24206  -3.16511  -3.16121  -1.91392  -1.91004
 Alpha  occ. eigenvalues --   -1.90978  -1.90821  -1.90591  -1.90428  -1.16940
 Alpha  occ. eigenvalues --   -1.16565  -1.08796  -1.08441  -1.07117  -1.06972
 Alpha  occ. eigenvalues --   -1.06853  -1.06623  -1.04572  -1.04200  -1.03722
 Alpha  occ. eigenvalues --   -1.03370  -1.03214  -1.02743  -1.02390  -1.01814
 Alpha  occ. eigenvalues --   -0.92015  -0.91718  -0.89411  -0.89223  -0.89206
 Alpha  occ. eigenvalues --   -0.88901  -0.88168  -0.87969  -0.87906  -0.87652
 Alpha  occ. eigenvalues --   -0.87515  -0.87386  -0.87193  -0.86636  -0.84996
 Alpha  occ. eigenvalues --   -0.84743  -0.83813  -0.83639  -0.82831  -0.82640
 Alpha  occ. eigenvalues --   -0.82560  -0.82293  -0.81697  -0.81403  -0.80618
 Alpha  occ. eigenvalues --   -0.80181  -0.78750  -0.78229  -0.77179  -0.76961
 Alpha  occ. eigenvalues --   -0.76839  -0.76684  -0.75963  -0.75570  -0.74824
 Alpha  occ. eigenvalues --   -0.74551  -0.72756  -0.72397  -0.71665  -0.71319
 Alpha  occ. eigenvalues --   -0.69694  -0.69502  -0.68876  -0.68555  -0.67644
 Alpha  occ. eigenvalues --   -0.67324  -0.67221  -0.66905  -0.65320  -0.65025
 Alpha  occ. eigenvalues --   -0.64890  -0.64611  -0.64516  -0.64408  -0.64161
 Alpha  occ. eigenvalues --   -0.63947  -0.62420  -0.62097  -0.60365  -0.59952
 Alpha  occ. eigenvalues --   -0.59819  -0.59524  -0.58985  -0.58724  -0.58511
 Alpha  occ. eigenvalues --   -0.58156  -0.57736  -0.57358  -0.57264  -0.56939
 Alpha  occ. eigenvalues --   -0.56349  -0.56112  -0.55911  -0.55674  -0.55502
 Alpha  occ. eigenvalues --   -0.55332  -0.55144  -0.55013  -0.54528  -0.54291
 Alpha  occ. eigenvalues --   -0.53925  -0.53665  -0.53273  -0.53221  -0.52976
 Alpha  occ. eigenvalues --   -0.52950  -0.52848  -0.52682  -0.52655  -0.52218
 Alpha  occ. eigenvalues --   -0.52182  -0.52141  -0.51969  -0.51639  -0.51628
 Alpha  occ. eigenvalues --   -0.51349  -0.51204  -0.50951  -0.50422  -0.49986
 Alpha  occ. eigenvalues --   -0.49922  -0.49816  -0.49602  -0.49535  -0.49506
 Alpha  occ. eigenvalues --   -0.49240  -0.49163  -0.49134  -0.48877  -0.48851
 Alpha  occ. eigenvalues --   -0.48676  -0.48459  -0.48364  -0.48316  -0.48153
 Alpha  occ. eigenvalues --   -0.47960  -0.47662  -0.47270  -0.47257  -0.46759
 Alpha  occ. eigenvalues --   -0.46751  -0.46583  -0.46441  -0.46355  -0.46283
 Alpha  occ. eigenvalues --   -0.46149  -0.45954  -0.45922  -0.45825  -0.45619
 Alpha  occ. eigenvalues --   -0.45106  -0.44958  -0.44656  -0.44444  -0.44281
 Alpha  occ. eigenvalues --   -0.44209  -0.44178  -0.44022  -0.43975  -0.43875
 Alpha  occ. eigenvalues --   -0.43797  -0.43592  -0.43548  -0.43371  -0.43356
 Alpha  occ. eigenvalues --   -0.43134  -0.43031  -0.42909  -0.42762  -0.42636
 Alpha  occ. eigenvalues --   -0.42505  -0.42250  -0.41913  -0.41717  -0.41707
 Alpha  occ. eigenvalues --   -0.41520  -0.41414  -0.41210  -0.41136  -0.40843
 Alpha  occ. eigenvalues --   -0.40742  -0.40728  -0.40463  -0.40438  -0.40373
 Alpha  occ. eigenvalues --   -0.40258  -0.40252  -0.39965  -0.39220  -0.39151
 Alpha  occ. eigenvalues --   -0.38366  -0.38114  -0.37794  -0.37446  -0.37295
 Alpha  occ. eigenvalues --   -0.37232  -0.37003  -0.36923  -0.36918  -0.36648
 Alpha  occ. eigenvalues --   -0.36192  -0.35989  -0.34285  -0.34053  -0.33978
 Alpha  occ. eigenvalues --   -0.33735  -0.33178  -0.32881  -0.31256  -0.31022
 Alpha  occ. eigenvalues --   -0.30934  -0.30688  -0.30178  -0.29729  -0.29452
 Alpha  occ. eigenvalues --   -0.29328  -0.28990  -0.28885  -0.24063  -0.23748
 Alpha  occ. eigenvalues --   -0.21104  -0.20804
 Alpha virt. eigenvalues --   -0.08756  -0.08465  -0.01707  -0.01394  -0.00025
 Alpha virt. eigenvalues --    0.00324   0.02135   0.02323   0.02495   0.04313
 Alpha virt. eigenvalues --    0.04712   0.04821   0.04983   0.05286   0.06052

 Mulliken charges:
               1
     1  Mg   0.839285
     2  C   -0.003890
     3  C   -0.093074
     4  C   -0.045468
     5  C   -0.061494
     6  N   -0.257051
     7  C   -0.052751
     8  C   -0.014262
     9  C   -0.087288
    10  C    0.046870
    11  C    0.104738
    12  C    0.053075
    13  C   -0.071239
    14  H    0.033229
    15  N   -0.433542
    16  C    0.169622
    17  C   -0.175507
    18  C   -0.002998
    19  C    0.149139
    20  C    0.109805
    21  C    0.013217
    22  O   -0.249600
    23  C    0.061577
    24  N   -0.341415
    25  C    0.042142
    26  C   -0.028231
    27  C   -0.024013
    28  C    0.074911
    29  C    0.076299
    30  C    0.034590
    31  C   -0.007226
    32  N   -0.309541
    33  C    0.079278
    34  C   -0.173652
    35  C    0.004957
    36  C    0.081936
    37  C    0.127704
    38  C    0.041799
    39  O   -0.191083
    40  C   -0.004315
    41  C    0.213298
    42  O   -0.261619
    43  O   -0.303507
    44  C    0.158463
    45  H   -0.017195
    46  H   -0.016383
    47  H   -0.040344
    48  H    0.000262
    49  H   -0.003317
    50  H    0.025213
    51  H    0.016808
    52  H    0.016879
    53  H    0.013546
    54  H    0.041924
    55  H    0.017947
    56  H    0.019355
    57  H    0.006047
    58  H    0.026766
    59  H    0.043558
    60  H    0.037054
    61  H    0.035882
    62  H    0.034979
    63  H    0.017101
    64  H    0.008877
    65  H    0.023101
    66  H    0.012068
    67  H    0.004797
    68  H    0.004855
    69  H    0.006701
    70  H    0.005873
    71  H    0.028950
    72  H    0.028501
    73  H    0.043568
    74  H    0.011493
    75  H    0.046156
    76  H    0.035574
    77  H    0.043217
    78  H    0.047345
    79  H    0.050427
    80  Mg   0.836091
    81  C   -0.017186
    82  C   -0.082631
    83  C   -0.046421
    84  C   -0.064973
    85  N   -0.254501
    86  C   -0.051049
    87  C   -0.015084
    88  C   -0.090864
    89  C    0.045244
    90  C    0.114412
    91  C    0.061465
    92  C   -0.076843
    93  H    0.031151
    94  N   -0.424273
    95  C    0.163869
    96  C   -0.169927
    97  C   -0.008010
    98  C    0.151808
    99  C    0.097877
   100  C    0.016287
   101  O   -0.257535
   102  C    0.057932
   103  N   -0.350195
   104  C    0.038387
   105  C   -0.019772
   106  C   -0.034297
   107  C    0.088256
   108  C    0.074038
   109  C    0.034871
   110  C   -0.008104
   111  N   -0.323681
   112  C    0.077166
   113  C   -0.164424
   114  C    0.001473
   115  C    0.095033
   116  C    0.131814
   117  C    0.041072
   118  O   -0.190171
   119  C    0.001172
   120  C    0.211336
   121  O   -0.252726
   122  O   -0.305243
   123  C    0.152637
   124  H   -0.018745
   125  H   -0.016740
   126  H   -0.041432
   127  H   -0.001673
   128  H   -0.002913
   129  H    0.021848
   130  H    0.014592
   131  H    0.015984
   132  H    0.017334
   133  H    0.035972
   134  H    0.020477
   135  H    0.020227
   136  H    0.009025
   137  H    0.023233
   138  H    0.058414
   139  H    0.039170
   140  H    0.031678
   141  H    0.045128
   142  H    0.013288
   143  H    0.011640
   144  H    0.023957
   145  H    0.011760
   146  H    0.005359
   147  H    0.004914
   148  H    0.003345
   149  H    0.010349
   150  H    0.019667
   151  H    0.030217
   152  H    0.044481
   153  H    0.008015
   154  H    0.046051
   155  H    0.034505
   156  H    0.043385
   157  H    0.049365
   158  H    0.051889
 Sum of Mulliken charges =  -0.00000

 Dipole moment (field-independent basis, Debye):
    X=              1.9746    Y=              3.1408    Z=              0.6235  Tot=              3.7619
 Quadrupole moment (field-independent basis, Debye-Ang):
   XX=           -528.1869   YY=           -463.1639   ZZ=           -517.0766
   XY=              0.9897   XZ=             42.9249   YZ=             14.0334

 Normal termination of Gaussian 16 at Wed Sep  8 17:02:56 2021.
