 Gaussian 16, Revision A.03,
 Gaussian 16:  ES64L-G16RevA.03 25-Dec-2016

 -----------------------------------
 #p cam-b3lyp/Def2SVP td=(nstates=5)
 -----------------------------------

 --------------------------------
 TDDFT excited states in gaussian
 --------------------------------
 Symbolic Z-matrix:
 Charge =  0 Multiplicity = 1

                         Standard orientation:
 ---------------------------------------------------------------------
 Center     Atomic      Atomic             Coordinates (Angstroms)
 Number     Number       Type             X           Y           Z
 ---------------------------------------------------------------------
      1         12           0       -3.173438   -2.237975    0.175670
      2          6           0       -5.401549    0.563311    0.198717
      3          6           0       -4.052452   -2.720813   -3.085812
      4          6           0       -1.568791   -4.971912    0.261224
      5          6           0       -3.349428   -2.218708    3.656233
      6          7           0       -4.559705   -1.148876   -1.163274
      7          6           0       -5.307582   -0.055735   -1.049720
      8          6           0       -5.923108    0.414878   -2.401396
      9          6           0       -5.899808   -0.973189   -3.185441
     10          6           0       -4.745851   -1.642568   -2.460019
     11          6           0       -7.159193   -1.809219   -2.981716
     12          6           0       -5.037608    1.490998   -3.115250
     13          6           0       -5.717563    2.237370   -4.266746
     14          1           0       -5.402510    3.642896   -4.473114
     15          7           0       -2.472040   -3.358344   -1.292547
     16          6           0       -2.941223   -3.416353   -2.562110
     17          6           0       -2.086013   -4.394341   -3.268394
     18          6           0       -1.203059   -5.040120   -2.257724
     19          6           0       -1.737687   -4.494471   -1.036324
     20          6           0       -2.123528   -4.600098   -4.751636
     21          6           0       -0.065812   -6.005210   -2.373499
     22          8           0        0.412567   -6.617645   -1.358289
     23          6           0        0.421838   -6.285448   -3.736108
     24          7           0       -2.717529   -3.569296    1.717542
     25          6           0       -1.958225   -4.647881    1.495967
     26          6           0       -1.533308   -5.290263    2.783107
     27          6           0       -1.961767   -4.280607    3.943611
     28          6           0       -2.671260   -3.211622    3.076338
     29          6           0       -2.127856   -6.676505    3.067459
     30          6           0       -0.850842   -3.819516    4.920166
     31          6           0        0.151021   -2.955971    4.186913
     32          7           0       -4.039525   -0.950413    1.693274
     33          6           0       -4.010594   -1.146059    3.081640
     34          6           0       -4.820912   -0.072724    3.686127
     35          6           0       -5.281550    0.667880    2.599314
     36          6           0       -4.811704    0.078229    1.391071
     37          6           0       -5.095583    0.083417    5.073430
     38          6           0       -6.081658    1.805830    2.176522
     39          8           0       -6.649119    2.731168    2.758958
     40          6           0       -6.291827    1.712791    0.600769
     41          6           0       -5.993823    3.068928    0.021634
     42          8           0       -4.836950    3.536109    0.049048
     43          8           0       -7.055558    3.496270   -0.678822
     44          6           0       -6.815042    4.823876   -1.304736
     45          1           0       -4.427131   -3.109285   -4.034836
     46          1           0       -0.927793   -5.852183    0.342966
     47          1           0       -3.380163   -2.099277    4.740781
     48          1           0       -6.945945    0.785289   -2.330523
     49          1           0       -5.658778   -0.840900   -4.240015
     50          1           0       -7.811148   -1.370009   -2.226752
     51          1           0       -6.808623   -2.789515   -2.658276
     52          1           0       -7.673242   -1.972471   -3.929281
     53          1           0       -4.238312    0.992502   -3.663600
     54          1           0       -4.652640    2.213514   -2.394767
     55          1           0       -6.797233    2.085242   -4.257900
     56          1           0       -5.388686    1.790341   -5.204939
     57          1           0       -2.983801   -4.107144   -5.202714
     58          1           0       -2.299171   -5.662188   -4.921409
     59          1           0       -1.191613   -4.300334   -5.231228
     60          1           0       -0.395619   -6.686841   -4.335438
     61          1           0        1.294016   -6.927346   -3.617269
     62          1           0        0.714429   -5.346278   -4.206532
     63          1           0       -0.453547   -5.430578    2.812341
     64          1           0       -2.727378   -4.705383    4.593287
     65          1           0       -1.376925   -7.450311    3.228805
     66          1           0       -2.786279   -6.937140    2.239305
     67          1           0       -2.815946   -6.714355    3.911567
     68          1           0       -0.307976   -4.679756    5.310331
     69          1           0       -1.232720   -3.254712    5.770705
     70          1           0        0.816046   -3.688474    3.730829
     71          1           0        0.692282   -2.321299    4.889365
     72          1           0       -0.321274   -2.397004    3.378841
     73          1           0       -4.980832    1.145556    5.289443
     74          1           0       -4.421039   -0.519502    5.680952
     75          1           0       -6.125450   -0.270669    5.116479
     76          1           0       -7.328167    1.417566    0.439642
     77          1           0       -7.611960    5.486805   -0.967571
     78          1           0       -6.722116    4.648803   -2.376706
     79          1           0       -5.935086    5.367475   -0.959023
     80         12           0        3.310965    2.343691   -0.111030
     81          6           0        5.190551   -0.693743   -0.457704
     82          6           0        2.938883    1.561094    3.188014
     83          6           0        1.279616    4.768892    0.132891
     84          6           0        2.860591    2.295915   -3.566543
     85          7           0        4.019916    0.628237    1.091824
     86          6           0        4.777959   -0.434141    0.865855
     87          6           0        5.179524   -1.220987    2.142242
     88          6           0        3.969943   -0.766155    3.095612
     89          6           0        3.638190    0.575810    2.446208
     90          6           0        2.748500   -1.663830    2.987899
     91          6           0        6.566328   -0.762528    2.715482
     92          6           0        7.163635   -1.692113    3.774191
     93          1           0        8.613197   -1.865078    3.810547
     94          7           0        2.669412    3.325535    1.489899
     95          6           0        2.608159    2.864557    2.756800
     96          6           0        2.045224    3.962657    3.557706
     97          6           0        1.625902    5.050614    2.632919
     98          6           0        1.827343    4.401062    1.353233
     99          6           0        2.020370    3.945373    5.058539
    100          6           0        1.114531    6.440558    2.862594
    101          8           0        0.586506    7.128307    1.918649
    102          6           0        1.164993    6.937535    4.245326
    103          7           0        2.048885    3.268920   -1.479771
    104          6           0        1.310528    4.336061   -1.127674
    105          6           0        0.696494    4.997911   -2.338177
    106          6           0        1.375347    4.293787   -3.603464
    107          6           0        2.236290    3.238974   -2.874407
    108          6           0       -0.824152    4.894206   -2.453401
    109          6           0        2.065064    5.222683   -4.639857
    110          6           0        3.286171    5.866546   -4.023641
    111          7           0        4.053287    1.161519   -1.760105
    112          6           0        3.716219    1.294784   -3.124922
    113          6           0        4.383913    0.192993   -3.847874
    114          6           0        5.049703   -0.523992   -2.842312
    115          6           0        4.797159    0.075994   -1.579090
    116          6           0        4.287838   -0.064183   -5.244565
    117          6           0        5.900075   -1.658177   -2.560905
    118          8           0        6.503514   -2.482705   -3.246290
    119          6           0        5.926123   -1.892584   -0.989043
    120          6           0        7.359058   -2.077501   -0.570684
    121          8           0        8.173121   -1.142968   -0.673445
    122          8           0        7.480478   -3.248969    0.079914
    123          6           0        8.881989   -3.472346    0.524529
    124          1           0        2.570376    1.299098    4.180212
    125          1           0        0.659127    5.667947    0.146368
    126          1           0        2.849305    2.268897   -4.658249
    127          1           0        5.179739   -2.298592    2.030318
    128          1           0        4.306442   -0.621703    4.118968
    129          1           0        2.852708   -2.392894    2.198111
    130          1           0        1.915171   -1.003691    2.785858
    131          1           0        2.536542   -2.129581    3.954587
    132          1           0        6.422533    0.142474    3.319670
    133          1           0        7.275122   -0.613312    1.924292
    134          1           0        6.659662   -2.665932    3.799262
    135          1           0        6.969563   -1.264410    4.760809
    136          1           0        2.244380    2.946597    5.453082
    137          1           0        0.984912    4.131878    5.363364
    138          1           0        2.661955    4.711394    5.499282
    139          1           0        0.590220    6.275228    4.888318
    140          1           0        0.840456    7.978624    4.193698
    141          1           0        2.202422    6.893627    4.595228
    142          1           0        0.927094    6.055969   -2.359080
    143          1           0        0.639922    3.738554   -4.204050
    144          1           0       -1.324716    5.878401   -2.523201
    145          1           0       -1.193944    4.339072   -1.601567
    146          1           0       -1.184310    4.299202   -3.290931
    147          1           0        1.394375    6.037456   -4.923545
    148          1           0        2.355079    4.711909   -5.551994
    149          1           0        2.868142    6.720253   -3.481866
    150          1           0        3.979596    6.190972   -4.796924
    151          1           0        3.750671    5.202859   -3.285117
    152          1           0        5.286531   -0.300413   -5.587063
    153          1           0        3.875073    0.789231   -5.778493
    154          1           0        3.602299   -0.915814   -5.239358
    155          1           0        5.321241   -2.775626   -0.779435
    156          1           0        9.197489   -4.436617    0.114251
    157          1           0        8.864978   -3.375036    1.626343
    158          1           0        9.645000   -2.813468    0.126855
 ---------------------------------------------------------------------

 SCF Done:  E(RCAM-B3LYP) =  -4069.80819679     A.U. after   19 cycles

 Excitation energies and oscillator strengths:

 Excited State   1:      Singlet-A      1.6379 eV  756.99 nm  f=0.0036  <S**2>=0.000
     309 -> 315        0.11106
     310 -> 316        0.12158
     311 -> 313        0.46404
     312 -> 314        0.50838
 This state for optimization and/or second-order correction.
 Total Energy, E(TD-HF/TD-DFT) =  -4069.74800660
 Copying the excited state density for this state as the 1-particle RhoCI density.

 Excited State   2:      Singlet-A      1.7122 eV  724.12 nm  f=0.6773  <S**2>=0.000
     309 -> 315        0.13589
     310 -> 316       -0.12368
     311 -> 313        0.50494
     312 -> 314       -0.46088

 Excited State   3:      Singlet-A      2.1793 eV  568.91 nm  f=0.0084  <S**2>=0.000
     309 -> 313        0.35277
     310 -> 314        0.54202
     311 -> 315       -0.14427
     312 -> 316       -0.22245

 Excited State   4:      Singlet-A      2.1997 eV  563.65 nm  f=0.1586  <S**2>=0.000
     309 -> 313        0.53495
     310 -> 314       -0.34678
     311 -> 315       -0.23838
     312 -> 316        0.15566

 Excited State   5:      Singlet-A      2.2295 eV  556.10 nm  f=0.0000  <S**2>=0.000
     312 -> 313        0.70707

 The electronic state is 1-A.
 Alpha  occ. eigenvalues --  -46.87931 -46.87374 -19.26338 -19.26123 -19.19085
 Alpha  occ. eigenvalues --  -19.18933 -19.18842 -19.18354 -19.18263 -19.17803
 Alpha  occ. eigenvalues --  -14.42583 -14.42203 -14.41608 -14.41068 -14.39523
 Alpha  occ. eigenvalues --  -14.39055 -14.38719 -14.38326 -10.39145 -10.38856
 Alpha  occ. eigenvalues --  -10.35465 -10.35026 -10.34485 -10.33981 -10.31711
 Alpha  occ. eigenvalues --  -10.31561 -10.31544 -10.31054 -10.31019 -10.30709
 Alpha  occ. eigenvalues --  -10.30707 -10.30644 -10.30369 -10.30117 -10.30109
 Alpha  occ. eigenvalues --  -10.30097 -10.29829 -10.29749 -10.29595 -10.29376
 Alpha  occ. eigenvalues --  -10.29133 -10.29128 -10.28874 -10.28689 -10.28474
 Alpha  occ. eigenvalues --  -10.28469 -10.28426 -10.28239 -10.28106 -10.27909
 Alpha  occ. eigenvalues --  -10.27859 -10.27795 -10.27762 -10.27723 -10.27691
 Alpha  occ. eigenvalues --  -10.27685 -10.27531 -10.27528 -10.27392 -10.27251
 Alpha  occ. eigenvalues --  -10.27239 -10.27185 -10.27184 -10.27179 -10.27011
 Alpha  occ. eigenvalues --  -10.26856 -10.26775 -10.26531 -10.26454 -10.26341
 Alpha  occ. eigenvalues --  -10.26312 -10.26193 -10.26051 -10.26025 -10.25939
 Alpha  occ. eigenvalues --  -10.25751 -10.25672 -10.25631 -10.25500 -10.25211
 Alpha  occ. eigenvalues --  -10.24948 -10.24933 -10.24835 -10.24602 -10.24539
 Alpha  occ. eigenvalues --  -10.24357  -3.16673  -3.16125  -1.91555  -1.91142
 Alpha  occ. eigenvalues --   -1.91008  -1.90983  -1.90595  -1.90433  -1.16689
 Alpha  occ. eigenvalues --   -1.16417  -1.08719  -1.08419  -1.07238  -1.06718
 Alpha  occ. eigenvalues --   -1.06701  -1.06593  -1.04710  -1.04204  -1.03909
 Alpha  occ. eigenvalues --   -1.03369  -1.03367  -1.02747  -1.02549  -1.01820
 Alpha  occ. eigenvalues --   -0.92092  -0.91705  -0.89760  -0.89318  -0.89219
 Alpha  occ. eigenvalues --   -0.88863  -0.88508  -0.88012  -0.87913  -0.87814
 Alpha  occ. eigenvalues --   -0.87575  -0.87402  -0.87341  -0.86815  -0.85115
 Alpha  occ. eigenvalues --   -0.84730  -0.84209  -0.83568  -0.83057  -0.82741
 Alpha  occ. eigenvalues --   -0.82605  -0.82359  -0.81694  -0.81350  -0.80706
 Alpha  occ. eigenvalues --   -0.80171  -0.78897  -0.78360  -0.77442  -0.77109
 Alpha  occ. eigenvalues --   -0.76862  -0.76619  -0.76046  -0.75595  -0.75071
 Alpha  occ. eigenvalues --   -0.74451  -0.72930  -0.72435  -0.71813  -0.71300
 Alpha  occ. eigenvalues --   -0.70249  -0.69479  -0.69000  -0.68528  -0.67757
 Alpha  occ. eigenvalues --   -0.67329  -0.67313  -0.66928  -0.65429  -0.65031
 Alpha  occ. eigenvalues --   -0.64979  -0.64778  -0.64516  -0.64472  -0.64354
 Alpha  occ. eigenvalues --   -0.63916  -0.62405  -0.62027  -0.60551  -0.60029
 Alpha  occ. eigenvalues --   -0.59929  -0.59516  -0.59136  -0.58705  -0.58641
 Alpha  occ. eigenvalues --   -0.58144  -0.57689  -0.57455  -0.57304  -0.56942
 Alpha  occ. eigenvalues --   -0.56427  -0.56068  -0.55957  -0.55697  -0.55627
 Alpha  occ. eigenvalues --   -0.55552  -0.55169  -0.54969  -0.54749  -0.54210
 Alpha  occ. eigenvalues --   -0.54024  -0.53654  -0.53434  -0.53297  -0.53089
 Alpha  occ. eigenvalues --   -0.52952  -0.52859  -0.52838  -0.52731  -0.52626
 Alpha  occ. eigenvalues --   -0.52348  -0.52167  -0.52066  -0.51722  -0.51714
 Alpha  occ. eigenvalues --   -0.51395  -0.51354  -0.50952  -0.50634  -0.50292
 Alpha  occ. eigenvalues --   -0.50158  -0.49997  -0.49685  -0.49604  -0.49538
 Alpha  occ. eigenvalues --   -0.49322  -0.49218  -0.49193  -0.48948  -0.48842
 Alpha  occ. eigenvalues --   -0.48718  -0.48617  -0.48499  -0.48304  -0.48067
 Alpha  occ. eigenvalues --   -0.48011  -0.47826  -0.47412  -0.47313  -0.47031
 Alpha  occ. eigenvalues --   -0.46821  -0.46682  -0.46565  -0.46431  -0.46317
 Alpha  occ. eigenvalues --   -0.46239  -0.46004  -0.45943  -0.45813  -0.45621
 Alpha  occ. eigenvalues --   -0.45304  -0.44816  -0.44776  -0.44638  -0.44393
 Alpha  occ. eigenvalues --   -0.44261  -0.44201  -0.44137  -0.44093  -0.43811
 Alpha  occ. eigenvalues --   -0.43794  -0.43669  -0.43606  -0.43526  -0.43304
 Alpha  occ. eigenvalues --   -0.43199  -0.43080  -0.42956  -0.42756  -0.42681
 Alpha  occ. eigenvalues --   -0.42628  -0.42277  -0.42214  -0.41837  -0.41709
 Alpha  occ. eigenvalues --   -0.41666  -0.41392  -0.41283  -0.41178  -0.41062
 Alpha  occ. eigenvalues --   -0.40885  -0.40765  -0.40761  -0.40473  -0.40372
 Alpha  occ. eigenvalues --   -0.40355  -0.40224  -0.39950  -0.39398  -0.39162
 Alpha  occ. eigenvalues --   -0.38688  -0.38025  -0.37886  -0.37518  -0.37389
 Alpha  occ. eigenvalues --   -0.37363  -0.36976  -0.36915  -0.36804  -0.36521
 Alpha  occ. eigenvalues --   -0.36314  -0.35914  -0.34423  -0.33968  -0.33839
 Alpha  occ. eigenvalues --   -0.33621  -0.33317  -0.32892  -0.31381  -0.31160
 Alpha  occ. eigenvalues --   -0.30912  -0.30663  -0.30125  -0.29712  -0.29549
 Alpha  occ. eigenvalues --   -0.29438  -0.29036  -0.28942  -0.24219  -0.23746
 Alpha  occ. eigenvalues --   -0.21266  -0.20825
 Alpha virt. eigenvalues --   -0.08894  -0.08502  -0.01887  -0.01377  -0.00134
 Alpha virt. eigenvalues --    0.00289   0.02071   0.02367   0.02586   0.03614
 Alpha virt. eigenvalues --    0.04564   0.04996   0.05044   0.05407   0.05946

 Mulliken charges:
               1
     1  Mg   0.838900
     2  C   -0.002461
     3  C   -0.093813
     4  C   -0.046651
     5  C   -0.065139
     6  N   -0.256528
     7  C   -0.052870
     8  C   -0.013926
     9  C   -0.087051
    10  C    0.046307
    11  C    0.104719
    12  C    0.052726
    13  C   -0.071862
    14  H    0.035484
    15  N   -0.433449
    16  C    0.168984
    17  C   -0.176523
    18  C   -0.003061
    19  C    0.149161
    20  C    0.110159
    21  C    0.013190
    22  O   -0.249621
    23  C    0.062117
    24  N   -0.340800
    25  C    0.041045
    26  C   -0.028884
    27  C   -0.025242
    28  C    0.073713
    29  C    0.076223
    30  C    0.064632
    31  C   -0.049831
    32  N   -0.310458
    33  C    0.079881
    34  C   -0.170789
    35  C    0.008663
    36  C    0.083083
    37  C    0.127477
    38  C    0.046508
    39  O   -0.188054
    40  C   -0.005566
    41  C    0.212873
    42  O   -0.255993
    43  O   -0.304990
    44  C    0.156941
    45  H   -0.017060
    46  H   -0.016858
    47  H   -0.042867
    48  H    0.001313
    49  H   -0.003943
    50  H    0.025678
    51  H    0.016586
    52  H    0.017039
    53  H    0.010668
    54  H    0.044576
    55  H    0.018593
    56  H    0.017855
    57  H    0.005715
    58  H    0.027522
    59  H    0.040726
    60  H    0.036824
    61  H    0.038241
    62  H    0.033259
    63  H    0.015819
    64  H    0.009793
    65  H    0.023338
    66  H    0.013468
    67  H    0.004949
    68  H    0.004295
    69  H    0.001208
    70  H    0.020704
    71  H    0.022912
    72  H    0.036374
    73  H    0.046869
    74  H    0.007555
    75  H    0.046423
    76  H    0.035308
    77  H    0.043425
    78  H    0.045803
    79  H    0.055272
    80  Mg   0.836582
    81  C   -0.017110
    82  C   -0.088698
    83  C   -0.040938
    84  C   -0.065790
    85  N   -0.255061
    86  C   -0.050000
    87  C   -0.015516
    88  C   -0.082081
    89  C    0.046603
    90  C    0.098752
    91  C    0.063612
    92  C   -0.077344
    93  H    0.033954
    94  N   -0.424313
    95  C    0.163915
    96  C   -0.173087
    97  C   -0.004952
    98  C    0.152060
    99  C    0.098801
   100  C    0.017562
   101  O   -0.251413
   102  C    0.060969
   103  N   -0.350143
   104  C    0.038287
   105  C   -0.020615
   106  C   -0.033600
   107  C    0.088393
   108  C    0.070544
   109  C    0.035005
   110  C   -0.007411
   111  N   -0.323748
   112  C    0.077916
   113  C   -0.164880
   114  C    0.001544
   115  C    0.095703
   116  C    0.131977
   117  C    0.041265
   118  O   -0.189682
   119  C    0.001002
   120  C    0.210884
   121  O   -0.251606
   122  O   -0.305074
   123  C    0.152380
   124  H   -0.020822
   125  H   -0.012944
   126  H   -0.042577
   127  H   -0.000552
   128  H   -0.006836
   129  H    0.023665
   130  H    0.017442
   131  H    0.018944
   132  H    0.013391
   133  H    0.037284
   134  H    0.020451
   135  H    0.018809
   136  H    0.007369
   137  H    0.028304
   138  H    0.039254
   139  H    0.039787
   140  H    0.036322
   141  H    0.032398
   142  H    0.013400
   143  H    0.010082
   144  H    0.023136
   145  H    0.026339
   146  H    0.001874
   147  H    0.005291
   148  H    0.001964
   149  H    0.011028
   150  H    0.016825
   151  H    0.030461
   152  H    0.045383
   153  H    0.007623
   154  H    0.043083
   155  H    0.036770
   156  H    0.043596
   157  H    0.049222
   158  H    0.052976
 Sum of Mulliken charges =  -0.00000

 Dipole moment (field-independent basis, Debye):
    X=             -3.4867    Y=             -2.5639    Z=              0.2609  Tot=              4.3357
 Quadrupole moment (field-independent basis, Debye-Ang):
   XX=           -538.4092   YY=           -532.6650   ZZ=           -449.8435
   XY=             21.6812   XZ=             59.7676   YZ=            -22.2799

 Normal termination of Gaussian 16 at Fri Sep  3 13:33:19 2021.
