 Gaussian 16, Revision A.03,
 Gaussian 16:  ES64L-G16RevA.03 25-Dec-2016

 -----------------------------------
 #p cam-b3lyp/Def2SVP td=(nstates=5)
 -----------------------------------

 --------------------------------
 TDDFT excited states in gaussian
 --------------------------------
 Symbolic Z-matrix:
 Charge =  0 Multiplicity = 1

                         Standard orientation:
 ---------------------------------------------------------------------
 Center     Atomic      Atomic             Coordinates (Angstroms)
 Number     Number       Type             X           Y           Z
 ---------------------------------------------------------------------
      1         12           0        7.950579   -0.622430    0.547775
      2          6           0        8.311396    2.027539   -1.831234
      3          6           0        8.651866    1.665819    2.979889
      4          6           0        8.085698   -3.023033    2.615496
      5          6           0        8.402613   -2.854021   -2.090658
      6          7           0        8.404577    1.542492    0.460349
      7          6           0        8.452963    2.451816   -0.508134
      8          6           0        8.593010    3.910662    0.020572
      9          6           0        9.249811    3.601956    1.440189
     10          6           0        8.708978    2.199871    1.658315
     11          6           0       10.773498    3.540904    1.406226
     12          6           0        7.207167    4.623295    0.173301
     13          6           0        7.270854    6.140876    0.368864
     14          1           0        6.231544    6.967786   -0.225613
     15          7           0        7.833212   -0.622874    2.519849
     16          6           0        8.142662    0.402187    3.349775
     17          6           0        7.888720   -0.092012    4.720162
     18          6           0        7.588053   -1.547909    4.630407
     19          6           0        7.852761   -1.798271    3.236625
     20          6           0        7.896704    0.792974    5.928668
     21          6           0        7.144298   -2.556085    5.642728
     22          8           0        7.165063   -3.812298    5.405931
     23          6           0        6.763287   -2.033194    6.967288
     24          7           0        8.424842   -2.645310    0.346112
     25          6           0        8.349272   -3.479107    1.389212
     26          6           0        8.455559   -4.910320    0.953011
     27          6           0        8.376003   -4.893496   -0.641712
     28          6           0        8.316478   -3.361318   -0.858872
     29          6           0        9.725719   -5.651447    1.392824
     30          6           0        7.285356   -5.774765   -1.300705
     31          6           0        5.914704   -5.227604   -0.970513
     32          7           0        8.120390   -0.481522   -1.611473
     33          6           0        8.327110   -1.536838   -2.511613
     34          6           0        8.482898   -0.938594   -3.850232
     35          6           0        8.371789    0.433218   -3.631981
     36          6           0        8.186238    0.678063   -2.241329
     37          6           0        8.754507   -1.647721   -5.053478
     38          6           0        8.391279    1.750585   -4.246815
     39          8           0        8.421269    2.166130   -5.406089
     40          6           0        8.474867    2.842092   -3.090332
     41          6           0        7.442699    3.896236   -3.384810
     42          8           0        6.224389    3.631153   -3.331741
     43          8           0        8.038825    5.096731   -3.447973
     44          6           0        7.065948    6.191209   -3.708324
     45          1           0        9.089047    2.238696    3.800026
     46          1           0        8.029934   -3.888378    3.279203
     47          1           0        8.462209   -3.493170   -2.973488
     48          1           0        9.256992    4.545165   -0.566758
     49          1           0        8.881219    4.274941    2.214110
     50          1           0       11.151601    3.591878    0.385266
     51          1           0       11.036787    2.586443    1.862488
     52          1           0       11.206334    4.309112    2.047543
     53          1           0        6.756227    4.332725    1.122134
     54          1           0        6.560850    4.395935   -0.675172
     55          1           0        8.258151    6.533272    0.123550
     56          1           0        7.151069    6.353668    1.431206
     57          1           0        8.311279    1.774764    5.703367
     58          1           0        8.600284    0.357232    6.637762
     59          1           0        6.911126    0.868896    6.388236
     60          1           0        7.610050   -1.501054    7.401303
     61          1           0        6.388858   -2.886800    7.531213
     62          1           0        5.969967   -1.295877    6.840978
     63          1           0        7.629069   -5.501214    1.345674
     64          1           0        9.304936   -5.232106   -1.101168
     65          1           0        9.527734   -6.556633    1.967407
     66          1           0       10.342750   -4.955249    1.960161
     67          1           0       10.398991   -5.925907    0.581163
     68          1           0        7.328937   -6.789685   -0.907024
     69          1           0        7.378211   -5.835403   -2.385118
     70          1           0        5.710590   -5.657484    0.009473
     71          1           0        5.183097   -5.565601   -1.705170
     72          1           0        5.936371   -4.144006   -0.852904
     73          1           0        8.106104   -1.215266   -5.815400
     74          1           0        8.568901   -2.714974   -4.934626
     75          1           0        9.811897   -1.420179   -5.187671
     76          1           0        9.487517    3.243638   -3.110882
     77          1           0        7.407263    6.718927   -4.598970
     78          1           0        6.985341    6.760912   -2.782394
     79          1           0        6.067315    5.884188   -4.021068
     80         12           0       -7.878454   -0.662082   -0.556398
     81          6           0       -8.651489    1.858788    1.878093
     82          6           0       -8.221115    1.750084   -2.943579
     83          6           0       -7.646514   -2.941384   -2.751477
     84          6           0       -8.714430   -3.042925    1.847446
     85          7           0       -8.373621    1.489635   -0.425285
     86          6           0       -8.586349    2.351194    0.557969
     87          6           0       -8.657956    3.835253    0.108516
     88          6           0       -9.082819    3.602573   -1.422571
     89          6           0       -8.495051    2.208260   -1.630141
     90          6           0      -10.586869    3.521745   -1.624151
     91          6           0       -7.270376    4.559901    0.215824
     92          6           0       -7.329237    6.083812    0.089371
     93          1           0       -6.402260    6.884523    0.884379
     94          7           0       -7.446044   -0.543972   -2.489687
     95          6           0       -7.628578    0.518996   -3.300890
     96          6           0       -7.171592    0.092088   -4.632458
     97          6           0       -6.858315   -1.361709   -4.577081
     98          6           0       -7.335020   -1.683596   -3.246954
     99          6           0       -6.992634    1.047544   -5.776350
    100          6           0       -6.244511   -2.308590   -5.563409
    101          8           0       -6.285063   -3.578273   -5.392890
    102          6           0       -5.676892   -1.710415   -6.780576
    103          7           0       -8.342604   -2.688555   -0.539266
    104          6           0       -8.094979   -3.463576   -1.609760
    105          6           0       -8.251974   -4.926966   -1.271765
    106          6           0       -8.421401   -4.985076    0.317408
    107          6           0       -8.422420   -3.472007    0.627290
    108          6           0       -9.429767   -5.640335   -1.935308
    109          6           0       -7.436535   -5.898613    1.097239
    110          6           0       -6.035300   -5.337529    1.012868
    111          7           0       -8.382017   -0.640763    1.544563
    112          6           0       -8.722550   -1.748555    2.351363
    113          6           0       -9.096077   -1.221196    3.679819
    114          6           0       -8.968066    0.169537    3.545789
    115          6           0       -8.564146    0.487821    2.221012
    116          6           0       -9.534663   -1.997144    4.789618
    117          6           0       -9.093054    1.441377    4.220705
    118          8           0       -9.318190    1.792076    5.378309
    119          6           0       -9.015923    2.599464    3.134757
    120          6           0       -8.055934    3.643250    3.636220
    121          8           0       -6.848251    3.378682    3.770806
    122          8           0       -8.678058    4.835902    3.666415
    123          6           0       -7.763217    5.905574    4.146728
    124          1           0       -8.526458    2.373179   -3.784653
    125          1           0       -7.476111   -3.774025   -3.437885
    126          1           0       -8.892700   -3.727118    2.679773
    127          1           0       -9.408938    4.428097    0.616793
    128          1           0       -8.600557    4.321389   -2.079910
    129          1           0      -11.119522    3.516011   -0.684791
    130          1           0      -10.762209    2.600491   -2.164143
    131          1           0      -10.922504    4.326611   -2.284358
    132          1           0       -6.671823    4.320635   -0.672557
    133          1           0       -6.769957    4.291895    1.125973
    134          1           0       -8.352066    6.466622    0.190538
    135          1           0       -7.039411    6.359083   -0.927613
    136          1           0       -7.458855    2.018113   -5.566484
    137          1           0       -7.565853    0.647566   -6.619736
    138          1           0       -5.948191    1.153300   -6.077378
    139          1           0       -6.451997   -1.158618   -7.307064
    140          1           0       -5.206257   -2.535086   -7.319359
    141          1           0       -4.913935   -0.980215   -6.488502
    142          1           0       -7.367199   -5.485557   -1.551503
    143          1           0       -9.411508   -5.366005    0.607957
    144          1           0       -9.126789   -6.522991   -2.529610
    145          1           0       -9.955617   -4.926620   -2.555509
    146          1           0      -10.210716   -5.974042   -1.254171
    147          1           0       -7.400987   -6.891907    0.643069
    148          1           0       -7.703887   -6.030832    2.140327
    149          1           0       -5.677185   -5.711892    0.049191
    150          1           0       -5.423823   -5.709208    1.832617
    151          1           0       -6.052442   -4.242958    0.955546
    152          1           0       -9.027004   -1.607545    5.661970
    153          1           0       -9.322464   -3.054320    4.644257
    154          1           0      -10.607113   -1.786346    4.763342
    155          1           0      -10.023535    2.997194    3.007840
    156          1           0       -8.252099    6.384397    5.000784
    157          1           0       -7.555866    6.539787    3.264386
    158          1           0       -6.821309    5.599329    4.586582
 ---------------------------------------------------------------------

 SCF Done:  E(RCAM-B3LYP) =  -4069.81187775     A.U. after   19 cycles

 Excitation energies and oscillator strengths:

 Excited State   1:      Singlet-A      1.6702 eV  742.35 nm  f=0.0233  <S**2>=0.000
     309 -> 315        0.10391
     310 -> 316        0.13790
     311 -> 313        0.54909
     312 -> 314        0.41180
 This state for optimization and/or second-order correction.
 Total Energy, E(TD-HF/TD-DFT) =  -4069.75050084
 Copying the excited state density for this state as the 1-particle RhoCI density.

 Excited State   2:      Singlet-A      1.6854 eV  735.63 nm  f=0.7346  <S**2>=0.000
     309 -> 315        0.14162
     310 -> 316       -0.10573
     311 -> 313       -0.41129
     312 -> 314        0.54828

 Excited State   3:      Singlet-A      2.1863 eV  567.10 nm  f=0.0599  <S**2>=0.000
     309 -> 314       -0.13412
     310 -> 313        0.62847
     311 -> 316       -0.26712

 Excited State   4:      Singlet-A      2.1932 eV  565.31 nm  f=0.1337  <S**2>=0.000
     309 -> 314        0.62662
     310 -> 313        0.13321
     312 -> 315       -0.27248

 Excited State   5:      Singlet-A      2.8087 eV  441.43 nm  f=0.0000  <S**2>=0.000
     312 -> 313        0.70709

 The electronic state is 1-A.
 Alpha  occ. eigenvalues --  -46.87718 -46.87594 -19.26324 -19.26253 -19.19129
 Alpha  occ. eigenvalues --  -19.18982 -19.18719 -19.18625 -19.18111 -19.18002
 Alpha  occ. eigenvalues --  -14.42432 -14.42374 -14.41372 -14.41296 -14.39322
 Alpha  occ. eigenvalues --  -14.39283 -14.38536 -14.38511 -10.39057 -10.39040
 Alpha  occ. eigenvalues --  -10.35351 -10.35300 -10.34332 -10.34180 -10.31744
 Alpha  occ. eigenvalues --  -10.31662 -10.31334 -10.31250 -10.30956 -10.30832
 Alpha  occ. eigenvalues --  -10.30496 -10.30431 -10.30333 -10.30299 -10.30124
 Alpha  occ. eigenvalues --  -10.30072 -10.29846 -10.29836 -10.29553 -10.29366
 Alpha  occ. eigenvalues --  -10.29333 -10.29173 -10.28682 -10.28662 -10.28605
 Alpha  occ. eigenvalues --  -10.28482 -10.28339 -10.28289 -10.28083 -10.28049
 Alpha  occ. eigenvalues --  -10.27936 -10.27718 -10.27650 -10.27603 -10.27502
 Alpha  occ. eigenvalues --  -10.27458 -10.27421 -10.27421 -10.27394 -10.27384
 Alpha  occ. eigenvalues --  -10.27371 -10.27369 -10.27331 -10.27317 -10.27103
 Alpha  occ. eigenvalues --  -10.27004 -10.26638 -10.26633 -10.26296 -10.26294
 Alpha  occ. eigenvalues --  -10.26172 -10.26099 -10.26078 -10.25975 -10.25942
 Alpha  occ. eigenvalues --  -10.25871 -10.25806 -10.25784 -10.25363 -10.25346
 Alpha  occ. eigenvalues --  -10.24811 -10.24760 -10.24710 -10.24663 -10.24626
 Alpha  occ. eigenvalues --  -10.24592  -3.16460  -3.16343  -1.91342  -1.91225
 Alpha  occ. eigenvalues --   -1.90929  -1.90814  -1.90771  -1.90651  -1.16616
 Alpha  occ. eigenvalues --   -1.16600  -1.08613  -1.08572  -1.07120  -1.06914
 Alpha  occ. eigenvalues --   -1.06877  -1.06605  -1.04506  -1.04431  -1.03683
 Alpha  occ. eigenvalues --   -1.03598  -1.03156  -1.02974  -1.02334  -1.02047
 Alpha  occ. eigenvalues --   -0.91929  -0.91903  -0.89441  -0.89432  -0.89120
 Alpha  occ. eigenvalues --   -0.89093  -0.88209  -0.88159  -0.87800  -0.87737
 Alpha  occ. eigenvalues --   -0.87621  -0.87598  -0.87184  -0.87036  -0.84939
 Alpha  occ. eigenvalues --   -0.84911  -0.83860  -0.83817  -0.82873  -0.82846
 Alpha  occ. eigenvalues --   -0.82586  -0.82576  -0.81550  -0.81530  -0.80527
 Alpha  occ. eigenvalues --   -0.80385  -0.78715  -0.78562  -0.77144  -0.77082
 Alpha  occ. eigenvalues --   -0.76871  -0.76846  -0.75860  -0.75785  -0.74825
 Alpha  occ. eigenvalues --   -0.74746  -0.72700  -0.72637  -0.71601  -0.71523
 Alpha  occ. eigenvalues --   -0.69825  -0.69696  -0.68801  -0.68766  -0.67567
 Alpha  occ. eigenvalues --   -0.67539  -0.67144  -0.67131  -0.65218  -0.65214
 Alpha  occ. eigenvalues --   -0.64786  -0.64712  -0.64598  -0.64552  -0.64192
 Alpha  occ. eigenvalues --   -0.64144  -0.62245  -0.62235  -0.60357  -0.60264
 Alpha  occ. eigenvalues --   -0.59736  -0.59733  -0.58933  -0.58915  -0.58432
 Alpha  occ. eigenvalues --   -0.58367  -0.57528  -0.57508  -0.57235  -0.57173
 Alpha  occ. eigenvalues --   -0.56237  -0.56142  -0.55929  -0.55841  -0.55441
 Alpha  occ. eigenvalues --   -0.55385  -0.55272  -0.55195  -0.54462  -0.54439
 Alpha  occ. eigenvalues --   -0.53854  -0.53827  -0.53221  -0.53163  -0.53147
 Alpha  occ. eigenvalues --   -0.53078  -0.52850  -0.52846  -0.52670  -0.52582
 Alpha  occ. eigenvalues --   -0.52356  -0.52339  -0.51850  -0.51835  -0.51593
 Alpha  occ. eigenvalues --   -0.51544  -0.51146  -0.51129  -0.50473  -0.50382
 Alpha  occ. eigenvalues --   -0.49950  -0.49910  -0.49834  -0.49802  -0.49438
 Alpha  occ. eigenvalues --   -0.49415  -0.49144  -0.49140  -0.49050  -0.49030
 Alpha  occ. eigenvalues --   -0.48531  -0.48506  -0.48389  -0.48363  -0.48321
 Alpha  occ. eigenvalues --   -0.48260  -0.47620  -0.47530  -0.47220  -0.47051
 Alpha  occ. eigenvalues --   -0.46723  -0.46649  -0.46493  -0.46486  -0.46285
 Alpha  occ. eigenvalues --   -0.46208  -0.46095  -0.46032  -0.45776  -0.45765
 Alpha  occ. eigenvalues --   -0.45150  -0.45125  -0.44515  -0.44461  -0.44424
 Alpha  occ. eigenvalues --   -0.44414  -0.44069  -0.44067  -0.44019  -0.44014
 Alpha  occ. eigenvalues --   -0.43946  -0.43866  -0.43509  -0.43438  -0.43328
 Alpha  occ. eigenvalues --   -0.43312  -0.42957  -0.42888  -0.42848  -0.42650
 Alpha  occ. eigenvalues --   -0.42581  -0.42488  -0.41936  -0.41904  -0.41634
 Alpha  occ. eigenvalues --   -0.41613  -0.41463  -0.41399  -0.41069  -0.40931
 Alpha  occ. eigenvalues --   -0.40796  -0.40732  -0.40654  -0.40623  -0.40496
 Alpha  occ. eigenvalues --   -0.40434  -0.40164  -0.40161  -0.39363  -0.39357
 Alpha  occ. eigenvalues --   -0.38392  -0.38291  -0.37681  -0.37597  -0.37243
 Alpha  occ. eigenvalues --   -0.37205  -0.37193  -0.37138  -0.36734  -0.36664
 Alpha  occ. eigenvalues --   -0.36163  -0.36129  -0.34211  -0.34191  -0.33824
 Alpha  occ. eigenvalues --   -0.33725  -0.33112  -0.33112  -0.31250  -0.31186
 Alpha  occ. eigenvalues --   -0.30960  -0.30909  -0.29972  -0.29908  -0.29368
 Alpha  occ. eigenvalues --   -0.29255  -0.29248  -0.29148  -0.24005  -0.23973
 Alpha  occ. eigenvalues --   -0.21051  -0.21051
 Alpha virt. eigenvalues --   -0.08725  -0.08696  -0.01670  -0.01617   0.00025
 Alpha virt. eigenvalues --    0.00047   0.02265   0.02269   0.03216   0.03307
 Alpha virt. eigenvalues --    0.04789   0.04789   0.05141   0.05201   0.06233

 Mulliken charges:
               1
     1  Mg   0.839071
     2  C   -0.002995
     3  C   -0.093996
     4  C   -0.045800
     5  C   -0.063949
     6  N   -0.256792
     7  C   -0.052526
     8  C   -0.014032
     9  C   -0.087037
    10  C    0.046413
    11  C    0.104821
    12  C    0.053419
    13  C   -0.071706
    14  H    0.035760
    15  N   -0.433182
    16  C    0.168599
    17  C   -0.176960
    18  C   -0.003812
    19  C    0.148851
    20  C    0.110143
    21  C    0.012530
    22  O   -0.249590
    23  C    0.062331
    24  N   -0.341166
    25  C    0.041292
    26  C   -0.028178
    27  C   -0.023936
    28  C    0.074831
    29  C    0.076200
    30  C    0.035131
    31  C   -0.004529
    32  N   -0.310407
    33  C    0.080335
    34  C   -0.169844
    35  C    0.008169
    36  C    0.082946
    37  C    0.127356
    38  C    0.045935
    39  O   -0.188966
    40  C   -0.005309
    41  C    0.212775
    42  O   -0.257198
    43  O   -0.304747
    44  C    0.157866
    45  H   -0.017590
    46  H   -0.016773
    47  H   -0.041603
    48  H    0.000720
    49  H   -0.003936
    50  H    0.025352
    51  H    0.016464
    52  H    0.016600
    53  H    0.011593
    54  H    0.044021
    55  H    0.017700
    56  H    0.018159
    57  H    0.005851
    58  H    0.026792
    59  H    0.040183
    60  H    0.037211
    61  H    0.035844
    62  H    0.032114
    63  H    0.016691
    64  H    0.009301
    65  H    0.023210
    66  H    0.012488
    67  H    0.004641
    68  H    0.006297
    69  H    0.004618
    70  H    0.008890
    71  H    0.018324
    72  H    0.029055
    73  H    0.047270
    74  H    0.009115
    75  H    0.045829
    76  H    0.035009
    77  H    0.042647
    78  H    0.046472
    79  H    0.053327
    80  Mg   0.838048
    81  C   -0.016846
    82  C   -0.087601
    83  C   -0.045418
    84  C   -0.064902
    85  N   -0.254554
    86  C   -0.049921
    87  C   -0.015128
    88  C   -0.090547
    89  C    0.045855
    90  C    0.114388
    91  C    0.062452
    92  C   -0.077800
    93  H    0.034536
    94  N   -0.423535
    95  C    0.163164
    96  C   -0.174376
    97  C   -0.007533
    98  C    0.152225
    99  C    0.099317
   100  C    0.015854
   101  O   -0.253216
   102  C    0.060991
   103  N   -0.350043
   104  C    0.037547
   105  C   -0.019836
   106  C   -0.034762
   107  C    0.088866
   108  C    0.073702
   109  C    0.034762
   110  C   -0.007684
   111  N   -0.323984
   112  C    0.078295
   113  C   -0.163307
   114  C    0.002073
   115  C    0.096144
   116  C    0.131527
   117  C    0.042207
   118  O   -0.188366
   119  C    0.000964
   120  C    0.211178
   121  O   -0.251066
   122  O   -0.305616
   123  C    0.152177
   124  H   -0.019607
   125  H   -0.015529
   126  H   -0.040642
   127  H   -0.000874
   128  H   -0.004173
   129  H    0.022322
   130  H    0.014422
   131  H    0.016231
   132  H    0.014386
   133  H    0.037595
   134  H    0.020584
   135  H    0.019829
   136  H    0.008747
   137  H    0.026108
   138  H    0.040742
   139  H    0.038108
   140  H    0.036624
   141  H    0.034819
   142  H    0.014504
   143  H    0.012225
   144  H    0.025111
   145  H    0.011603
   146  H    0.005531
   147  H    0.006141
   148  H    0.003494
   149  H    0.011033
   150  H    0.017953
   151  H    0.030247
   152  H    0.045736
   153  H    0.008440
   154  H    0.046730
   155  H    0.034854
   156  H    0.043626
   157  H    0.049537
   158  H    0.053313
 Sum of Mulliken charges =  -0.00000

 Dipole moment (field-independent basis, Debye):
    X=              0.6865    Y=              3.1092    Z=              0.0258  Tot=              3.1842
 Quadrupole moment (field-independent basis, Debye-Ang):
   XX=           -472.9797   YY=           -460.4266   ZZ=           -537.1876
   XY=              2.5572   XZ=             65.7870   YZ=              2.5781

 Normal termination of Gaussian 16 at Sat Sep 11 21:50:50 2021.
