 Gaussian 16, Revision A.03,
 Gaussian 16:  ES64L-G16RevA.03 25-Dec-2016

 -----------------------------------
 #p cam-b3lyp/Def2SVP td=(nstates=5)
 -----------------------------------

 --------------------------------
 TDDFT excited states in gaussian
 --------------------------------
 Symbolic Z-matrix:
 Charge =  0 Multiplicity = 1

                         Standard orientation:
 ---------------------------------------------------------------------
 Center     Atomic      Atomic             Coordinates (Angstroms)
 Number     Number       Type             X           Y           Z
 ---------------------------------------------------------------------
      1         12           0       -4.252757   -1.238276   -0.089104
      2          6           0       -4.849976    2.279092    0.200142
      3          6           0       -5.041285   -0.949286   -3.396335
      4          6           0       -4.174806   -4.403225   -0.272526
      5          6           0       -4.623712   -1.436125    3.370507
      6          7           0       -4.851530    0.498391   -1.324460
      7          6           0       -4.985158    1.802811   -1.105817
      8          6           0       -5.208002    2.627951   -2.408451
      9          6           0       -5.805975    1.477329   -3.336080
     10          6           0       -5.167835    0.271506   -2.669228
     11          6           0       -7.322619    1.345347   -3.241881
     12          6           0       -3.869025    3.194530   -2.989708
     13          6           0       -4.028208    4.273512   -4.064795
     14          1           0       -3.061770    5.360177   -4.114842
     15          7           0       -4.084711   -2.426927   -1.658092
     16          6           0       -4.439962   -2.139676   -2.933462
     17          6           0       -4.118465   -3.345050   -3.727436
     18          6           0       -3.724263   -4.423152   -2.778543
     19          6           0       -4.007692   -3.794038   -1.513924
     20          6           0       -4.153938   -3.377781   -5.224573
     21          6           0       -3.188577   -5.805413   -2.979856
     22          8           0       -3.132042   -6.658145   -2.028948
     23          6           0       -2.809016   -6.168727   -4.357164
     24          7           0       -4.596783   -2.750569    1.308125
     25          6           0       -4.439125   -4.038574    0.983822
     26          6           0       -4.461432   -4.914797    2.201063
     27          6           0       -4.424393   -3.928616    3.456383
     28          6           0       -4.472308   -2.579273    2.697932
     29          6           0       -5.667822   -5.855487    2.326511
     30          6           0       -3.295056   -4.152234    4.493211
     31          6           0       -1.955665   -3.825409    3.871669
     32          7           0       -4.487270    0.171586    1.544400
     33          6           0       -4.646687   -0.132343    2.904138
     34          6           0       -4.876362    1.142881    3.607786
     35          6           0       -4.850933    2.104602    2.599673
     36          6           0       -4.646175    1.467602    1.342455
     37          6           0       -5.131307    1.292580    4.999557
     38          6           0       -4.973681    3.519646    2.289122
     39          8           0       -5.061120    4.549974    2.958652
     40          6           0       -5.099615    3.676873    0.709487
     41          6           0       -4.147630    4.761038    0.283315
     42          8           0       -2.913451    4.602230    0.377899
     43          8           0       -4.823542    5.709406   -0.383231
     44          6           0       -3.932493    6.800757   -0.859823
     45          1           0       -5.494187   -1.022979   -4.386987
     46          1           0       -4.044611   -5.487419   -0.275841
     47          1           0       -4.663548   -1.410874    4.461024
     48          1           0       -5.927579    3.441373   -2.313693
     49          1           0       -5.462986    1.566082   -4.366712
     50          1           0       -7.729522    1.979204   -2.454115
     51          1           0       -7.510113    0.294588   -3.019970
     52          1           0       -7.788769    1.535138   -4.209073
     53          1           0       -3.375434    2.419642   -3.576204
     54          1           0       -3.231180    3.573380   -2.190363
     55          1           0       -5.045376    4.665580   -4.088464
     56          1           0       -3.895403    3.805790   -5.040398
     57          1           0       -4.638435   -2.491855   -5.633162
     58          1           0       -4.808495   -4.201192   -5.509628
     59          1           0       -3.164027   -3.529018   -5.655313
     60          1           0       -3.677730   -6.068467   -5.008189
     61          1           0       -2.364321   -7.161292   -4.294629
     62          1           0       -2.069903   -5.453855   -4.719957
     63          1           0       -3.587683   -5.564470    2.231298
     64          1           0       -5.340366   -3.981629    4.045328
     65          1           0       -5.395426   -6.907442    2.415372
     66          1           0       -6.314831   -5.690450    1.465446
     67          1           0       -6.342140   -5.626543    3.151312
     68          1           0       -3.261004   -5.197885    4.797185
     69          1           0       -3.411667   -3.548771    5.393481
     70          1           0       -1.698224   -4.746418    3.349846
     71          1           0       -1.222465   -3.597399    4.646032
     72          1           0       -2.046148   -3.039992    3.121056
     73          1           0       -4.532932    2.141661    5.329674
     74          1           0       -4.872276    0.387878    5.549122
     75          1           0       -6.204579    1.481874    4.989027
     76          1           0       -6.136872    3.938106    0.502178
     77          1           0       -4.330971    7.735676   -0.465645
     78          1           0       -3.865976    6.695793   -1.942857
     79          1           0       -2.924100    6.815621   -0.444778
     80         12           0        4.691936   -0.261204    0.240318
     81          6           0        3.491726    3.116933    0.403860
     82          6           0        4.520991    0.000579   -3.156267
     83          6           0        5.313625   -3.367901    0.068944
     84          6           0        3.691252   -0.630360    3.558162
     85          7           0        4.071739    1.396151   -1.086628
     86          6           0        3.693810    2.653666   -0.912948
     87          6           0        3.600363    3.483742   -2.221312
     88          6           0        3.381224    2.276215   -3.257051
     89          6           0        4.062776    1.155894   -2.474078
     90          6           0        1.920074    1.904928   -3.448128
     91          6           0        4.923881    4.269310   -2.526606
     92          6           0        4.800964    5.337863   -3.615111
     93          1           0        5.578909    6.565833   -3.475997
     94          7           0        5.353608   -1.356756   -1.276427
     95          6           0        5.217205   -1.091112   -2.592517
     96          6           0        5.857419   -2.212270   -3.297717
     97          6           0        6.237532   -3.242483   -2.293279
     98          6           0        5.617404   -2.692917   -1.104371
     99          6           0        6.126083   -2.197638   -4.774544
    100          6           0        7.017771   -4.518467   -2.389729
    101          8           0        7.023327   -5.377844   -1.438801
    102          6           0        7.699448   -4.775125   -3.666810
    103          7           0        4.336592   -1.844061    1.540569
    104          6           0        4.755350   -3.087527    1.246672
    105          6           0        4.634986   -4.000739    2.443302
    106          6           0        4.273356   -3.048231    3.675999
    107          6           0        4.154305   -1.701713    2.928918
    108          6           0        3.587640   -5.108475    2.332087
    109          6           0        5.200809   -3.124014    4.919691
    110          6           0        6.570195   -2.583600    4.576013
    111          7           0        3.931663    1.038896    1.789437
    112          6           0        3.552647    0.673500    3.099751
    113          6           0        2.990245    1.878937    3.742426
    114          6           0        3.060457    2.864054    2.745877
    115          6           0        3.607995    2.306411    1.558980
    116          6           0        2.459072    1.947487    5.061251
    117          6           0        2.786049    4.246176    2.424719
    118          8           0        2.401139    5.226059    3.061436
    119          6           0        2.935982    4.439419    0.854193
    120          6           0        3.770175    5.667992    0.614905
    121          8           0        4.964133    5.698625    0.961494
    122          8           0        3.087163    6.517623   -0.173759
    123          6           0        3.877880    7.746874   -0.448595
    124          1           0        4.289773   -0.101503   -4.216933
    125          1           0        5.611319   -4.418592    0.099068
    126          1           0        3.447573   -0.638426    4.622696
    127          1           0        2.762057    4.168588   -2.265888
    128          1           0        3.902654    2.459103   -4.193013
    129          1           0        1.276241    2.437630   -2.764139
    130          1           0        1.861708    0.839080   -3.270292
    131          1           0        1.626860    2.052890   -4.491422
    132          1           0        5.639602    3.591205   -3.008952
    133          1           0        5.321153    4.708560   -1.632250
    134          1           0        3.754754    5.570074   -3.848494
    135          1           0        5.199603    4.930831   -4.547545
    136          1           0        5.587006   -1.382824   -5.273414
    137          1           0        5.683585   -3.109888   -5.189108
    138          1           0        7.192742   -2.184360   -5.008507
    139          1           0        6.967536   -4.786518   -4.470944
    140          1           0        8.275957   -5.689179   -3.511798
    141          1           0        8.380848   -3.942251   -3.873234
    142          1           0        5.575770   -4.497250    2.647046
    143          1           0        3.276341   -3.270518    4.083894
    144          1           0        4.007936   -6.122222    2.472527
    145          1           0        3.105786   -5.026961    1.366832
    146          1           0        2.747017   -5.019792    3.018156
    147          1           0        5.344581   -4.164232    5.222076
    148          1           0        4.813681   -2.589002    5.780433
    149          1           0        7.064113   -3.441345    4.109744
    150          1           0        7.094171   -2.267520    5.475784
    151          1           0        6.502672   -1.791634    3.821101
    152          1           0        2.833571    2.862507    5.500554
    153          1           0        2.743015    1.077663    5.649927
    154          1           0        1.388539    1.961633    4.839838
    155          1           0        1.932306    4.538834    0.439062
    156          1           0        3.262473    8.598009   -0.141141
    157          1           0        4.159212    7.688509   -1.516868
    158          1           0        4.772883    7.909260    0.140524
 ---------------------------------------------------------------------

 SCF Done:  E(RCAM-B3LYP) =  -4069.81092271     A.U. after   19 cycles

 Excitation energies and oscillator strengths:

 Excited State   1:      Singlet-A      1.6469 eV  752.81 nm  f=0.0161  <S**2>=0.000
     309 -> 315       -0.11494
     310 -> 316        0.12056
     311 -> 313       -0.47252
     312 -> 314        0.49969
 This state for optimization and/or second-order correction.
 Total Energy, E(TD-HF/TD-DFT) =  -4069.75039854
 Copying the excited state density for this state as the 1-particle RhoCI density.

 Excited State   2:      Singlet-A      1.7060 eV  726.75 nm  f=0.6827  <S**2>=0.000
     309 -> 315        0.13243
     310 -> 316        0.12417
     311 -> 313        0.49700
     312 -> 314        0.47008

 Excited State   3:      Singlet-A      2.1806 eV  568.59 nm  f=0.0106  <S**2>=0.000
     309 -> 313        0.33589
     310 -> 314        0.55067
     311 -> 315       -0.13896
     312 -> 316       -0.22958

 Excited State   4:      Singlet-A      2.1967 eV  564.42 nm  f=0.1623  <S**2>=0.000
     309 -> 313        0.54560
     310 -> 314       -0.33102
     311 -> 315       -0.24148
     312 -> 316        0.14763

 Excited State   5:      Singlet-A      2.3487 eV  527.88 nm  f=0.0000  <S**2>=0.000
     312 -> 313        0.70706

 The electronic state is 1-A.
 Alpha  occ. eigenvalues --  -46.87849 -46.87399 -19.26239 -19.26027 -19.18971
 Alpha  occ. eigenvalues --  -19.18855 -19.18835 -19.18492 -19.18142 -19.17630
 Alpha  occ. eigenvalues --  -14.42512 -14.42247 -14.41505 -14.41099 -14.39454
 Alpha  occ. eigenvalues --  -14.39092 -14.38629 -14.38316 -10.39039 -10.38752
 Alpha  occ. eigenvalues --  -10.35490 -10.35175 -10.34365 -10.33801 -10.31619
 Alpha  occ. eigenvalues --  -10.31506 -10.31459 -10.31032 -10.30973 -10.30771
 Alpha  occ. eigenvalues --  -10.30615 -10.30548 -10.30274 -10.30116 -10.30069
 Alpha  occ. eigenvalues --  -10.29966 -10.29924 -10.29672 -10.29618 -10.29308
 Alpha  occ. eigenvalues --  -10.29196 -10.29122 -10.28845 -10.28712 -10.28511
 Alpha  occ. eigenvalues --  -10.28480 -10.28406 -10.28202 -10.28115 -10.27923
 Alpha  occ. eigenvalues --  -10.27825 -10.27789 -10.27706 -10.27630 -10.27581
 Alpha  occ. eigenvalues --  -10.27568 -10.27514 -10.27449 -10.27430 -10.27325
 Alpha  occ. eigenvalues --  -10.27297 -10.27200 -10.27199 -10.27156 -10.27153
 Alpha  occ. eigenvalues --  -10.26862 -10.26600 -10.26498 -10.26463 -10.26303
 Alpha  occ. eigenvalues --  -10.26301 -10.26251 -10.26078 -10.25979 -10.25843
 Alpha  occ. eigenvalues --  -10.25821 -10.25689 -10.25507 -10.25488 -10.25172
 Alpha  occ. eigenvalues --  -10.24859 -10.24847 -10.24836 -10.24571 -10.24559
 Alpha  occ. eigenvalues --  -10.24420  -3.16592  -3.16150  -1.91473  -1.91060
 Alpha  occ. eigenvalues --   -1.91032  -1.90902  -1.90621  -1.90457  -1.16587
 Alpha  occ. eigenvalues --   -1.16320  -1.08591  -1.08220  -1.07255  -1.06748
 Alpha  occ. eigenvalues --   -1.06616  -1.06593  -1.04639  -1.04234  -1.03816
 Alpha  occ. eigenvalues --   -1.03401  -1.03280  -1.02774  -1.02460  -1.01839
 Alpha  occ. eigenvalues --   -0.92004  -0.91668  -0.89588  -0.89278  -0.89253
 Alpha  occ. eigenvalues --   -0.88926  -0.88354  -0.87991  -0.87898  -0.87742
 Alpha  occ. eigenvalues --   -0.87489  -0.87435  -0.87329  -0.86892  -0.85066
 Alpha  occ. eigenvalues --   -0.84770  -0.84007  -0.83647  -0.83026  -0.82726
 Alpha  occ. eigenvalues --   -0.82712  -0.82420  -0.81599  -0.81311  -0.80633
 Alpha  occ. eigenvalues --   -0.80176  -0.78847  -0.78383  -0.77290  -0.76998
 Alpha  occ. eigenvalues --   -0.76913  -0.76656  -0.75965  -0.75578  -0.74953
 Alpha  occ. eigenvalues --   -0.74558  -0.72823  -0.72430  -0.71722  -0.71323
 Alpha  occ. eigenvalues --   -0.69999  -0.69556  -0.68946  -0.68593  -0.67683
 Alpha  occ. eigenvalues --   -0.67333  -0.67315  -0.66986  -0.65360  -0.65021
 Alpha  occ. eigenvalues --   -0.64896  -0.64671  -0.64512  -0.64396  -0.64333
 Alpha  occ. eigenvalues --   -0.63967  -0.62297  -0.61990  -0.60497  -0.60101
 Alpha  occ. eigenvalues --   -0.59876  -0.59550  -0.59034  -0.58724  -0.58543
 Alpha  occ. eigenvalues --   -0.58144  -0.57586  -0.57347  -0.57195  -0.56962
 Alpha  occ. eigenvalues --   -0.56350  -0.55986  -0.55939  -0.55612  -0.55566
 Alpha  occ. eigenvalues --   -0.55381  -0.55203  -0.54988  -0.54549  -0.54228
 Alpha  occ. eigenvalues --   -0.53981  -0.53687  -0.53348  -0.53283  -0.52982
 Alpha  occ. eigenvalues --   -0.52946  -0.52895  -0.52824  -0.52646  -0.52527
 Alpha  occ. eigenvalues --   -0.52465  -0.52199  -0.51928  -0.51691  -0.51554
 Alpha  occ. eigenvalues --   -0.51432  -0.51233  -0.50912  -0.50642  -0.50283
 Alpha  occ. eigenvalues --   -0.50113  -0.49980  -0.49761  -0.49644  -0.49576
 Alpha  occ. eigenvalues --   -0.49258  -0.49247  -0.49155  -0.48934  -0.48828
 Alpha  occ. eigenvalues --   -0.48620  -0.48510  -0.48466  -0.48287  -0.48138
 Alpha  occ. eigenvalues --   -0.48070  -0.47752  -0.47358  -0.47345  -0.46888
 Alpha  occ. eigenvalues --   -0.46860  -0.46636  -0.46470  -0.46407  -0.46334
 Alpha  occ. eigenvalues --   -0.46194  -0.46024  -0.45835  -0.45806  -0.45523
 Alpha  occ. eigenvalues --   -0.45262  -0.44963  -0.44597  -0.44583  -0.44275
 Alpha  occ. eigenvalues --   -0.44211  -0.44210  -0.44161  -0.44041  -0.43878
 Alpha  occ. eigenvalues --   -0.43843  -0.43657  -0.43511  -0.43453  -0.43289
 Alpha  occ. eigenvalues --   -0.43129  -0.43069  -0.42761  -0.42654  -0.42648
 Alpha  occ. eigenvalues --   -0.42592  -0.42332  -0.42084  -0.41739  -0.41738
 Alpha  occ. eigenvalues --   -0.41618  -0.41350  -0.41235  -0.41194  -0.40958
 Alpha  occ. eigenvalues --   -0.40889  -0.40735  -0.40641  -0.40512  -0.40488
 Alpha  occ. eigenvalues --   -0.40357  -0.40260  -0.40027  -0.39546  -0.39231
 Alpha  occ. eigenvalues --   -0.38548  -0.38132  -0.37857  -0.37446  -0.37389
 Alpha  occ. eigenvalues --   -0.37338  -0.37032  -0.36955  -0.36711  -0.36480
 Alpha  occ. eigenvalues --   -0.36219  -0.35963  -0.34334  -0.33985  -0.33739
 Alpha  occ. eigenvalues --   -0.33543  -0.33227  -0.32907  -0.31385  -0.31084
 Alpha  occ. eigenvalues --   -0.31051  -0.30703  -0.30001  -0.29530  -0.29492
 Alpha  occ. eigenvalues --   -0.29348  -0.29067  -0.28890  -0.24131  -0.23761
 Alpha  occ. eigenvalues --   -0.21180  -0.20854
 Alpha virt. eigenvalues --   -0.08819  -0.08515  -0.01804  -0.01430  -0.00102
 Alpha virt. eigenvalues --    0.00227   0.02186   0.02537   0.02913   0.03532
 Alpha virt. eigenvalues --    0.04637   0.04968   0.05128   0.05503   0.06050

 Mulliken charges:
               1
     1  Mg   0.838586
     2  C   -0.003085
     3  C   -0.094865
     4  C   -0.045655
     5  C   -0.064225
     6  N   -0.256579
     7  C   -0.052952
     8  C   -0.013645
     9  C   -0.086866
    10  C    0.045863
    11  C    0.104807
    12  C    0.053593
    13  C   -0.071253
    14  H    0.034778
    15  N   -0.433117
    16  C    0.168126
    17  C   -0.177644
    18  C   -0.003992
    19  C    0.148710
    20  C    0.110308
    21  C    0.012584
    22  O   -0.249293
    23  C    0.062533
    24  N   -0.341033
    25  C    0.041033
    26  C   -0.028241
    27  C   -0.023942
    28  C    0.074860
    29  C    0.076105
    30  C    0.035207
    31  C   -0.004963
    32  N   -0.310645
    33  C    0.080566
    34  C   -0.169613
    35  C    0.009210
    36  C    0.083166
    37  C    0.126970
    38  C    0.047339
    39  O   -0.186223
    40  C   -0.005855
    41  C    0.213781
    42  O   -0.256425
    43  O   -0.305196
    44  C    0.156664
    45  H   -0.017856
    46  H   -0.016748
    47  H   -0.041511
    48  H    0.001454
    49  H   -0.004790
    50  H    0.025775
    51  H    0.016651
    52  H    0.016534
    53  H    0.009775
    54  H    0.043517
    55  H    0.018842
    56  H    0.017102
    57  H    0.005392
    58  H    0.026980
    59  H    0.038429
    60  H    0.037152
    61  H    0.036112
    62  H    0.030837
    63  H    0.016444
    64  H    0.009760
    65  H    0.023326
    66  H    0.012716
    67  H    0.004831
    68  H    0.006392
    69  H    0.004742
    70  H    0.008883
    71  H    0.015863
    72  H    0.030221
    73  H    0.049045
    74  H    0.008648
    75  H    0.046242
    76  H    0.035150
    77  H    0.043681
    78  H    0.044882
    79  H    0.056130
    80  Mg   0.837002
    81  C   -0.015654
    82  C   -0.088227
    83  C   -0.045620
    84  C   -0.065501
    85  N   -0.254330
    86  C   -0.049097
    87  C   -0.014988
    88  C   -0.090752
    89  C    0.045500
    90  C    0.113255
    91  C    0.062679
    92  C   -0.077136
    93  H    0.034205
    94  N   -0.423300
    95  C    0.162433
    96  C   -0.175703
    97  C   -0.008313
    98  C    0.151625
    99  C    0.099845
   100  C    0.015077
   101  O   -0.253679
   102  C    0.061456
   103  N   -0.350124
   104  C    0.037252
   105  C   -0.019679
   106  C   -0.034631
   107  C    0.089487
   108  C    0.073442
   109  C    0.034811
   110  C   -0.007520
   111  N   -0.324682
   112  C    0.079190
   113  C   -0.162563
   114  C    0.004839
   115  C    0.095408
   116  C    0.130791
   117  C    0.046807
   118  O   -0.184688
   119  C   -0.001306
   120  C    0.210491
   121  O   -0.252264
   122  O   -0.304525
   123  C    0.152395
   124  H   -0.021529
   125  H   -0.016058
   126  H   -0.041160
   127  H    0.000736
   128  H   -0.005674
   129  H    0.027126
   130  H    0.013425
   131  H    0.012963
   132  H    0.013470
   133  H    0.037871
   134  H    0.020058
   135  H    0.018716
   136  H    0.007611
   137  H    0.024632
   138  H    0.039016
   139  H    0.037534
   140  H    0.035769
   141  H    0.033526
   142  H    0.013848
   143  H    0.011558
   144  H    0.024598
   145  H    0.012915
   146  H    0.005135
   147  H    0.005624
   148  H    0.003083
   149  H    0.010789
   150  H    0.017476
   151  H    0.030517
   152  H    0.045981
   153  H    0.006653
   154  H    0.050790
   155  H    0.044537
   156  H    0.043421
   157  H    0.048181
   158  H    0.053070
 Sum of Mulliken charges =  -0.00000

 Dipole moment (field-independent basis, Debye):
    X=             -2.8073    Y=             -2.2353    Z=             -7.6914  Tot=              8.4874
 Quadrupole moment (field-independent basis, Debye-Ang):
   XX=           -511.3772   YY=           -547.5003   ZZ=           -451.8370
   XY=              8.1792   XZ=             -0.1154   YZ=            -50.1667

 Normal termination of Gaussian 16 at Fri Sep 10 03:43:04 2021.
