 Gaussian 16, Revision A.03,
 Gaussian 16:  ES64L-G16RevA.03 25-Dec-2016

 -----------------------------------
 #p cam-b3lyp/Def2SVP td=(nstates=5)
 -----------------------------------

 --------------------------------
 TDDFT excited states in gaussian
 --------------------------------
 Symbolic Z-matrix:
 Charge =  0 Multiplicity = 1

                         Standard orientation:
 ---------------------------------------------------------------------
 Center     Atomic      Atomic             Coordinates (Angstroms)
 Number     Number       Type             X           Y           Z
 ---------------------------------------------------------------------
      1         12           0        5.060820   -1.261762    0.144392
      2          6           0        5.993367    1.877341   -1.300807
      3          6           0        6.323218   -0.108276    3.097169
      4          6           0        4.663440   -4.176887    1.327929
      5          6           0        4.928908   -2.545357   -3.092990
      6          7           0        6.009851    0.658976    0.701846
      7          6           0        6.253892    1.802429    0.069288
      8          6           0        6.742474    2.939787    1.015373
      9          6           0        7.332915    2.047639    2.197511
     10          6           0        6.481271    0.804165    2.012041
     11          6           0        8.798628    1.672472    2.004024
     12          6           0        5.566099    3.845159    1.513543
     13          6           0        5.988473    5.162423    2.170636
     14          1           0        5.162673    6.343040    1.966811
     15          7           0        4.981135   -1.884078    2.017685
     16          6           0        5.537541   -1.281126    3.095714
     17          6           0        5.198444   -2.130297    4.257869
     18          6           0        4.562143   -3.374226    3.742258
     19          6           0        4.736107   -3.204255    2.322320
     20          6           0        5.435554   -1.715072    5.677418
     21          6           0        3.911401   -4.537276    4.421951
     22          8           0        3.631871   -5.619003    3.800418
     23          6           0        3.687331   -4.408759    5.873267
     24          7           0        5.042213   -3.158167   -0.727925
     25          6           0        4.790829   -4.250782    0.001446
     26          6           0        4.549744   -5.446482   -0.871549
     27          6           0        4.448516   -4.890299   -2.364923
     28          6           0        4.747377   -3.397438   -2.081520
     29          6           0        5.617357   -6.547487   -0.808293
     30          6           0        3.169789   -5.247873   -3.163307
     31          6           0        1.972344   -4.556180   -2.551110
     32          7           0        5.221246   -0.460227   -1.866292
     33          6           0        5.158094   -1.179802   -3.068331
     34          6           0        5.426842   -0.224130   -4.158529
     35          6           0        5.645454    0.989544   -3.509646
     36          6           0        5.547060    0.798375   -2.101788
     37          6           0        5.502901   -0.539987   -5.543767
     38          6           0        5.963605    2.398325   -3.676897
     39          8           0        6.070256    3.154413   -4.643567
     40          6           0        6.321866    3.004117   -2.248440
     41          6           0        5.561716    4.293630   -2.097981
     42          8           0        4.316357    4.296503   -2.017739
     43          8           0        6.422368    5.288912   -1.834860
     44          6           0        5.729922    6.591457   -1.644989
     45          1           0        6.897185    0.054473    4.011508
     46          1           0        4.417248   -5.178262    1.687199
     47          1           0        4.821005   -2.856110   -4.133779
     48          1           0        7.526735    3.572055    0.598724
     49          1           0        7.146602    2.492211    3.174939
     50          1           0        9.160204    1.972536    1.020589
     51          1           0        8.837888    0.588118    2.109518
     52          1           0        9.411205    2.074448    2.811453
     53          1           0        5.076108    3.364272    2.360134
     54          1           0        4.869701    4.054699    0.700863
     55          1           0        7.035935    5.389766    1.970518
     56          1           0        5.940707    5.035302    3.252190
     57          1           0        6.065489   -0.828300    5.735415
     58          1           0        6.029142   -2.500921    6.144112
     59          1           0        4.503696   -1.582549    6.227337
     60          1           0        4.642980   -4.245473    6.371885
     61          1           0        3.132488   -5.297532    6.171733
     62          1           0        3.087679   -3.517497    6.060399
     63          1           0        3.614422   -5.939540   -0.609841
     64          1           0        5.263522   -5.252099   -2.992251
     65          1           0        5.222028   -7.525418   -0.532482
     66          1           0        6.390692   -6.227348   -0.110616
     67          1           0        6.192857   -6.679293   -1.724177
     68          1           0        2.980224   -6.319658   -3.115471
     69          1           0        3.226799   -4.967782   -4.215234
     70          1           0        1.689978   -5.228863   -1.742037
     71          1           0        1.169022   -4.467238   -3.283213
     72          1           0        2.250411   -3.603225   -2.100509
     73          1           0        4.961235    0.248225   -6.066538
     74          1           0        5.073503   -1.520007   -5.750599
     75          1           0        6.581631   -0.515873   -5.697442
     76          1           0        7.400047    3.160601   -2.235766
     77          1           0        6.170198    7.295035   -2.351650
     78          1           0        5.801820    6.828767   -0.583424
     79          1           0        4.681777    6.628248   -1.943948
     80         12           0       -5.226444    1.240613    0.418057
     81          6           0       -5.859947   -2.110615   -0.698635
     82          6           0       -4.236672    1.955446   -2.766902
     83          6           0       -4.235326    4.066624    1.466288
     84          6           0       -5.164949   -0.003747    3.672827
     85          7           0       -5.109124   -0.000866   -1.408750
     86          6           0       -5.434668   -1.244559   -1.727485
     87          6           0       -5.373356   -1.556188   -3.246923
     88          6           0       -4.326577   -0.419308   -3.683524
     89          6           0       -4.592338    0.596568   -2.574438
     90          6           0       -2.877334   -0.865783   -3.585042
     91          6           0       -6.760751   -1.361458   -3.953475
     92          6           0       -6.849816   -1.941755   -5.366659
     93          1           0       -8.116698   -2.523319   -5.801707
     94          7           0       -4.830389    2.912207   -0.575658
     95          6           0       -4.465532    3.022232   -1.870281
     96          6           0       -4.271313    4.460162   -2.112731
     97          6           0       -4.391030    5.175359   -0.813161
     98          6           0       -4.471315    4.052393    0.099303
     99          6           0       -4.080695    5.035324   -3.486158
    100          6           0       -4.414782    6.629307   -0.450324
    101          8           0       -4.286828    7.022746    0.762801
    102          6           0       -4.498476    7.582306   -1.566690
    103          7           0       -4.556622    1.901035    2.272118
    104          6           0       -4.237445    3.191773    2.472247
    105          6           0       -4.049209    3.485661    3.941461
    106          6           0       -4.547380    2.174180    4.709199
    107          6           0       -4.867924    1.276120    3.494246
    108          6           0       -2.621901    3.818062    4.375852
    109          6           0       -5.641362    2.367080    5.794862
    110          6           0       -6.940783    2.790494    5.148647
    111          7           0       -5.645620   -0.654709    1.366790
    112          6           0       -5.531558   -0.965090    2.739649
    113          6           0       -5.812522   -2.408171    2.884566
    114          6           0       -6.049852   -2.845405    1.572698
    115          6           0       -5.905731   -1.756190    0.671411
    116          6           0       -5.777947   -3.144208    4.102422
    117          6           0       -6.379091   -3.982933    0.744253
    118          8           0       -6.700473   -5.150784    0.960092
    119          6           0       -6.146583   -3.584507   -0.776801
    120          6           0       -7.352632   -4.023066   -1.561407
    121          8           0       -8.462965   -3.501093   -1.358132
    122          8           0       -6.956710   -4.825708   -2.566093
    123          6           0       -8.116617   -5.277853   -3.379721
    124          1           0       -3.692633    2.226135   -3.672239
    125          1           0       -3.998294    5.043668    1.893699
    126          1           0       -5.261748   -0.447486    4.665996
    127          1           0       -4.982790   -2.536012   -3.494276
    128          1           0       -4.580635    0.000013   -4.653566
    129          1           0       -2.785688   -1.837807   -3.123623
    130          1           0       -2.378076   -0.114567   -2.987157
    131          1           0       -2.404115   -0.830121   -4.570499
    132          1           0       -6.901642   -0.296439   -4.178478
    133          1           0       -7.554523   -1.756687   -3.349866
    134          1           0       -6.018826   -2.623302   -5.585513
    135          1           0       -6.724886   -1.127558   -6.084631
    136          1           0       -3.871351    4.251825   -4.224874
    137          1           0       -3.163721    5.633841   -3.457736
    138          1           0       -4.910745    5.674833   -3.793918
    139          1           0       -3.652297    7.433029   -2.233146
    140          1           0       -4.594174    8.566570   -1.104148
    141          1           0       -5.400218    7.361214   -2.148572
    142          1           0       -4.659393    4.326004    4.249030
    143          1           0       -3.726847    1.684601    5.254066
    144          1           0       -2.536122    4.799910    4.878525
    145          1           0       -1.982199    3.779978    3.504139
    146          1           0       -2.157680    3.086666    5.035211
    147          1           0       -5.358495    3.170979    6.478888
    148          1           0       -5.815621    1.480128    6.394830
    149          1           0       -6.816559    3.870985    5.029519
    150          1           0       -7.783959    2.559175    5.796407
    151          1           0       -7.041285    2.357762    4.146504
    152          1           0       -6.646509   -3.789262    4.101113
    153          1           0       -5.774047   -2.483116    4.966541
    154          1           0       -4.827497   -3.671512    3.984704
    155          1           0       -5.236740   -4.084539   -1.111034
    156          1           0       -8.090931   -6.371869   -3.392387
    157          1           0       -8.018942   -4.760412   -4.352583
    158          1           0       -9.108571   -5.094161   -2.983811
 ---------------------------------------------------------------------

 SCF Done:  E(RCAM-B3LYP) =  -4069.81196025     A.U. after   19 cycles

 Excitation energies and oscillator strengths:

 Excited State   1:      Singlet-A      1.6617 eV  746.15 nm  f=0.0976  <S**2>=0.000
     309 -> 315        0.11319
     310 -> 316        0.12720
     311 -> 313        0.45436
     312 -> 314        0.51496
 This state for optimization and/or second-order correction.
 Total Energy, E(TD-HF/TD-DFT) =  -4069.75089552
 Copying the excited state density for this state as the 1-particle RhoCI density.

 Excited State   2:      Singlet-A      1.6921 eV  732.71 nm  f=0.6120  <S**2>=0.000
     309 -> 315        0.13390
     310 -> 316       -0.11766
     311 -> 313        0.51355
     312 -> 314       -0.45325

 Excited State   3:      Singlet-A      2.1857 eV  567.26 nm  f=0.0481  <S**2>=0.000
     309 -> 313        0.25234
     310 -> 314        0.59160
     311 -> 315       -0.10592
     312 -> 316       -0.25027

 Excited State   4:      Singlet-A      2.1938 eV  565.14 nm  f=0.1413  <S**2>=0.000
     309 -> 313        0.58910
     310 -> 314       -0.25011
     311 -> 315       -0.25692
     312 -> 316        0.10968

 Excited State   5:      Singlet-A      2.4815 eV  499.64 nm  f=0.0000  <S**2>=0.000
     312 -> 313        0.70709

 The electronic state is 1-A.
 Alpha  occ. eigenvalues --  -46.87885 -46.87491 -19.26385 -19.26235 -19.19132
 Alpha  occ. eigenvalues --  -19.19037 -19.18871 -19.18540 -19.18283 -19.17891
 Alpha  occ. eigenvalues --  -14.42534 -14.42323 -14.41536 -14.41200 -14.39488
 Alpha  occ. eigenvalues --  -14.39175 -14.38683 -14.38433 -10.39189 -10.38964
 Alpha  occ. eigenvalues --  -10.35503 -10.35215 -10.34502 -10.34071 -10.31771
 Alpha  occ. eigenvalues --  -10.31659 -10.31498 -10.31132 -10.30985 -10.30839
 Alpha  occ. eigenvalues --  -10.30669 -10.30600 -10.30288 -10.30237 -10.30187
 Alpha  occ. eigenvalues --  -10.30012 -10.29981 -10.29755 -10.29725 -10.29340
 Alpha  occ. eigenvalues --  -10.29254 -10.29229 -10.28815 -10.28571 -10.28550
 Alpha  occ. eigenvalues --  -10.28525 -10.28453 -10.28225 -10.28187 -10.27948
 Alpha  occ. eigenvalues --  -10.27890 -10.27822 -10.27813 -10.27672 -10.27587
 Alpha  occ. eigenvalues --  -10.27556 -10.27521 -10.27491 -10.27474 -10.27426
 Alpha  occ. eigenvalues --  -10.27316 -10.27285 -10.27283 -10.27259 -10.27198
 Alpha  occ. eigenvalues --  -10.26900 -10.26757 -10.26543 -10.26453 -10.26301
 Alpha  occ. eigenvalues --  -10.26289 -10.26222 -10.26115 -10.26073 -10.25988
 Alpha  occ. eigenvalues --  -10.25795 -10.25781 -10.25712 -10.25490 -10.25336
 Alpha  occ. eigenvalues --  -10.24933 -10.24870 -10.24815 -10.24699 -10.24660
 Alpha  occ. eigenvalues --  -10.24530  -3.16628  -3.16240  -1.91509  -1.91123
 Alpha  occ. eigenvalues --   -1.91096  -1.90938  -1.90711  -1.90548  -1.16736
 Alpha  occ. eigenvalues --   -1.16526  -1.08744  -1.08503  -1.07269  -1.06821
 Alpha  occ. eigenvalues --   -1.06792  -1.06754  -1.04666  -1.04319  -1.03846
 Alpha  occ. eigenvalues --   -1.03495  -1.03325  -1.02876  -1.02501  -1.01945
 Alpha  occ. eigenvalues --   -0.92066  -0.91822  -0.89612  -0.89362  -0.89259
 Alpha  occ. eigenvalues --   -0.88974  -0.88372  -0.88102  -0.87981  -0.87755
 Alpha  occ. eigenvalues --   -0.87633  -0.87513  -0.87351  -0.86919  -0.85054
 Alpha  occ. eigenvalues --   -0.84832  -0.84028  -0.83770  -0.83036  -0.82760
 Alpha  occ. eigenvalues --   -0.82723  -0.82482  -0.81679  -0.81455  -0.80683
 Alpha  occ. eigenvalues --   -0.80286  -0.78885  -0.78448  -0.77305  -0.77013
 Alpha  occ. eigenvalues --   -0.76982  -0.76758  -0.76008  -0.75669  -0.74980
 Alpha  occ. eigenvalues --   -0.74681  -0.72869  -0.72535  -0.71754  -0.71425
 Alpha  occ. eigenvalues --   -0.70003  -0.69656  -0.68949  -0.68660  -0.67727
 Alpha  occ. eigenvalues --   -0.67442  -0.67283  -0.67035  -0.65365  -0.65109
 Alpha  occ. eigenvalues --   -0.64945  -0.64705  -0.64616  -0.64503  -0.64358
 Alpha  occ. eigenvalues --   -0.64076  -0.62393  -0.62144  -0.60521  -0.60166
 Alpha  occ. eigenvalues --   -0.59883  -0.59621  -0.59076  -0.58837  -0.58594
 Alpha  occ. eigenvalues --   -0.58270  -0.57687  -0.57407  -0.57397  -0.57090
 Alpha  occ. eigenvalues --   -0.56403  -0.56067  -0.56035  -0.55744  -0.55600
 Alpha  occ. eigenvalues --   -0.55433  -0.55285  -0.55129  -0.54620  -0.54373
 Alpha  occ. eigenvalues --   -0.53965  -0.53740  -0.53386  -0.53297  -0.53073
 Alpha  occ. eigenvalues --   -0.53006  -0.52977  -0.52825  -0.52748  -0.52541
 Alpha  occ. eigenvalues --   -0.52470  -0.52304  -0.52039  -0.51736  -0.51689
 Alpha  occ. eigenvalues --   -0.51486  -0.51291  -0.51053  -0.50640  -0.50279
 Alpha  occ. eigenvalues --   -0.50117  -0.49990  -0.49810  -0.49723  -0.49588
 Alpha  occ. eigenvalues --   -0.49313  -0.49307  -0.49175  -0.49026  -0.48940
 Alpha  occ. eigenvalues --   -0.48684  -0.48545  -0.48518  -0.48400  -0.48256
 Alpha  occ. eigenvalues --   -0.48161  -0.47775  -0.47428  -0.47377  -0.46947
 Alpha  occ. eigenvalues --   -0.46887  -0.46626  -0.46559  -0.46451  -0.46387
 Alpha  occ. eigenvalues --   -0.46258  -0.46108  -0.45950  -0.45926  -0.45683
 Alpha  occ. eigenvalues --   -0.45283  -0.45086  -0.44679  -0.44579  -0.44367
 Alpha  occ. eigenvalues --   -0.44309  -0.44235  -0.44165  -0.44102  -0.43968
 Alpha  occ. eigenvalues --   -0.43930  -0.43763  -0.43593  -0.43462  -0.43422
 Alpha  occ. eigenvalues --   -0.43230  -0.43117  -0.42797  -0.42794  -0.42756
 Alpha  occ. eigenvalues --   -0.42752  -0.42420  -0.42102  -0.41836  -0.41795
 Alpha  occ. eigenvalues --   -0.41604  -0.41514  -0.41306  -0.41220  -0.40945
 Alpha  occ. eigenvalues --   -0.40880  -0.40828  -0.40656  -0.40565  -0.40534
 Alpha  occ. eigenvalues --   -0.40367  -0.40289  -0.40070  -0.39538  -0.39328
 Alpha  occ. eigenvalues --   -0.38548  -0.38231  -0.37813  -0.37501  -0.37405
 Alpha  occ. eigenvalues --   -0.37339  -0.37129  -0.37029  -0.36812  -0.36651
 Alpha  occ. eigenvalues --   -0.36283  -0.36084  -0.34377  -0.34091  -0.33879
 Alpha  occ. eigenvalues --   -0.33729  -0.33278  -0.33008  -0.31401  -0.31120
 Alpha  occ. eigenvalues --   -0.31101  -0.30807  -0.30143  -0.29799  -0.29537
 Alpha  occ. eigenvalues --   -0.29422  -0.29142  -0.29038  -0.24169  -0.23867
 Alpha  occ. eigenvalues --   -0.21218  -0.20946
 Alpha virt. eigenvalues --   -0.08864  -0.08615  -0.01833  -0.01519  -0.00135
 Alpha virt. eigenvalues --    0.00156   0.02098   0.02364   0.03016   0.03383
 Alpha virt. eigenvalues --    0.04643   0.04898   0.04991   0.05296   0.06124

 Mulliken charges:
               1
     1  Mg   0.838725
     2  C   -0.002972
     3  C   -0.094078
     4  C   -0.045656
     5  C   -0.064276
     6  N   -0.256872
     7  C   -0.052395
     8  C   -0.014069
     9  C   -0.087034
    10  C    0.046542
    11  C    0.104763
    12  C    0.053455
    13  C   -0.072210
    14  H    0.037068
    15  N   -0.433237
    16  C    0.168625
    17  C   -0.177022
    18  C   -0.003709
    19  C    0.148911
    20  C    0.110158
    21  C    0.012594
    22  O   -0.248766
    23  C    0.062380
    24  N   -0.341124
    25  C    0.041285
    26  C   -0.028443
    27  C   -0.023883
    28  C    0.074685
    29  C    0.076021
    30  C    0.035183
    31  C   -0.004626
    32  N   -0.310238
    33  C    0.079961
    34  C   -0.170747
    35  C    0.008064
    36  C    0.082572
    37  C    0.127575
    38  C    0.045445
    39  O   -0.189182
    40  C   -0.005038
    41  C    0.212718
    42  O   -0.257659
    43  O   -0.304631
    44  C    0.157832
    45  H   -0.017329
    46  H   -0.016249
    47  H   -0.041998
    48  H    0.000946
    49  H   -0.003813
    50  H    0.025500
    51  H    0.016473
    52  H    0.016905
    53  H    0.011255
    54  H    0.044121
    55  H    0.017778
    56  H    0.018081
    57  H    0.006016
    58  H    0.027204
    59  H    0.039536
    60  H    0.037383
    61  H    0.036383
    62  H    0.031188
    63  H    0.017216
    64  H    0.009535
    65  H    0.023843
    66  H    0.012630
    67  H    0.004788
    68  H    0.007098
    69  H    0.003977
    70  H    0.010300
    71  H    0.016261
    72  H    0.028658
    73  H    0.046294
    74  H    0.008625
    75  H    0.046302
    76  H    0.035326
    77  H    0.042822
    78  H    0.047017
    79  H    0.053231
    80  Mg   0.837969
    81  C   -0.016695
    82  C   -0.086746
    83  C   -0.044982
    84  C   -0.065245
    85  N   -0.254512
    86  C   -0.049980
    87  C   -0.015075
    88  C   -0.090440
    89  C    0.045339
    90  C    0.113728
    91  C    0.062555
    92  C   -0.077642
    93  H    0.034296
    94  N   -0.423843
    95  C    0.162777
    96  C   -0.172376
    97  C   -0.007565
    98  C    0.152719
    99  C    0.098508
   100  C    0.016032
   101  O   -0.253853
   102  C    0.061001
   103  N   -0.349956
   104  C    0.037654
   105  C   -0.019793
   106  C   -0.034481
   107  C    0.088668
   108  C    0.073813
   109  C    0.034929
   110  C   -0.007547
   111  N   -0.323978
   112  C    0.078132
   113  C   -0.163479
   114  C    0.002257
   115  C    0.095908
   116  C    0.131432
   117  C    0.042264
   118  O   -0.188459
   119  C    0.000913
   120  C    0.211235
   121  O   -0.251177
   122  O   -0.305703
   123  C    0.152133
   124  H   -0.017348
   125  H   -0.015954
   126  H   -0.041395
   127  H   -0.001244
   128  H   -0.004219
   129  H    0.021655
   130  H    0.016883
   131  H    0.016667
   132  H    0.013969
   133  H    0.037404
   134  H    0.020420
   135  H    0.019787
   136  H    0.009711
   137  H    0.029082
   138  H    0.039163
   139  H    0.039651
   140  H    0.035681
   141  H    0.033568
   142  H    0.014046
   143  H    0.011244
   144  H    0.024260
   145  H    0.012938
   146  H    0.004069
   147  H    0.005409
   148  H    0.003178
   149  H    0.010759
   150  H    0.017541
   151  H    0.030607
   152  H    0.045574
   153  H    0.007705
   154  H    0.047152
   155  H    0.034907
   156  H    0.043531
   157  H    0.049429
   158  H    0.053434
 Sum of Mulliken charges =  -0.00000

 Dipole moment (field-independent basis, Debye):
    X=              4.6806    Y=              1.6921    Z=              0.8620  Tot=              5.0512
 Quadrupole moment (field-independent basis, Debye-Ang):
   XX=           -523.1102   YY=           -535.2060   ZZ=           -461.3088
   XY=            -17.2281   XZ=             48.4105   YZ=             29.6826

 Normal termination of Gaussian 16 at Sat Sep  4 01:52:08 2021.
