 Gaussian 16, Revision A.03,
 Gaussian 16:  ES64L-G16RevA.03 25-Dec-2016

 -----------------------------------
 #p cam-b3lyp/Def2SVP td=(nstates=5)
 -----------------------------------

 --------------------------------
 TDDFT excited states in gaussian
 --------------------------------
 Symbolic Z-matrix:
 Charge =  0 Multiplicity = 1

                         Standard orientation:
 ---------------------------------------------------------------------
 Center     Atomic      Atomic             Coordinates (Angstroms)
 Number     Number       Type             X           Y           Z
 ---------------------------------------------------------------------
      1         12           0       -5.186022   -0.783844    0.181366
      2          6           0       -5.388574    2.783529    0.393572
      3          6           0       -6.127071   -0.494141   -3.085676
      4          6           0       -5.455446   -3.942332    0.091990
      5          6           0       -5.377592   -0.854141    3.660449
      6          7           0       -5.666467    0.975888   -1.072891
      7          6           0       -5.648009    2.292159   -0.887791
      8          6           0       -5.855981    3.103750   -2.201352
      9          6           0       -6.624866    2.001524   -3.059205
     10          6           0       -6.081418    0.750942   -2.390899
     11          6           0       -8.139072    2.036238   -2.878993
     12          6           0       -4.499794    3.507965   -2.871500
     13          6           0       -4.604591    4.570653   -3.969255
     14          1           0       -3.532598    5.545185   -4.105146
     15          7           0       -5.235176   -2.022468   -1.356895
     16          6           0       -5.630187   -1.730504   -2.619436
     17          6           0       -5.484500   -2.982954   -3.391982
     18          6           0       -5.153519   -4.073256   -2.432928
     19          6           0       -5.295757   -3.385887   -1.174886
     20          6           0       -5.608746   -3.049020   -4.883273
     21          6           0       -4.780137   -5.509811   -2.620091
     22          8           0       -4.760291   -6.339669   -1.647715
     23          6           0       -4.520662   -5.946191   -4.004030
     24          7           0       -5.608394   -2.214882    1.641286
     25          6           0       -5.607290   -3.520067    1.348923
     26          6           0       -5.652987   -4.358124    2.592109
     27          6           0       -5.439686   -3.350668    3.812473
     28          6           0       -5.387205   -2.023376    3.016349
     29          6           0       -6.943358   -5.159823    2.811730
     30          6           0       -4.283114   -3.668810    4.793057
     31          6           0       -2.954296   -3.503925    4.090096
     32          7           0       -5.175655    0.683409    1.780774
     33          6           0       -5.288502    0.432469    3.155899
     34          6           0       -5.340777    1.742185    3.831163
     35          6           0       -5.270945    2.670097    2.793884
     36          6           0       -5.207218    1.983557    1.547732
     37          6           0       -5.498419    1.953187    5.229398
     38          6           0       -5.260173    4.081933    2.446808
     39          8           0       -5.199224    5.132069    3.087895
     40          6           0       -5.458747    4.212352    0.872201
     41          6           0       -4.422861    5.176571    0.361778
     42          8           0       -3.209169    4.888022    0.394270
     43          8           0       -5.031146    6.175360   -0.296214
     44          6           0       -4.057869    7.152034   -0.853883
     45          1           0       -6.641105   -0.543269   -4.047599
     46          1           0       -5.441604   -5.033986    0.115172
     47          1           0       -5.352135   -0.797535    4.750220
     48          1           0       -6.478447    3.992129   -2.092982
     49          1           0       -6.333847    2.027028   -4.109147
     50          1           0       -8.430628    2.729735   -2.090337
     51          1           0       -8.424175    1.017689   -2.614857
     52          1           0       -8.636918    2.250989   -3.824935
     53          1           0       -4.125668    2.669979   -3.459607
     54          1           0       -3.780671    3.835659   -2.119964
     55          1           0       -5.574018    5.069399   -3.949935
     56          1           0       -4.578210    4.067137   -4.935680
     57          1           0       -6.018909   -2.126493   -5.292241
     58          1           0       -6.362311   -3.803909   -5.106862
     59          1           0       -4.666753   -3.316816   -5.362091
     60          1           0       -5.409578   -5.769124   -4.609855
     61          1           0       -4.181118   -6.979048   -3.934987
     62          1           0       -3.731714   -5.324461   -4.428249
     63          1           0       -4.852932   -5.097265    2.595077
     64          1           0       -6.320946   -3.289892    4.451504
     65          1           0       -6.779661   -6.232469    2.918213
     66          1           0       -7.617308   -4.947525    1.982265
     67          1           0       -7.541288   -4.838993    3.664352
     68          1           0       -4.343056   -4.704122    5.126943
     69          1           0       -4.283299   -3.034013    5.679219
     70          1           0       -2.826426   -4.460058    3.583843
     71          1           0       -2.157971   -3.337049    4.816202
     72          1           0       -3.003549   -2.732310    3.321546
     73          1           0       -4.795323    2.740769    5.500208
     74          1           0       -5.306015    1.039828    5.791856
     75          1           0       -6.544336    2.256783    5.271142
     76          1           0       -6.472513    4.578650    0.713374
     77          1           0       -4.331561    8.134012   -0.467820
     78          1           0       -4.064882    7.013514   -1.935164
     79          1           0       -3.031546    7.068433   -0.494702
     80         12           0        5.402024   -0.768056   -0.037838
     81          6           0        5.033266    2.794495    0.188578
     82          6           0        4.311866   -0.526153   -3.260825
     83          6           0        5.284801   -3.937433   -0.131371
     84          6           0        5.352648   -0.855188    3.445786
     85          7           0        4.783691    0.965489   -1.264517
     86          6           0        4.743456    2.278050   -1.091548
     87          6           0        4.449888    3.088240   -2.382663
     88          6           0        3.692889    1.944213   -3.217535
     89          6           0        4.322794    0.712310   -2.570765
     90          6           0        2.195284    1.904414   -2.962685
     91          6           0        5.761405    3.555006   -3.106579
     92          6           0        5.553852    4.607554   -4.197825
     93          1           0        6.576994    5.633671   -4.378769
     94          7           0        5.351544   -2.006140   -1.588056
     95          6           0        4.897868   -1.736724   -2.830184
     96          6           0        5.057377   -2.982733   -3.595814
     97          6           0        5.488778   -4.056387   -2.659939
     98          6           0        5.369064   -3.364746   -1.392105
     99          6           0        4.883038   -3.050546   -5.085249
    100          6           0        5.923322   -5.475277   -2.870039
    101          8           0        6.025020   -6.299880   -1.894068
    102          6           0        6.136070   -5.896410   -4.262473
    103          7           0        5.117006   -2.212379    1.430168
    104          6           0        5.163448   -3.522132    1.129628
    105          6           0        5.207553   -4.367503    2.380151
    106          6           0        5.426041   -3.339900    3.585917
    107          6           0        5.379112   -2.012088    2.798455
    108          6           0        3.965960   -5.216048    2.653637
    109          6           0        6.637175   -3.601302    4.522671
    110          6           0        7.929262   -3.384295    3.768464
    111          7           0        5.412467    0.691850    1.554837
    112          6           0        5.362271    0.439755    2.943362
    113          6           0        5.274883    1.749671    3.620795
    114          6           0        5.256962    2.679312    2.570108
    115          6           0        5.307777    1.995969    1.325129
    116          6           0        5.175564    1.954576    5.025876
    117          6           0        5.195889    4.082827    2.230829
    118          8           0        5.225493    5.133284    2.870667
    119          6           0        4.920737    4.214126    0.670877
    120          6           0        5.886797    5.222590    0.112091
    121          8           0        7.108872    4.992091    0.107528
    122          8           0        5.197400    6.190848   -0.518438
    123          6           0        6.112687    7.209114   -1.099148
    124          1           0        3.766988   -0.590268   -4.203104
    125          1           0        5.352367   -5.027441   -0.103153
    126          1           0        5.432106   -0.792761    4.533201
    127          1           0        3.796867    3.941659   -2.244794
    128          1           0        3.946594    1.992364   -4.273317
    129          1           0        1.903476    2.577267   -2.170056
    130          1           0        1.969982    0.881077   -2.692393
    131          1           0        1.649706    2.098118   -3.890666
    132          1           0        6.148512    2.727473   -3.714926
    133          1           0        6.483493    3.908340   -2.396388
    134          1           0        4.557454    5.063123   -4.146921
    135          1           0        5.570817    4.107998   -5.169519
    136          1           0        4.404862   -2.143859   -5.475971
    137          1           0        4.159181   -3.847659   -5.286499
    138          1           0        5.814200   -3.278412   -5.608385
    139          1           0        5.216859   -5.756845   -4.826426
    140          1           0        6.528773   -6.913357   -4.203454
    141          1           0        6.886402   -5.239195   -4.715993
    142          1           0        6.041742   -5.057709    2.351123
    143          1           0        4.566750   -3.328649    4.272451
    144          1           0        4.187746   -6.295658    2.750237
    145          1           0        3.252965   -5.043987    1.858294
    146          1           0        3.398308   -4.932235    3.538182
    147          1           0        6.642131   -4.642746    4.853618
    148          1           0        6.636865   -2.980626    5.412475
    149          1           0        8.076383   -4.337370    3.251652
    150          1           0        8.745557   -3.179148    4.458109
    151          1           0        7.812472   -2.608667    3.002696
    152          1           0        5.843668    2.769892    5.269604
    153          1           0        5.430022    1.052384    5.578206
    154          1           0        4.114426    2.203161    5.112204
    155          1           0        3.883653    4.528031    0.546432
    156          1           0        5.804644    8.180370   -0.699819
    157          1           0        6.053435    7.073488   -2.195429
    158          1           0        7.153351    7.177217   -0.798410
 ---------------------------------------------------------------------

 SCF Done:  E(RCAM-B3LYP) =  -4069.81142019     A.U. after   19 cycles

 Excitation energies and oscillator strengths:

 Excited State   1:      Singlet-A      1.6567 eV  748.37 nm  f=0.0023  <S**2>=0.000
     309 -> 315       -0.11383
     310 -> 316        0.12509
     311 -> 313       -0.46047
     312 -> 314        0.51004
 This state for optimization and/or second-order correction.
 Total Energy, E(TD-HF/TD-DFT) =  -4069.75053665
 Copying the excited state density for this state as the 1-particle RhoCI density.

 Excited State   2:      Singlet-A      1.6969 eV  730.67 nm  f=0.7182  <S**2>=0.000
     309 -> 315        0.13373
     310 -> 316        0.11977
     311 -> 313        0.50811
     312 -> 314        0.45881

 Excited State   3:      Singlet-A      2.1827 eV  568.04 nm  f=0.0224  <S**2>=0.000
     309 -> 313       -0.27406
     310 -> 314        0.58290
     311 -> 315        0.11428
     312 -> 316       -0.24459

 Excited State   4:      Singlet-A      2.1946 eV  564.94 nm  f=0.1589  <S**2>=0.000
     309 -> 313        0.57912
     310 -> 314        0.27083
     311 -> 315       -0.25408
     312 -> 316       -0.11975

 Excited State   5:      Singlet-A      2.4799 eV  499.95 nm  f=0.0000  <S**2>=0.000
     312 -> 313        0.70709

 The electronic state is 1-A.
 Alpha  occ. eigenvalues --  -46.87887 -46.87483 -19.26355 -19.26150 -19.19094
 Alpha  occ. eigenvalues --  -19.18965 -19.18895 -19.18574 -19.18227 -19.17826
 Alpha  occ. eigenvalues --  -14.42547 -14.42320 -14.41536 -14.41185 -14.39493
 Alpha  occ. eigenvalues --  -14.39180 -14.38671 -14.38414 -10.39154 -10.38888
 Alpha  occ. eigenvalues --  -10.35530 -10.35255 -10.34449 -10.33999 -10.31746
 Alpha  occ. eigenvalues --  -10.31586 -10.31499 -10.31120 -10.31012 -10.30849
 Alpha  occ. eigenvalues --  -10.30657 -10.30588 -10.30296 -10.30216 -10.30176
 Alpha  occ. eigenvalues --  -10.29997 -10.29988 -10.29714 -10.29714 -10.29344
 Alpha  occ. eigenvalues --  -10.29274 -10.29226 -10.28877 -10.28729 -10.28542
 Alpha  occ. eigenvalues --  -10.28532 -10.28453 -10.28234 -10.28221 -10.27953
 Alpha  occ. eigenvalues --  -10.27873 -10.27823 -10.27819 -10.27672 -10.27603
 Alpha  occ. eigenvalues --  -10.27577 -10.27519 -10.27502 -10.27493 -10.27379
 Alpha  occ. eigenvalues --  -10.27370 -10.27299 -10.27298 -10.27231 -10.27227
 Alpha  occ. eigenvalues --  -10.26880 -10.26805 -10.26548 -10.26506 -10.26335
 Alpha  occ. eigenvalues --  -10.26317 -10.26261 -10.26104 -10.26019 -10.25890
 Alpha  occ. eigenvalues --  -10.25786 -10.25767 -10.25641 -10.25496 -10.25251
 Alpha  occ. eigenvalues --  -10.24910 -10.24870 -10.24772 -10.24681 -10.24616
 Alpha  occ. eigenvalues --  -10.24514  -3.16630  -3.16233  -1.91512  -1.91115
 Alpha  occ. eigenvalues --   -1.91098  -1.90940  -1.90704  -1.90541  -1.16705
 Alpha  occ. eigenvalues --   -1.16444  -1.08683  -1.08427  -1.07295  -1.06828
 Alpha  occ. eigenvalues --   -1.06747  -1.06715  -1.04677  -1.04315  -1.03849
 Alpha  occ. eigenvalues --   -1.03487  -1.03319  -1.02864  -1.02497  -1.01932
 Alpha  occ. eigenvalues --   -0.92056  -0.91789  -0.89601  -0.89333  -0.89309
 Alpha  occ. eigenvalues --   -0.88970  -0.88367  -0.88066  -0.87943  -0.87774
 Alpha  occ. eigenvalues --   -0.87602  -0.87515  -0.87369  -0.86978  -0.85098
 Alpha  occ. eigenvalues --   -0.84830  -0.84013  -0.83724  -0.83058  -0.82802
 Alpha  occ. eigenvalues --   -0.82751  -0.82488  -0.81667  -0.81413  -0.80684
 Alpha  occ. eigenvalues --   -0.80269  -0.78887  -0.78476  -0.77315  -0.77035
 Alpha  occ. eigenvalues --   -0.76981  -0.76728  -0.76016  -0.75653  -0.74976
 Alpha  occ. eigenvalues --   -0.74641  -0.72858  -0.72522  -0.71759  -0.71401
 Alpha  occ. eigenvalues --   -0.69987  -0.69616  -0.68981  -0.68659  -0.67727
 Alpha  occ. eigenvalues --   -0.67430  -0.67346  -0.67052  -0.65397  -0.65094
 Alpha  occ. eigenvalues --   -0.64939  -0.64713  -0.64596  -0.64480  -0.64351
 Alpha  occ. eigenvalues --   -0.64045  -0.62374  -0.62095  -0.60531  -0.60188
 Alpha  occ. eigenvalues --   -0.59912  -0.59615  -0.59073  -0.58817  -0.58587
 Alpha  occ. eigenvalues --   -0.58246  -0.57659  -0.57389  -0.57343  -0.57067
 Alpha  occ. eigenvalues --   -0.56394  -0.56065  -0.56033  -0.55710  -0.55608
 Alpha  occ. eigenvalues --   -0.55414  -0.55290  -0.55080  -0.54599  -0.54320
 Alpha  occ. eigenvalues --   -0.54015  -0.53737  -0.53385  -0.53324  -0.53066
 Alpha  occ. eigenvalues --   -0.53001  -0.52974  -0.52861  -0.52732  -0.52529
 Alpha  occ. eigenvalues --   -0.52518  -0.52263  -0.51977  -0.51730  -0.51682
 Alpha  occ. eigenvalues --   -0.51498  -0.51278  -0.51020  -0.50676  -0.50354
 Alpha  occ. eigenvalues --   -0.50119  -0.50014  -0.49820  -0.49717  -0.49615
 Alpha  occ. eigenvalues --   -0.49328  -0.49300  -0.49196  -0.49022  -0.48910
 Alpha  occ. eigenvalues --   -0.48675  -0.48541  -0.48521  -0.48376  -0.48218
 Alpha  occ. eigenvalues --   -0.48180  -0.47790  -0.47434  -0.47385  -0.46967
 Alpha  occ. eigenvalues --   -0.46888  -0.46672  -0.46545  -0.46443  -0.46390
 Alpha  occ. eigenvalues --   -0.46238  -0.46109  -0.45908  -0.45896  -0.45631
 Alpha  occ. eigenvalues --   -0.45279  -0.45047  -0.44656  -0.44608  -0.44334
 Alpha  occ. eigenvalues --   -0.44310  -0.44231  -0.44196  -0.44101  -0.43947
 Alpha  occ. eigenvalues --   -0.43926  -0.43772  -0.43572  -0.43485  -0.43376
 Alpha  occ. eigenvalues --   -0.43211  -0.43111  -0.42775  -0.42750  -0.42732
 Alpha  occ. eigenvalues --   -0.42711  -0.42405  -0.42101  -0.41809  -0.41787
 Alpha  occ. eigenvalues --   -0.41649  -0.41476  -0.41297  -0.41231  -0.40979
 Alpha  occ. eigenvalues --   -0.40922  -0.40810  -0.40655  -0.40580  -0.40543
 Alpha  occ. eigenvalues --   -0.40382  -0.40333  -0.40078  -0.39524  -0.39288
 Alpha  occ. eigenvalues --   -0.38558  -0.38197  -0.37884  -0.37502  -0.37407
 Alpha  occ. eigenvalues --   -0.37376  -0.37105  -0.37028  -0.36789  -0.36587
 Alpha  occ. eigenvalues --   -0.36277  -0.36048  -0.34373  -0.34074  -0.33847
 Alpha  occ. eigenvalues --   -0.33668  -0.33272  -0.32999  -0.31424  -0.31132
 Alpha  occ. eigenvalues --   -0.31123  -0.30794  -0.30087  -0.29727  -0.29535
 Alpha  occ. eigenvalues --   -0.29399  -0.29161  -0.29018  -0.24169  -0.23854
 Alpha  occ. eigenvalues --   -0.21216  -0.20942
 Alpha virt. eigenvalues --   -0.08860  -0.08615  -0.01838  -0.01513  -0.00146
 Alpha virt. eigenvalues --    0.00135   0.02130   0.02408   0.03006   0.03389
 Alpha virt. eigenvalues --    0.04607   0.04901   0.05023   0.05367   0.06031

 Mulliken charges:
               1
     1  Mg   0.838450
     2  C   -0.003201
     3  C   -0.094844
     4  C   -0.045602
     5  C   -0.063820
     6  N   -0.256696
     7  C   -0.052730
     8  C   -0.013840
     9  C   -0.086886
    10  C    0.046002
    11  C    0.104794
    12  C    0.053775
    13  C   -0.071408
    14  H    0.034989
    15  N   -0.433123
    16  C    0.168155
    17  C   -0.177644
    18  C   -0.004006
    19  C    0.148650
    20  C    0.110284
    21  C    0.012433
    22  O   -0.249118
    23  C    0.062595
    24  N   -0.341115
    25  C    0.041139
    26  C   -0.028240
    27  C   -0.024031
    28  C    0.074901
    29  C    0.076080
    30  C    0.035083
    31  C   -0.004488
    32  N   -0.310577
    33  C    0.080553
    34  C   -0.169301
    35  C    0.008715
    36  C    0.083036
    37  C    0.127176
    38  C    0.046534
    39  O   -0.187410
    40  C   -0.005490
    41  C    0.213229
    42  O   -0.257313
    43  O   -0.304796
    44  C    0.157382
    45  H   -0.017763
    46  H   -0.016573
    47  H   -0.041206
    48  H    0.001283
    49  H   -0.004632
    50  H    0.025715
    51  H    0.016669
    52  H    0.016632
    53  H    0.009962
    54  H    0.043736
    55  H    0.018653
    56  H    0.017333
    57  H    0.005534
    58  H    0.027067
    59  H    0.038434
    60  H    0.037294
    61  H    0.036099
    62  H    0.030592
    63  H    0.016752
    64  H    0.009681
    65  H    0.023429
    66  H    0.012578
    67  H    0.004882
    68  H    0.006502
    69  H    0.004827
    70  H    0.009006
    71  H    0.017504
    72  H    0.029156
    73  H    0.048355
    74  H    0.009164
    75  H    0.046219
    76  H    0.035308
    77  H    0.043677
    78  H    0.045669
    79  H    0.054184
    80  Mg   0.837959
    81  C   -0.016289
    82  C   -0.087985
    83  C   -0.045525
    84  C   -0.064936
    85  N   -0.254545
    86  C   -0.048844
    87  C   -0.015196
    88  C   -0.090826
    89  C    0.046052
    90  C    0.114013
    91  C    0.062627
    92  C   -0.077417
    93  H    0.034257
    94  N   -0.423393
    95  C    0.162813
    96  C   -0.175264
    97  C   -0.008054
    98  C    0.151911
    99  C    0.099744
   100  C    0.015338
   101  O   -0.253386
   102  C    0.061359
   103  N   -0.349975
   104  C    0.037390
   105  C   -0.019738
   106  C   -0.034771
   107  C    0.089154
   108  C    0.073757
   109  C    0.034794
   110  C   -0.007588
   111  N   -0.324368
   112  C    0.078982
   113  C   -0.162669
   114  C    0.003301
   115  C    0.096099
   116  C    0.131146
   117  C    0.043610
   118  O   -0.186893
   119  C    0.000267
   120  C    0.210926
   121  O   -0.251685
   122  O   -0.304940
   123  C    0.152265
   124  H   -0.020907
   125  H   -0.015841
   126  H   -0.040667
   127  H    0.000584
   128  H   -0.005593
   129  H    0.027178
   130  H    0.013938
   131  H    0.014091
   132  H    0.013478
   133  H    0.037634
   134  H    0.020725
   135  H    0.018846
   136  H    0.007904
   137  H    0.024984
   138  H    0.039225
   139  H    0.037685
   140  H    0.036022
   141  H    0.033610
   142  H    0.014045
   143  H    0.012122
   144  H    0.024803
   145  H    0.012349
   146  H    0.005070
   147  H    0.005873
   148  H    0.003484
   149  H    0.010782
   150  H    0.017638
   151  H    0.030302
   152  H    0.045838
   153  H    0.007817
   154  H    0.048839
   155  H    0.038711
   156  H    0.043924
   157  H    0.048862
   158  H    0.053169
 Sum of Mulliken charges =  -0.00000

 Dipole moment (field-independent basis, Debye):
    X=             -4.3805    Y=             -2.2910    Z=             -7.2217  Tot=              8.7516
 Quadrupole moment (field-independent basis, Debye-Ang):
   XX=           -518.5795   YY=           -552.0978   ZZ=           -448.0427
   XY=             -5.9497   XZ=              4.8852   YZ=            -47.8278

 Normal termination of Gaussian 16 at Fri Sep 10 23:05:10 2021.
