 Gaussian 16, Revision A.03,
 Gaussian 16:  ES64L-G16RevA.03 25-Dec-2016

 -----------------------------------
 #p cam-b3lyp/Def2SVP td=(nstates=5)
 -----------------------------------

 --------------------------------
 TDDFT excited states in gaussian
 --------------------------------
 Symbolic Z-matrix:
 Charge =  0 Multiplicity = 1

                         Standard orientation:
 ---------------------------------------------------------------------
 Center     Atomic      Atomic             Coordinates (Angstroms)
 Number     Number       Type             X           Y           Z
 ---------------------------------------------------------------------
      1         12           0        4.234815   -1.325881    0.201446
      2          6           0        5.110828    1.405164   -1.940098
      3          6           0        5.800830    0.348117    2.728972
      4          6           0        3.872709   -3.915960    1.995042
      5          6           0        3.763468   -3.237099   -2.674444
      6          7           0        5.283509    0.622736    0.262921
      7          6           0        5.497402    1.600223   -0.612259
      8          6           0        6.103496    2.883448    0.030671
      9          6           0        6.778686    2.225868    1.316636
     10          6           0        5.880223    1.011095    1.468342
     11          6           0        8.208976    1.752315    1.078898
     12          6           0        5.004157    3.924494    0.429930
     13          6           0        5.521920    5.327549    0.759643
     14          1           0        4.712602    6.478078    0.387306
     15          7           0        4.315603   -1.547555    2.162869
     16          6           0        4.987283   -0.762984    3.039557
     17          6           0        4.736692   -1.340047    4.377796
     18          6           0        4.021359   -2.632658    4.189251
     19          6           0        4.065027   -2.764870    2.755378
     20          6           0        5.117806   -0.654551    5.653961
     21          6           0        3.406651   -3.601035    5.149726
     22          8           0        3.040729   -4.773057    4.793298
     23          6           0        3.324104   -3.168254    6.556470
     24          7           0        4.082987   -3.357731   -0.252613
     25          6           0        3.872292   -4.265372    0.706959
     26          6           0        3.517832   -5.602029    0.125889
     27          6           0        3.291085   -5.359023   -1.435933
     28          6           0        3.655380   -3.855048   -1.496087
     29          6           0        4.556667   -6.714545    0.323732
     30          6           0        1.933562   -5.813378   -2.028478
     31          6           0        0.818274   -4.956976   -1.471875
     32          7           0        4.226227   -0.960771   -1.938102
     33          6           0        4.030580   -1.907335   -2.954179
     34          6           0        4.220817   -1.208196   -4.238345
     35          6           0        4.532243    0.101226   -3.877412
     36          6           0        4.562070    0.206777   -2.457460
     37          6           0        4.157269   -1.803859   -5.528919
     38          6           0        4.870939    1.429927   -4.360832
     39          8           0        4.906155    1.966609   -5.469086
     40          6           0        5.378583    2.298030   -3.126117
     41          6           0        4.670965    3.624494   -3.181612
     42          8           0        3.439269    3.700765   -2.995941
     43          8           0        5.579050    4.612059   -3.206850
     44          6           0        4.942880    5.956225   -3.232531
     45          1           0        6.462703    0.667979    3.536161
     46          1           0        3.634700   -4.810327    2.574610
     47          1           0        3.549495   -3.748892   -3.614517
     48          1           0        6.861639    3.380522   -0.574772
     49          1           0        6.697479    2.869024    2.192694
     50          1           0        8.484047    1.827996    0.026981
     51          1           0        8.228857    0.711829    1.403686
     52          1           0        8.905612    2.282453    1.728843
     53          1           0        4.583513    3.649898    1.397255
     54          1           0        4.240045    3.995053   -0.344978
     55          1           0        6.551548    5.460925    0.426496
     56          1           0        5.573053    5.426663    1.843969
     57          1           0        5.774010    0.195527    5.471453
     58          1           0        5.731455   -1.354676    6.220501
     59          1           0        4.245915   -0.369802    6.243076
     60          1           0        4.326593   -2.950385    6.925384
     61          1           0        2.776221   -3.950817    7.080178
     62          1           0        2.768967   -2.231045    6.605563
     63          1           0        2.598473   -5.987757    0.564546
     64          1           0        4.033220   -5.878435   -2.042663
     65          1           0        4.162993   -7.596226    0.830057
     66          1           0        5.400726   -6.294238    0.869806
     67          1           0        5.039398   -7.057122   -0.591160
     68          1           0        1.720619   -6.842886   -1.742619
     69          1           0        1.898536   -5.757284   -3.116540
     70          1           0        0.595556   -5.436291   -0.519254
     71          1           0       -0.047881   -4.982957   -2.133927
     72          1           0        1.163144   -3.945762   -1.255090
     73          1           0        3.590061   -1.115273   -6.155092
     74          1           0        3.684079   -2.784744   -5.489441
     75          1           0        5.216935   -1.861131   -5.777283
     76          1           0        6.456961    2.404239   -3.239878
     77          1           0        5.333241    6.479463   -4.105500
     78          1           0        5.121008    6.402104   -2.253824
     79          1           0        3.872565    5.979064   -3.440482
     80         12           0       -4.387962    1.206271    0.744049
     81          6           0       -5.115119   -1.525821   -1.466384
     82          6           0       -3.155661    2.873987   -1.964229
     83          6           0       -3.326456    3.442680    2.728773
     84          6           0       -4.603982   -1.055803    3.386395
     85          7           0       -4.213467    0.642096   -1.387510
     86          6           0       -4.579755   -0.397515   -2.121936
     87          6           0       -4.434318   -0.186635   -3.652932
     88          6           0       -3.304917    0.954812   -3.632232
     89          6           0       -3.591469    1.557296   -2.258342
     90          6           0       -1.889744    0.401134   -3.625238
     91          6           0       -5.760536    0.329430   -4.313855
     92          6           0       -5.785533    0.262768   -5.842483
     93          1           0       -7.048782   -0.049951   -6.504965
     94          7           0       -3.843312    3.081970    0.392315
     95          6           0       -3.388872    3.592787   -0.771224
     96          6           0       -3.106663    5.011753   -0.504676
     97          6           0       -3.275424    5.257759    0.953303
     98          6           0       -3.472307    3.902842    1.428188
     99          6           0       -2.797156    5.998239   -1.593017
    100          6           0       -3.249501    6.504603    1.784500
    101          8           0       -3.182009    6.459827    3.063672
    102          6           0       -3.211183    7.779406    1.053124
    103          7           0       -3.809202    1.160312    2.740358
    104          6           0       -3.439066    2.284239    3.378896
    105          6           0       -3.333408    2.056061    4.867914
    106          6           0       -3.946729    0.601519    5.124245
    107          6           0       -4.231535    0.186066    3.664218
    108          6           0       -1.922840    2.123635    5.452821
    109          6           0       -5.098696    0.496138    6.160841
    110          6           0       -6.329670    1.200833    5.637852
    111          7           0       -4.964004   -0.863032    0.976875
    112          6           0       -4.956454   -1.621734    2.167834
    113          6           0       -5.318942   -3.006868    1.803953
    114          6           0       -5.491141   -2.962615    0.412239
    115          6           0       -5.233081   -1.647602   -0.060674
    116          6           0       -5.401924   -4.108266    2.701828
    117          6           0       -5.822172   -3.731749   -0.765710
    118          8           0       -6.215687   -4.879105   -0.971752
    119          6           0       -5.470121   -2.864933   -2.050649
    120          6           0       -6.642490   -2.930616   -2.990724
    121          8           0       -7.735996   -2.430532   -2.673270
    122          8           0       -6.222327   -3.376692   -4.188580
    123          6           0       -7.347485   -3.448653   -5.158457
    124          1           0       -2.540186    3.393151   -2.699453
    125          1           0       -3.069012    4.201512    3.471317
    126          1           0       -4.788306   -1.798186    4.165870
    127          1           0       -4.078326   -1.052075   -4.198890
    128          1           0       -3.472998    1.690989   -4.413993
    129          1           0       -1.877939   -0.673108   -3.515672
    130          1           0       -1.393614    0.872423   -2.786914
    131          1           0       -1.351428    0.731133   -4.518351
    132          1           0       -5.832273    1.415462   -4.171958
    133          1           0       -6.611307   -0.188459   -3.915611
    134          1           0       -4.977446   -0.362595   -6.241061
    135          1           0       -5.572575    1.259343   -6.236818
    136          1           0       -2.579476    5.494254   -2.542762
    137          1           0       -1.854975    6.487281   -1.322843
    138          1           0       -3.571734    6.760113   -1.703698
    139          1           0       -2.331581    7.802890    0.414216
    140          1           0       -3.287274    8.556485    1.816161
    141          1           0       -4.082656    7.829080    0.390797
    142          1           0       -3.919269    2.785607    5.413473
    143          1           0       -3.189662   -0.098054    5.508051
    144          1           0       -1.820842    2.872373    6.260946
    145          1           0       -1.229856    2.334680    4.649225
    146          1           0       -1.540634    1.183368    5.846539
    147          1           0       -4.821235    1.003242    7.088209
    148          1           0       -5.356721   -0.525903    6.417432
    149          1           0       -6.143400    2.247509    5.896436
    150          1           0       -7.224295    0.825680    6.130744
    151          1           0       -6.385672    1.136223    4.544993
    152          1           0       -6.299999   -4.653483    2.443596
    153          1           0       -5.421532   -3.776137    3.737713
    154          1           0       -4.473646   -4.630814    2.455814
    155          1           0       -4.566671   -3.286623   -2.492834
    156          1           0       -7.376352   -4.474436   -5.538759
    157          1           0       -7.159903   -2.643862   -5.893887
    158          1           0       -8.352808   -3.339173   -4.768837
 ---------------------------------------------------------------------

 SCF Done:  E(RCAM-B3LYP) =  -4069.81263325     A.U. after   19 cycles

 Excitation energies and oscillator strengths:

 Excited State   1:      Singlet-A      1.6656 eV  744.37 nm  f=0.2574  <S**2>=0.000
     309 -> 315        0.10902
     310 -> 316        0.13112
     311 -> 313        0.43437
     312 -> 314        0.53122
 This state for optimization and/or second-order correction.
 Total Energy, E(TD-HF/TD-DFT) =  -4069.75142243
 Copying the excited state density for this state as the 1-particle RhoCI density.

 Excited State   2:      Singlet-A      1.6824 eV  736.94 nm  f=0.4151  <S**2>=0.000
     309 -> 315        0.13619
     310 -> 316       -0.11069
     311 -> 313        0.53043
     312 -> 314       -0.43400

 Excited State   3:      Singlet-A      2.1855 eV  567.31 nm  f=0.0946  <S**2>=0.000
     310 -> 314        0.63808
     312 -> 316       -0.26933

 Excited State   4:      Singlet-A      2.1923 eV  565.55 nm  f=0.1014  <S**2>=0.000
     309 -> 313        0.63656
     311 -> 315       -0.27531

 Excited State   5:      Singlet-A      2.3362 eV  530.72 nm  f=0.0000  <S**2>=0.000
     312 -> 313        0.70707

 The electronic state is 1-A.
 Alpha  occ. eigenvalues --  -46.87925 -46.87430 -19.26566 -19.26191 -19.19323
 Alpha  occ. eigenvalues --  -19.18991 -19.18938 -19.18547 -19.18373 -19.17856
 Alpha  occ. eigenvalues --  -14.42577 -14.42238 -14.41566 -14.41145 -14.39530
 Alpha  occ. eigenvalues --  -14.39118 -14.38732 -14.38374 -10.39366 -10.38919
 Alpha  occ. eigenvalues --  -10.35570 -10.35226 -10.34594 -10.34034 -10.31980
 Alpha  occ. eigenvalues --  -10.31613 -10.31547 -10.31039 -10.31020 -10.30757
 Alpha  occ. eigenvalues --  -10.30717 -10.30645 -10.30304 -10.30193 -10.30112
 Alpha  occ. eigenvalues --  -10.30042 -10.29929 -10.29776 -10.29716 -10.29379
 Alpha  occ. eigenvalues --  -10.29194 -10.29183 -10.28880 -10.28664 -10.28510
 Alpha  occ. eigenvalues --  -10.28407 -10.28394 -10.28239 -10.28166 -10.27943
 Alpha  occ. eigenvalues --  -10.27852 -10.27764 -10.27742 -10.27724 -10.27594
 Alpha  occ. eigenvalues --  -10.27555 -10.27548 -10.27508 -10.27399 -10.27362
 Alpha  occ. eigenvalues --  -10.27356 -10.27285 -10.27253 -10.27243 -10.27141
 Alpha  occ. eigenvalues --  -10.26860 -10.26836 -10.26535 -10.26421 -10.26347
 Alpha  occ. eigenvalues --  -10.26265 -10.26191 -10.26138 -10.26043 -10.26032
 Alpha  occ. eigenvalues --  -10.25716 -10.25642 -10.25481 -10.25450 -10.25401
 Alpha  occ. eigenvalues --  -10.24994 -10.24908 -10.24677 -10.24644 -10.24633
 Alpha  occ. eigenvalues --  -10.24489  -3.16667  -3.16180  -1.91549  -1.91135
 Alpha  occ. eigenvalues --   -1.91062  -1.90978  -1.90651  -1.90488  -1.16916
 Alpha  occ. eigenvalues --   -1.16481  -1.08842  -1.08470  -1.07337  -1.06938
 Alpha  occ. eigenvalues --   -1.06804  -1.06776  -1.04713  -1.04236  -1.03881
 Alpha  occ. eigenvalues --   -1.03432  -1.03368  -1.02823  -1.02542  -1.01887
 Alpha  occ. eigenvalues --   -0.92132  -0.91762  -0.89613  -0.89319  -0.89314
 Alpha  occ. eigenvalues --   -0.88812  -0.88369  -0.88074  -0.88031  -0.87798
 Alpha  occ. eigenvalues --   -0.87568  -0.87425  -0.87403  -0.86888  -0.85112
 Alpha  occ. eigenvalues --   -0.84716  -0.84021  -0.83750  -0.83078  -0.82786
 Alpha  occ. eigenvalues --   -0.82748  -0.82395  -0.81779  -0.81395  -0.80753
 Alpha  occ. eigenvalues --   -0.80228  -0.78933  -0.78395  -0.77336  -0.77076
 Alpha  occ. eigenvalues --   -0.76911  -0.76661  -0.76078  -0.75555  -0.74997
 Alpha  occ. eigenvalues --   -0.74653  -0.72908  -0.72466  -0.71799  -0.71346
 Alpha  occ. eigenvalues --   -0.69961  -0.69622  -0.69006  -0.68558  -0.67784
 Alpha  occ. eigenvalues --   -0.67390  -0.67350  -0.66956  -0.65426  -0.65009
 Alpha  occ. eigenvalues --   -0.65006  -0.64755  -0.64550  -0.64426  -0.64364
 Alpha  occ. eigenvalues --   -0.64031  -0.62500  -0.62093  -0.60561  -0.60135
 Alpha  occ. eigenvalues --   -0.59937  -0.59499  -0.59122  -0.58774  -0.58648
 Alpha  occ. eigenvalues --   -0.58215  -0.57793  -0.57437  -0.57358  -0.57056
 Alpha  occ. eigenvalues --   -0.56465  -0.56188  -0.55969  -0.55683  -0.55664
 Alpha  occ. eigenvalues --   -0.55472  -0.55237  -0.55096  -0.54677  -0.54338
 Alpha  occ. eigenvalues --   -0.54027  -0.53596  -0.53433  -0.53369  -0.53088
 Alpha  occ. eigenvalues --   -0.53022  -0.52916  -0.52885  -0.52668  -0.52491
 Alpha  occ. eigenvalues --   -0.52414  -0.52269  -0.52093  -0.51761  -0.51672
 Alpha  occ. eigenvalues --   -0.51394  -0.51342  -0.50990  -0.50688  -0.50253
 Alpha  occ. eigenvalues --   -0.50112  -0.50037  -0.49774  -0.49657  -0.49652
 Alpha  occ. eigenvalues --   -0.49376  -0.49239  -0.49239  -0.48955  -0.48810
 Alpha  occ. eigenvalues --   -0.48766  -0.48599  -0.48562  -0.48314  -0.48230
 Alpha  occ. eigenvalues --   -0.48131  -0.47823  -0.47427  -0.47356  -0.46917
 Alpha  occ. eigenvalues --   -0.46899  -0.46693  -0.46499  -0.46484  -0.46304
 Alpha  occ. eigenvalues --   -0.46267  -0.46054  -0.46006  -0.45912  -0.45613
 Alpha  occ. eigenvalues --   -0.45291  -0.45069  -0.44754  -0.44621  -0.44314
 Alpha  occ. eigenvalues --   -0.44280  -0.44209  -0.44205  -0.44169  -0.43899
 Alpha  occ. eigenvalues --   -0.43850  -0.43715  -0.43688  -0.43500  -0.43361
 Alpha  occ. eigenvalues --   -0.43166  -0.43147  -0.42939  -0.42751  -0.42737
 Alpha  occ. eigenvalues --   -0.42694  -0.42383  -0.42114  -0.41846  -0.41776
 Alpha  occ. eigenvalues --   -0.41657  -0.41456  -0.41266  -0.41208  -0.40982
 Alpha  occ. eigenvalues --   -0.40940  -0.40736  -0.40656  -0.40519  -0.40462
 Alpha  occ. eigenvalues --   -0.40357  -0.40282  -0.39967  -0.39482  -0.39295
 Alpha  occ. eigenvalues --   -0.38551  -0.38190  -0.37881  -0.37417  -0.37406
 Alpha  occ. eigenvalues --   -0.37396  -0.37072  -0.36942  -0.36931  -0.36608
 Alpha  occ. eigenvalues --   -0.36341  -0.36030  -0.34423  -0.34047  -0.34026
 Alpha  occ. eigenvalues --   -0.33681  -0.33330  -0.32944  -0.31466  -0.31170
 Alpha  occ. eigenvalues --   -0.31107  -0.30744  -0.30235  -0.29764  -0.29591
 Alpha  occ. eigenvalues --   -0.29477  -0.29102  -0.28988  -0.24214  -0.23801
 Alpha  occ. eigenvalues --   -0.21259  -0.20881
 Alpha virt. eigenvalues --   -0.08912  -0.08559  -0.01872  -0.01465  -0.00195
 Alpha virt. eigenvalues --    0.00203   0.02033   0.02398   0.02843   0.03497
 Alpha virt. eigenvalues --    0.04592   0.04831   0.05005   0.05343   0.06038

 Mulliken charges:
               1
     1  Mg   0.839048
     2  C   -0.003552
     3  C   -0.093808
     4  C   -0.045540
     5  C   -0.064074
     6  N   -0.256946
     7  C   -0.052327
     8  C   -0.014196
     9  C   -0.087136
    10  C    0.046660
    11  C    0.104714
    12  C    0.053366
    13  C   -0.071733
    14  H    0.035283
    15  N   -0.433263
    16  C    0.168834
    17  C   -0.176933
    18  C   -0.003788
    19  C    0.149111
    20  C    0.110108
    21  C    0.012276
    22  O   -0.248932
    23  C    0.062534
    24  N   -0.341270
    25  C    0.041617
    26  C   -0.028413
    27  C   -0.024083
    28  C    0.075039
    29  C    0.076026
    30  C    0.034974
    31  C   -0.004698
    32  N   -0.310089
    33  C    0.079840
    34  C   -0.171020
    35  C    0.007627
    36  C    0.082224
    37  C    0.127697
    38  C    0.044629
    39  O   -0.189783
    40  C   -0.004877
    41  C    0.213071
    42  O   -0.259755
    43  O   -0.303989
    44  C    0.158364
    45  H   -0.017209
    46  H   -0.016228
    47  H   -0.041455
    48  H    0.000750
    49  H   -0.003498
    50  H    0.025435
    51  H    0.016615
    52  H    0.017049
    53  H    0.012411
    54  H    0.042839
    55  H    0.017870
    56  H    0.019091
    57  H    0.006358
    58  H    0.027210
    59  H    0.039700
    60  H    0.037764
    61  H    0.035811
    62  H    0.030799
    63  H    0.017427
    64  H    0.009600
    65  H    0.023930
    66  H    0.012335
    67  H    0.005022
    68  H    0.007871
    69  H    0.004312
    70  H    0.010312
    71  H    0.018972
    72  H    0.027522
    73  H    0.045626
    74  H    0.009322
    75  H    0.046462
    76  H    0.035588
    77  H    0.043151
    78  H    0.047265
    79  H    0.051096
    80  Mg   0.837493
    81  C   -0.016782
    82  C   -0.086061
    83  C   -0.046113
    84  C   -0.064911
    85  N   -0.254732
    86  C   -0.049688
    87  C   -0.015169
    88  C   -0.090132
    89  C    0.044365
    90  C    0.113218
    91  C    0.062469
    92  C   -0.077560
    93  H    0.033528
    94  N   -0.423786
    95  C    0.162138
    96  C   -0.171963
    97  C   -0.008766
    98  C    0.152982
    99  C    0.098969
   100  C    0.015261
   101  O   -0.254580
   102  C    0.061352
   103  N   -0.350099
   104  C    0.037514
   105  C   -0.019544
   106  C   -0.034748
   107  C    0.088590
   108  C    0.074451
   109  C    0.034966
   110  C   -0.007523
   111  N   -0.323965
   112  C    0.077899
   113  C   -0.163371
   114  C    0.001961
   115  C    0.095955
   116  C    0.131634
   117  C    0.041821
   118  O   -0.189151
   119  C    0.001207
   120  C    0.211317
   121  O   -0.251107
   122  O   -0.305829
   123  C    0.152162
   124  H   -0.013146
   125  H   -0.016933
   126  H   -0.040976
   127  H   -0.001460
   128  H   -0.003623
   129  H    0.019508
   130  H    0.019229
   131  H    0.021802
   132  H    0.013836
   133  H    0.036840
   134  H    0.020952
   135  H    0.020275
   136  H    0.011717
   137  H    0.027540
   138  H    0.038556
   139  H    0.038391
   140  H    0.035197
   141  H    0.033999
   142  H    0.013901
   143  H    0.011732
   144  H    0.023640
   145  H    0.011429
   146  H    0.003457
   147  H    0.005028
   148  H    0.003651
   149  H    0.010466
   150  H    0.017575
   151  H    0.030761
   152  H    0.045245
   153  H    0.008113
   154  H    0.047259
   155  H    0.034020
   156  H    0.043146
   157  H    0.049882
   158  H    0.053357
 Sum of Mulliken charges =  -0.00000

 Dipole moment (field-independent basis, Debye):
    X=              5.4433    Y=              3.1306    Z=              1.5447  Tot=              6.4666
 Quadrupole moment (field-independent basis, Debye-Ang):
   XX=           -520.9047   YY=           -512.2355   ZZ=           -486.7200
   XY=             -9.9328   XZ=             30.8965   YZ=              5.8366

 Normal termination of Gaussian 16 at Thu Sep  9 12:59:42 2021.
