 Gaussian 16, Revision A.03,
 Gaussian 16:  ES64L-G16RevA.03 25-Dec-2016

 -----------------------------------
 #p cam-b3lyp/Def2SVP td=(nstates=5)
 -----------------------------------

 --------------------------------
 TDDFT excited states in gaussian
 --------------------------------
 Symbolic Z-matrix:
 Charge =  0 Multiplicity = 1

                         Standard orientation:
 ---------------------------------------------------------------------
 Center     Atomic      Atomic             Coordinates (Angstroms)
 Number     Number       Type             X           Y           Z
 ---------------------------------------------------------------------
      1         12           0        7.836648   -0.613475    0.454875
      2          6           0        8.244715    2.108430   -1.833559
      3          6           0        8.869988    1.502650    2.924143
      4          6           0        7.920879   -3.109572    2.409108
      5          6           0        7.941600   -2.749416   -2.296925
      6          7           0        8.449757    1.513454    0.424597
      7          6           0        8.504798    2.460028   -0.507143
      8          6           0        8.791323    3.878710    0.069588
      9          6           0        9.513713    3.457422    1.427037
     10          6           0        8.881657    2.090891    1.624579
     11          6           0       11.022649    3.284938    1.286101
     12          6           0        7.477597    4.684614    0.345945
     13          6           0        7.670912    6.182725    0.598223
     14          1           0        6.661922    7.110909    0.110616
     15          7           0        7.848753   -0.695430    2.428700
     16          6           0        8.290009    0.264751    3.276421
     17          6           0        8.088788   -0.271397    4.639776
     18          6           0        7.671386   -1.695292    4.511743
     19          6           0        7.824301   -1.900593    3.094053
     20          6           0        8.244055    0.554323    5.879868
     21          6           0        7.218236   -2.712968    5.510303
     22          8           0        7.126423   -3.955096    5.221752
     23          6           0        6.966132   -2.224368    6.878059
     24          7           0        8.139109   -2.654651    0.139038
     25          6           0        8.067731   -3.527380    1.150094
     26          6           0        8.034456   -4.941072    0.649787
     27          6           0        7.852368   -4.845432   -0.933705
     28          6           0        7.897254   -3.304740   -1.083782
     29          6           0        9.269625   -5.793877    0.970866
     30          6           0        6.656198   -5.612145   -1.551563
     31          6           0        5.356408   -4.980332   -1.106081
     32          7           0        7.875328   -0.386923   -1.703417
     33          6           0        7.940669   -1.412386   -2.657791
     34          6           0        8.054349   -0.766750   -3.978510
     35          6           0        8.063995    0.598098   -3.697543
     36          6           0        7.989200    0.792165   -2.288630
     37          6           0        8.191163   -1.438298   -5.225401
     38          6           0        8.144911    1.937124   -4.258185
     39          8           0        8.131055    2.401899   -5.398924
     40          6           0        8.387939    2.965339   -3.066741
     41          6           0        7.423208    4.105633   -3.246558
     42          8           0        6.194149    3.929661   -3.120802
     43          8           0        8.104837    5.260142   -3.301624
     44          6           0        7.204439    6.434649   -3.449852
     45          1           0        9.402767    2.003330    3.734950
     46          1           0        7.841970   -3.997841    3.039338
     47          1           0        7.893835   -3.350161   -3.207022
     48          1           0        9.462499    4.488330   -0.535649
     49          1           0        9.249561    4.119817    2.251160
     50          1           0       11.336014    3.354337    0.244512
     51          1           0       11.240717    2.293676    1.684020
     52          1           0       11.554498    3.988708    1.926898
     53          1           0        7.068555    4.385245    1.310892
     54          1           0        6.761580    4.544970   -0.464700
     55          1           0        8.667407    6.511486    0.301872
     56          1           0        7.637611    6.354997    1.674055
     57          1           0        8.717580    1.511871    5.666750
     58          1           0        8.956731    0.035518    6.520682
     59          1           0        7.299434    0.682162    6.408717
     60          1           0        7.878007   -1.777036    7.274201
     61          1           0        6.564577   -3.072698    7.431178
     62          1           0        6.225554   -1.425135    6.836594
     63          1           0        7.192249   -5.486266    1.073907
     64          1           0        8.720359   -5.230753   -1.469237
     65          1           0        9.040324   -6.707189    1.520400
     66          1           0        9.974329   -5.172143    1.522347
     67          1           0        9.865199   -6.080179    0.104413
     68          1           0        6.646927   -6.644445   -1.203400
     69          1           0        6.673013   -5.629833   -2.641359
     70          1           0        5.184206   -5.438245   -0.132688
     71          1           0        4.554436   -5.229061   -1.801916
     72          1           0        5.469315   -3.907859   -0.946270
     73          1           0        7.529673   -0.924450   -5.922797
     74          1           0        7.931875   -2.493126   -5.137586
     75          1           0        9.251925   -1.284055   -5.422502
     76          1           0        9.425054    3.291048   -3.140414
     77          1           0        7.526531    6.975745   -4.339630
     78          1           0        7.228755    6.965801   -2.498174
     79          1           0        6.166781    6.217313   -3.705530
     80         12           0       -7.986499    0.561398    0.444429
     81          6           0       -7.795018   -1.821913   -2.231811
     82          6           0       -8.520426   -2.069055    2.549231
     83          6           0       -8.607221    2.656515    2.744992
     84          6           0       -8.577363    3.010050   -1.964038
     85          7           0       -8.118310   -1.617243    0.086084
     86          6           0       -7.968150   -2.412277   -0.962578
     87          6           0       -7.925340   -3.925956   -0.621248
     88          6           0       -8.724466   -3.881208    0.770969
     89          6           0       -8.410993   -2.445393    1.186690
     90          6           0      -10.229348   -4.012828    0.605581
     91          6           0       -6.460535   -4.453468   -0.426058
     92          6           0       -6.324402   -5.977397   -0.396596
     93          1           0       -5.131145   -6.581071   -0.983279
     94          7           0       -8.003929    0.336134    2.416104
     95          6           0       -8.213447   -0.806634    3.102737
     96          6           0       -8.146527   -0.439078    4.525617
     97          6           0       -8.044385    1.042398    4.623104
     98          6           0       -8.239775    1.411973    3.235540
     99          6           0       -8.101665   -1.457218    5.627797
    100          6           0       -7.822065    1.973287    5.776450
    101          8           0       -8.006455    3.236961    5.667048
    102          6           0       -7.472670    1.352120    7.062367
    103          7           0       -8.724251    2.504970    0.419984
    104          6           0       -8.848561    3.211589    1.557154
    105          6           0       -9.134128    4.665836    1.267277
    106          6           0       -8.935261    4.836533   -0.310347
    107          6           0       -8.643429    3.367907   -0.688997
    108          6           0      -10.525170    5.161997    1.661253
    109          6           0       -7.939833    5.932664   -0.779688
    110          6           0       -6.530413    5.552197   -0.387045
    111          7           0       -7.978080    0.653993   -1.714138
    112          6           0       -8.279046    1.773083   -2.521080
    113          6           0       -8.251785    1.316815   -3.925893
    114          6           0       -7.957158   -0.052041   -3.836875
    115          6           0       -7.831035   -0.426998   -2.471960
    116          6           0       -8.528062    2.121157   -5.067306
    117          6           0       -7.734665   -1.267313   -4.586753
    118          8           0       -7.630290   -1.544406   -5.780933
    119          6           0       -7.744644   -2.493866   -3.575892
    120          6           0       -6.552615   -3.358390   -3.882753
    121          8           0       -5.398650   -2.929527   -3.706512
    122          8           0       -6.969841   -4.614499   -4.124560
    123          6           0       -5.822373   -5.512232   -4.423240
    124          1           0       -8.919103   -2.795657    3.257747
    125          1           0       -8.724710    3.442760    3.494330
    126          1           0       -8.654608    3.733784   -2.778234
    127          1           0       -8.442538   -4.565447   -1.326454
    128          1           0       -8.309121   -4.584969    1.487597
    129          1           0      -10.523478   -3.996083   -0.433339
    130          1           0      -10.658059   -3.171255    1.133771
    131          1           0      -10.588525   -4.907539    1.122136
    132          1           0       -6.126891   -4.215315    0.592130
    133          1           0       -5.806416   -4.046609   -1.172527
    134          1           0       -7.228452   -6.479141   -0.762505
    135          1           0       -6.242534   -6.298409    0.644682
    136          1           0       -8.359521   -2.458484    5.261227
    137          1           0       -8.907617   -1.207864    6.326460
    138          1           0       -7.152156   -1.452364    6.167309
    139          1           0       -8.260138    0.662035    7.355851
    140          1           0       -7.265928    2.181846    7.741099
    141          1           0       -6.564581    0.754127    6.926749
    142          1           0       -8.430046    5.308219    1.781768
    143          1           0       -9.875086    5.109668   -0.812305
    144          1           0      -10.501008    6.022627    2.356091
    145          1           0      -11.071198    4.336180    2.097616
    146          1           0      -11.166006    5.448723    0.829199
    147          1           0       -8.156295    6.879960   -0.279750
    148          1           0       -7.973150    6.117476   -1.848207
    149          1           0       -6.465189    5.886357    0.652753
    150          1           0       -5.805693    6.068147   -1.013638
    151          1           0       -6.400659    4.463725   -0.392240
    152          1           0       -7.779909    1.876041   -5.809383
    153          1           0       -8.512043    3.180660   -4.820372
    154          1           0       -9.534593    1.772090   -5.312887
    155          1           0       -8.685025   -3.027791   -3.717922
    156          1           0       -6.023637   -5.975808   -5.393948
    157          1           0       -5.736108   -6.187084   -3.550953
    158          1           0       -4.858911   -5.050566   -4.605037
 ---------------------------------------------------------------------

 SCF Done:  E(RCAM-B3LYP) =  -4069.81160907     A.U. after   19 cycles

 Excitation energies and oscillator strengths:

 Excited State   1:      Singlet-A      1.6699 eV  742.48 nm  f=0.0176  <S**2>=0.000
     309 -> 315        0.10444
     310 -> 316       -0.13710
     311 -> 313        0.54698
     312 -> 314        0.41460
 This state for optimization and/or second-order correction.
 Total Energy, E(TD-HF/TD-DFT) =  -4069.75024296
 Copying the excited state density for this state as the 1-particle RhoCI density.

 Excited State   2:      Singlet-A      1.6851 eV  735.77 nm  f=0.7400  <S**2>=0.000
     309 -> 315        0.14086
     310 -> 316        0.10624
     311 -> 313       -0.41409
     312 -> 314        0.54616

 Excited State   3:      Singlet-A      2.1854 eV  567.34 nm  f=0.0597  <S**2>=0.000
     309 -> 314        0.13949
     310 -> 313        0.62740
     311 -> 316        0.26615

 Excited State   4:      Singlet-A      2.1923 eV  565.54 nm  f=0.1342  <S**2>=0.000
     309 -> 314        0.62550
     310 -> 313       -0.13856
     312 -> 315       -0.27160

 Excited State   5:      Singlet-A      2.8013 eV  442.59 nm  f=0.0000  <S**2>=0.000
     312 -> 313        0.70710

 The electronic state is 1-A.
 Alpha  occ. eigenvalues --  -46.87696 -46.87594 -19.26269 -19.26163 -19.19073
 Alpha  occ. eigenvalues --  -19.18893 -19.18742 -19.18669 -19.18059 -19.17977
 Alpha  occ. eigenvalues --  -14.42433 -14.42351 -14.41352 -14.41295 -14.39305
 Alpha  occ. eigenvalues --  -14.39288 -14.38531 -14.38483 -10.39006 -10.38955
 Alpha  occ. eigenvalues --  -10.35377 -10.35348 -10.34278 -10.34154 -10.31679
 Alpha  occ. eigenvalues --  -10.31559 -10.31301 -10.31241 -10.30962 -10.30813
 Alpha  occ. eigenvalues --  -10.30466 -10.30408 -10.30332 -10.30292 -10.30116
 Alpha  occ. eigenvalues --  -10.30082 -10.29829 -10.29822 -10.29532 -10.29376
 Alpha  occ. eigenvalues --  -10.29337 -10.29160 -10.28655 -10.28649 -10.28588
 Alpha  occ. eigenvalues --  -10.28434 -10.28340 -10.28265 -10.28079 -10.28020
 Alpha  occ. eigenvalues --  -10.27935 -10.27693 -10.27629 -10.27606 -10.27490
 Alpha  occ. eigenvalues --  -10.27459 -10.27418 -10.27417 -10.27412 -10.27405
 Alpha  occ. eigenvalues --  -10.27401 -10.27365 -10.27321 -10.27303 -10.27048
 Alpha  occ. eigenvalues --  -10.26978 -10.26622 -10.26597 -10.26386 -10.26357
 Alpha  occ. eigenvalues --  -10.26145 -10.26088 -10.26071 -10.25972 -10.25920
 Alpha  occ. eigenvalues --  -10.25869 -10.25772 -10.25726 -10.25364 -10.25353
 Alpha  occ. eigenvalues --  -10.24805 -10.24730 -10.24693 -10.24652 -10.24628
 Alpha  occ. eigenvalues --  -10.24577  -3.16438  -3.16344  -1.91320  -1.91226
 Alpha  occ. eigenvalues --   -1.90906  -1.90815  -1.90749  -1.90652  -1.16562
 Alpha  occ. eigenvalues --   -1.16511  -1.08582  -1.08514  -1.07145  -1.06922
 Alpha  occ. eigenvalues --   -1.06859  -1.06516  -1.04481  -1.04431  -1.03663
 Alpha  occ. eigenvalues --   -1.03599  -1.03134  -1.02974  -1.02312  -1.02046
 Alpha  occ. eigenvalues --   -0.91919  -0.91869  -0.89430  -0.89423  -0.89089
 Alpha  occ. eigenvalues --   -0.89088  -0.88194  -0.88159  -0.87764  -0.87723
 Alpha  occ. eigenvalues --   -0.87620  -0.87575  -0.87188  -0.87066  -0.84937
 Alpha  occ. eigenvalues --   -0.84884  -0.83841  -0.83813  -0.82890  -0.82883
 Alpha  occ. eigenvalues --   -0.82593  -0.82553  -0.81526  -0.81478  -0.80496
 Alpha  occ. eigenvalues --   -0.80377  -0.78704  -0.78575  -0.77121  -0.77081
 Alpha  occ. eigenvalues --   -0.76833  -0.76833  -0.75822  -0.75774  -0.74806
 Alpha  occ. eigenvalues --   -0.74743  -0.72674  -0.72634  -0.71576  -0.71519
 Alpha  occ. eigenvalues --   -0.69811  -0.69693  -0.68776  -0.68765  -0.67545
 Alpha  occ. eigenvalues --   -0.67538  -0.67139  -0.67124  -0.65206  -0.65185
 Alpha  occ. eigenvalues --   -0.64752  -0.64704  -0.64587  -0.64520  -0.64173
 Alpha  occ. eigenvalues --   -0.64140  -0.62206  -0.62188  -0.60354  -0.60283
 Alpha  occ. eigenvalues --   -0.59733  -0.59705  -0.58928  -0.58888  -0.58404
 Alpha  occ. eigenvalues --   -0.58360  -0.57481  -0.57474  -0.57212  -0.57174
 Alpha  occ. eigenvalues --   -0.56211  -0.56140  -0.55868  -0.55816  -0.55430
 Alpha  occ. eigenvalues --   -0.55392  -0.55239  -0.55181  -0.54419  -0.54418
 Alpha  occ. eigenvalues --   -0.53849  -0.53795  -0.53206  -0.53167  -0.53127
 Alpha  occ. eigenvalues --   -0.53079  -0.52834  -0.52811  -0.52671  -0.52618
 Alpha  occ. eigenvalues --   -0.52339  -0.52333  -0.51810  -0.51804  -0.51597
 Alpha  occ. eigenvalues --   -0.51520  -0.51133  -0.51092  -0.50497  -0.50427
 Alpha  occ. eigenvalues --   -0.49940  -0.49922  -0.49833  -0.49809  -0.49431
 Alpha  occ. eigenvalues --   -0.49422  -0.49138  -0.49115  -0.49040  -0.48997
 Alpha  occ. eigenvalues --   -0.48491  -0.48489  -0.48377  -0.48351  -0.48316
 Alpha  occ. eigenvalues --   -0.48285  -0.47601  -0.47534  -0.47205  -0.47060
 Alpha  occ. eigenvalues --   -0.46698  -0.46644  -0.46492  -0.46457  -0.46260
 Alpha  occ. eigenvalues --   -0.46206  -0.46061  -0.46019  -0.45751  -0.45713
 Alpha  occ. eigenvalues --   -0.45149  -0.45111  -0.44473  -0.44448  -0.44417
 Alpha  occ. eigenvalues --   -0.44413  -0.44065  -0.44049  -0.44014  -0.43993
 Alpha  occ. eigenvalues --   -0.43921  -0.43881  -0.43482  -0.43387  -0.43322
 Alpha  occ. eigenvalues --   -0.43290  -0.42928  -0.42860  -0.42830  -0.42594
 Alpha  occ. eigenvalues --   -0.42547  -0.42491  -0.41908  -0.41897  -0.41604
 Alpha  occ. eigenvalues --   -0.41602  -0.41435  -0.41395  -0.41046  -0.40928
 Alpha  occ. eigenvalues --   -0.40774  -0.40742  -0.40669  -0.40638  -0.40476
 Alpha  occ. eigenvalues --   -0.40430  -0.40165  -0.40134  -0.39359  -0.39344
 Alpha  occ. eigenvalues --   -0.38376  -0.38290  -0.37646  -0.37588  -0.37225
 Alpha  occ. eigenvalues --   -0.37203  -0.37162  -0.37134  -0.36693  -0.36600
 Alpha  occ. eigenvalues --   -0.36150  -0.36087  -0.34187  -0.34185  -0.33778
 Alpha  occ. eigenvalues --   -0.33648  -0.33110  -0.33085  -0.31272  -0.31228
 Alpha  occ. eigenvalues --   -0.30938  -0.30909  -0.29917  -0.29881  -0.29354
 Alpha  occ. eigenvalues --   -0.29266  -0.29218  -0.29143  -0.23980  -0.23971
 Alpha  occ. eigenvalues --   -0.21053  -0.21029
 Alpha virt. eigenvalues --   -0.08728  -0.08677  -0.01654  -0.01622   0.00028
 Alpha virt. eigenvalues --    0.00031   0.02276   0.02304   0.03243   0.03309
 Alpha virt. eigenvalues --    0.04793   0.04817   0.05219   0.05247   0.06247

 Mulliken charges:
               1
     1  Mg   0.839126
     2  C   -0.002810
     3  C   -0.094146
     4  C   -0.045948
     5  C   -0.063889
     6  N   -0.256755
     7  C   -0.052379
     8  C   -0.014023
     9  C   -0.087004
    10  C    0.046333
    11  C    0.104861
    12  C    0.053457
    13  C   -0.071793
    14  H    0.036290
    15  N   -0.433061
    16  C    0.168378
    17  C   -0.177283
    18  C   -0.004197
    19  C    0.148680
    20  C    0.110233
    21  C    0.012122
    22  O   -0.250007
    23  C    0.062553
    24  N   -0.341181
    25  C    0.041234
    26  C   -0.028062
    27  C   -0.024023
    28  C    0.074996
    29  C    0.076273
    30  C    0.035126
    31  C   -0.004481
    32  N   -0.310587
    33  C    0.080700
    34  C   -0.169292
    35  C    0.008486
    36  C    0.083295
    37  C    0.127199
    38  C    0.046435
    39  O   -0.188131
    40  C   -0.005465
    41  C    0.212855
    42  O   -0.256559
    43  O   -0.304958
    44  C    0.157630
    45  H   -0.017804
    46  H   -0.017165
    47  H   -0.041379
    48  H    0.000883
    49  H   -0.004099
    50  H    0.025420
    51  H    0.016340
    52  H    0.016488
    53  H    0.011272
    54  H    0.044440
    55  H    0.017710
    56  H    0.017847
    57  H    0.005838
    58  H    0.026536
    59  H    0.039352
    60  H    0.037298
    61  H    0.035135
    62  H    0.031448
    63  H    0.016327
    64  H    0.009328
    65  H    0.022866
    66  H    0.012465
    67  H    0.004636
    68  H    0.005935
    69  H    0.004913
    70  H    0.008301
    71  H    0.018680
    72  H    0.029417
    73  H    0.048152
    74  H    0.009241
    75  H    0.045821
    76  H    0.034998
    77  H    0.042854
    78  H    0.046250
    79  H    0.054030
    80  Mg   0.838166
    81  C   -0.016683
    82  C   -0.087786
    83  C   -0.045576
    84  C   -0.064866
    85  N   -0.254546
    86  C   -0.049783
    87  C   -0.015115
    88  C   -0.090518
    89  C    0.045764
    90  C    0.114416
    91  C    0.062520
    92  C   -0.077847
    93  H    0.034943
    94  N   -0.423435
    95  C    0.162897
    96  C   -0.174730
    97  C   -0.007941
    98  C    0.152120
    99  C    0.099415
   100  C    0.015432
   101  O   -0.253437
   102  C    0.061264
   103  N   -0.350086
   104  C    0.037509
   105  C   -0.019756
   106  C   -0.034846
   107  C    0.089036
   108  C    0.073743
   109  C    0.034720
   110  C   -0.007676
   111  N   -0.324216
   112  C    0.078700
   113  C   -0.162804
   114  C    0.002339
   115  C    0.096472
   116  C    0.131402
   117  C    0.042680
   118  O   -0.187603
   119  C    0.000808
   120  C    0.211240
   121  O   -0.250490
   122  O   -0.305778
   123  C    0.151997
   124  H   -0.019825
   125  H   -0.015793
   126  H   -0.040346
   127  H   -0.000719
   128  H   -0.004362
   129  H    0.022401
   130  H    0.014334
   131  H    0.016138
   132  H    0.014032
   133  H    0.037962
   134  H    0.020621
   135  H    0.019551
   136  H    0.008737
   137  H    0.025904
   138  H    0.039653
   139  H    0.038195
   140  H    0.036014
   141  H    0.033840
   142  H    0.014287
   143  H    0.012305
   144  H    0.024912
   145  H    0.011540
   146  H    0.005573
   147  H    0.006008
   148  H    0.003798
   149  H    0.010632
   150  H    0.018375
   151  H    0.030398
   152  H    0.046508
   153  H    0.008628
   154  H    0.046767
   155  H    0.034869
   156  H    0.043805
   157  H    0.049310
   158  H    0.053879
 Sum of Mulliken charges =  -0.00000

 Dipole moment (field-independent basis, Debye):
    X=              0.3907    Y=             -0.9928    Z=              7.2283  Tot=              7.3066
 Quadrupole moment (field-independent basis, Debye-Ang):
   XX=           -457.4683   YY=           -460.3183   ZZ=           -539.2305
   XY=             28.4201   XZ=             10.3383   YZ=              6.6413

 Normal termination of Gaussian 16 at Sat Sep 11 22:54:45 2021.
