 Gaussian 16, Revision A.03,
 Gaussian 16:  ES64L-G16RevA.03 25-Dec-2016

 -----------------------------------
 #p cam-b3lyp/Def2SVP td=(nstates=5)
 -----------------------------------

 --------------------------------
 TDDFT excited states in gaussian
 --------------------------------
 Symbolic Z-matrix:
 Charge =  0 Multiplicity = 1

                         Standard orientation:
 ---------------------------------------------------------------------
 Center     Atomic      Atomic             Coordinates (Angstroms)
 Number     Number       Type             X           Y           Z
 ---------------------------------------------------------------------
      1         12           0        6.327357   -0.937811    0.121142
      2          6           0        6.694074    2.064356   -1.793206
      3          6           0        7.235716    0.877119    2.864128
      4          6           0        6.452279   -3.658652    1.745347
      5          6           0        6.563185   -2.701927   -2.875180
      6          7           0        6.869742    1.193266    0.376045
      7          6           0        6.913424    2.251972   -0.426703
      8          6           0        7.139909    3.593727    0.332094
      9          6           0        7.846288    3.025162    1.643490
     10          6           0        7.255992    1.626080    1.650177
     11          6           0        9.362840    2.917829    1.520801
     12          6           0        5.794358    4.317711    0.674249
     13          6           0        5.932106    5.776688    1.118958
     14          1           0        4.903565    6.728382    0.726872
     15          7           0        6.299316   -1.269946    2.068383
     16          6           0        6.689807   -0.412555    3.041873
     17          6           0        6.477007   -1.123735    4.320787
     18          6           0        6.110178   -2.531740    4.002900
     19          6           0        6.300604   -2.550182    2.575043
     20          6           0        6.577696   -0.458262    5.658979
     21          6           0        5.669621   -3.681507    4.852650
     22          8           0        5.625551   -4.879008    4.406980
     23          6           0        5.371726   -3.378851    6.264281
     24          7           0        6.704475   -2.912068   -0.442530
     25          6           0        6.640285   -3.908155    0.447792
     26          6           0        6.665023   -5.247017   -0.228061
     27          6           0        6.514282   -4.956152   -1.790888
     28          6           0        6.511037   -3.408243   -1.743603
     29          6           0        7.920668   -6.095928    0.014257
     30          6           0        5.358034   -5.673875   -2.531417
     31          6           0        4.028538   -5.143591   -2.043220
     32          7           0        6.405328   -0.437303   -1.989417
     33          6           0        6.525526   -1.330485   -3.063871
     34          6           0        6.646279   -0.518839   -4.288908
     35          6           0        6.604321    0.798802   -3.837348
     36          6           0        6.492518    0.809592   -2.417603
     37          6           0        6.832448   -1.021749   -5.606807
     38          6           0        6.652716    2.200133   -4.221779
     39          8           0        6.648153    2.805698   -5.294515
     40          6           0        6.835403    3.075212   -2.903944
     41          6           0        5.837333    4.199355   -2.962837
     42          8           0        4.612381    3.971641   -2.892078
     43          8           0        6.481136    5.371604   -2.853791
     44          6           0        5.545520    6.527594   -2.875371
     45          1           0        7.733775    1.286432    3.745231
     46          1           0        6.389354   -4.621897    2.255872
     47          1           0        6.555247   -3.183106   -3.854902
     48          1           0        7.803377    4.295487   -0.173641
     49          1           0        7.542368    3.568952    2.537719
     50          1           0        9.696265    3.128713    0.504790
     51          1           0        9.605134    1.891047    1.795582
     52          1           0        9.856893    3.550098    2.258990
     53          1           0        5.374662    3.885690    1.582696
     54          1           0        5.101168    4.260757   -0.165733
     55          1           0        6.923289    6.170544    0.892371
     56          1           0        5.869724    5.809525    2.206722
     57          1           0        7.023558    0.532532    5.581011
     58          1           0        7.293183   -1.032579    6.247151
     59          1           0        5.618076   -0.427467    6.175229
     60          1           0        6.259365   -2.958156    6.737211
     61          1           0        4.986754   -4.302464    6.695078
     62          1           0        4.605995   -2.603655    6.305204
     63          1           0        5.832445   -5.867034    0.101816
     64          1           0        7.406060   -5.243687   -2.348319
     65          1           0        7.710057   -7.078287    0.437716
     66          1           0        8.592112   -5.528382    0.657953
     67          1           0        8.544130   -6.251428   -0.865817
     68          1           0        5.375617   -6.741899   -2.317027
     69          1           0        5.399093   -5.552180   -3.613893
     70          1           0        3.850596   -5.726690   -1.140356
     71          1           0        3.250604   -5.325911   -2.785372
     72          1           0        4.102138   -4.097259   -1.746135
     73          1           0        6.169500   -0.443592   -6.250394
     74          1           0        6.606618   -2.086543   -5.659880
     75          1           0        7.891510   -0.811595   -5.755400
     76          1           0        7.862440    3.438929   -2.909057
     77          1           0        5.868646    7.187060   -3.680932
     78          1           0        5.531444    6.933776   -1.863826
     79          1           0        4.521481    6.313226   -3.183153
     80         12           0       -6.889107   -0.352296   -0.112048
     81          6           0       -4.426645    1.944004    1.129850
     82          6           0       -9.247814    1.980218    0.681978
     83          6           0       -9.111051   -2.517681   -0.776514
     84          6           0       -4.517325   -2.878993    0.256911
     85          7           0       -6.733417    1.663711    0.784458
     86          6           0       -5.740436    2.456427    1.158533
     87          6           0       -6.171984    3.905155    1.511387
     88          6           0       -7.707210    3.615089    1.882593
     89          6           0       -7.929809    2.361148    1.039521
     90          6           0       -7.914816    3.251526    3.343434
     91          6           0       -6.051181    4.879665    0.287554
     92          6           0       -6.159217    6.365867    0.635801
     93          1           0       -5.351392    7.318532   -0.120703
     94          7           0       -8.819352   -0.129526   -0.515888
     95          6           0       -9.618129    0.889294   -0.134792
     96          6           0      -10.953263    0.574189   -0.666092
     97          6           0      -10.914583   -0.793787   -1.250782
     98          6           0       -9.590090   -1.217419   -0.842928
     99          6           0      -12.084800    1.560596   -0.660678
    100          6           0      -11.910327   -1.593742   -2.034854
    101          8           0      -11.755447   -2.849917   -2.236990
    102          6           0      -13.118191   -0.883004   -2.479170
    103          7           0       -6.898271   -2.430149   -0.042830
    104          6           0       -7.977307   -3.130162   -0.434741
    105          6           0       -7.657723   -4.600787   -0.559360
    106          6           0       -6.069949   -4.710187   -0.402575
    107          6           0       -5.741633   -3.229101   -0.112756
    108          6           0       -8.333883   -5.517194    0.460147
    109          6           0       -5.298021   -5.428962   -1.542823
    110          6           0       -5.370833   -4.609975   -2.811421
    111          7           0       -4.789745   -0.453896    0.388374
    112          6           0       -3.997672   -1.616389    0.512200
    113          6           0       -2.664141   -1.186728    0.980711
    114          6           0       -2.780760    0.204485    1.120120
    115          6           0       -4.100196    0.610630    0.783016
    116          6           0       -1.565370   -2.046012    1.264367
    117          6           0       -2.090801    1.420536    1.485997
    118          8           0       -0.929763    1.707235    1.775002
    119          6           0       -3.162271    2.585693    1.630056
    120          6           0       -2.644882    3.786955    0.887222
    121          8           0       -2.509477    3.755819   -0.348628
    122          8           0       -2.602227    4.838637    1.725382
    123          6           0       -2.105819    6.056954    1.031770
    124          1           0      -10.082241    2.544233    1.099711
    125          1           0       -9.806998   -3.293822   -1.103235
    126          1           0       -3.694015   -3.595080    0.302234
    127          1           0       -5.659029    4.337477    2.362126
    128          1           0       -8.354103    4.420896    1.545614
    129          1           0       -6.977394    3.132479    3.866132
    130          1           0       -8.466593    2.320620    3.339349
    131          1           0       -8.566270    3.985898    3.825756
    132          1           0       -6.940401    4.770138   -0.346506
    133          1           0       -5.142692    4.700518   -0.253906
    134          1           0       -6.056830    6.545325    1.712960
    135          1           0       -7.171785    6.704161    0.402801
    136          1           0      -11.864670    2.421739   -0.017731
    137          1           0      -12.934929    1.069344   -0.175070
    138          1           0      -12.381011    1.867350   -1.666079
    139          1           0      -13.640503   -0.482512   -1.613571
    140          1           0      -13.665412   -1.595954   -3.098949
    141          1           0      -12.814664   -0.024473   -3.088600
    142          1           0       -7.941282   -4.976855   -1.534689
    143          1           0       -5.787410   -5.276548    0.497009
    144          1           0       -8.937884   -6.318329   -0.006167
    145          1           0       -8.947078   -4.909073    1.111842
    146          1           0       -7.659488   -6.002252    1.163788
    147          1           0       -5.764160   -6.391432   -1.767562
    148          1           0       -4.257526   -5.622872   -1.304576
    149          1           0       -6.337806   -4.897008   -3.235296
    150          1           0       -4.553637   -4.868571   -3.481760
    151          1           0       -5.414854   -3.538126   -2.585928
    152          1           0       -0.686634   -1.577810    0.841160
    153          1           0       -1.722919   -3.041411    0.854323
    154          1           0       -1.592687   -2.043231    2.357307
    155          1           0       -3.287700    2.785582    2.694904
    156          1           0       -1.247636    6.422970    1.603813
    157          1           0       -2.979653    6.730159    0.948305
    158          1           0       -1.666580    5.930400    0.049172
 ---------------------------------------------------------------------

 SCF Done:  E(RCAM-B3LYP) =  -4069.81122042     A.U. after   19 cycles

 Excitation energies and oscillator strengths:

 Excited State   1:      Singlet-A      1.6729 eV  741.14 nm  f=0.3409  <S**2>=0.000
     309 -> 315        0.15174
     311 -> 313        0.60229
     312 -> 314        0.32884
 This state for optimization and/or second-order correction.
 Total Energy, E(TD-HF/TD-DFT) =  -4069.74974342
 Copying the excited state density for this state as the 1-particle RhoCI density.

 Excited State   2:      Singlet-A      1.6820 eV  737.11 nm  f=0.4453  <S**2>=0.000
     310 -> 316        0.15409
     311 -> 313       -0.32855
     312 -> 314        0.60171

 Excited State   3:      Singlet-A      2.1839 eV  567.71 nm  f=0.0182  <S**2>=0.000
     309 -> 313        0.56896
     310 -> 314       -0.30065
     311 -> 315       -0.24025
     312 -> 316        0.12624

 Excited State   4:      Singlet-A      2.1921 eV  565.58 nm  f=0.1676  <S**2>=0.000
     309 -> 313        0.29870
     310 -> 314        0.56637
     311 -> 315       -0.12953
     312 -> 316       -0.24611

 Excited State   5:      Singlet-A      2.5871 eV  479.25 nm  f=0.0000  <S**2>=0.000
     312 -> 313        0.70644

 The electronic state is 1-A.
 Alpha  occ. eigenvalues --  -46.87565 -46.87404 -19.26225 -19.25885 -19.18997
 Alpha  occ. eigenvalues --  -19.18629 -19.18572 -19.18497 -19.17945 -19.17803
 Alpha  occ. eigenvalues --  -14.42407 -14.42062 -14.41266 -14.41089 -14.39258
 Alpha  occ. eigenvalues --  -14.39017 -14.38500 -14.38200 -10.38940 -10.38643
 Alpha  occ. eigenvalues --  -10.35308 -10.35133 -10.34121 -10.34020 -10.31647
 Alpha  occ. eigenvalues --  -10.31320 -10.31216 -10.31021 -10.30936 -10.30518
 Alpha  occ. eigenvalues --  -10.30300 -10.30262 -10.30189 -10.30143 -10.30054
 Alpha  occ. eigenvalues --  -10.29867 -10.29799 -10.29579 -10.29346 -10.29304
 Alpha  occ. eigenvalues --  -10.29270 -10.28889 -10.28640 -10.28577 -10.28345
 Alpha  occ. eigenvalues --  -10.28309 -10.28141 -10.28066 -10.27981 -10.27903
 Alpha  occ. eigenvalues --  -10.27738 -10.27580 -10.27432 -10.27426 -10.27389
 Alpha  occ. eigenvalues --  -10.27387 -10.27371 -10.27353 -10.27292 -10.27230
 Alpha  occ. eigenvalues --  -10.27221 -10.27180 -10.27124 -10.27024 -10.26948
 Alpha  occ. eigenvalues --  -10.26776 -10.26600 -10.26339 -10.26218 -10.26110
 Alpha  occ. eigenvalues --  -10.26049 -10.25973 -10.25959 -10.25905 -10.25839
 Alpha  occ. eigenvalues --  -10.25740 -10.25670 -10.25524 -10.25326 -10.25196
 Alpha  occ. eigenvalues --  -10.24772 -10.24632 -10.24597 -10.24477 -10.24463
 Alpha  occ. eigenvalues --  -10.24435  -3.16314  -3.16144  -1.91196  -1.91024
 Alpha  occ. eigenvalues --   -1.90785  -1.90622  -1.90613  -1.90455  -1.16511
 Alpha  occ. eigenvalues --   -1.16226  -1.08547  -1.08257  -1.06902  -1.06882
 Alpha  occ. eigenvalues --   -1.06789  -1.06204  -1.04404  -1.04195  -1.03570
 Alpha  occ. eigenvalues --   -1.03396  -1.02944  -1.02861  -1.02041  -1.02016
 Alpha  occ. eigenvalues --   -0.91889  -0.91595  -0.89402  -0.89207  -0.89071
 Alpha  occ. eigenvalues --   -0.88797  -0.88132  -0.87981  -0.87692  -0.87593
 Alpha  occ. eigenvalues --   -0.87515  -0.87297  -0.87032  -0.86921  -0.84914
 Alpha  occ. eigenvalues --   -0.84602  -0.83785  -0.83648  -0.82847  -0.82649
 Alpha  occ. eigenvalues --   -0.82566  -0.82288  -0.81494  -0.81219  -0.80346
 Alpha  occ. eigenvalues --   -0.80232  -0.78543  -0.78441  -0.77058  -0.76881
 Alpha  occ. eigenvalues --   -0.76809  -0.76576  -0.75750  -0.75562  -0.74716
 Alpha  occ. eigenvalues --   -0.74591  -0.72604  -0.72421  -0.71494  -0.71325
 Alpha  occ. eigenvalues --   -0.69668  -0.69634  -0.68741  -0.68506  -0.67507
 Alpha  occ. eigenvalues --   -0.67284  -0.67113  -0.66828  -0.65183  -0.64900
 Alpha  occ. eigenvalues --   -0.64675  -0.64558  -0.64493  -0.64267  -0.64112
 Alpha  occ. eigenvalues --   -0.63947  -0.62170  -0.61928  -0.60250  -0.60100
 Alpha  occ. eigenvalues --   -0.59711  -0.59421  -0.58898  -0.58631  -0.58328
 Alpha  occ. eigenvalues --   -0.58147  -0.57441  -0.57205  -0.57142  -0.56968
 Alpha  occ. eigenvalues --   -0.56108  -0.55955  -0.55783  -0.55599  -0.55358
 Alpha  occ. eigenvalues --   -0.55177  -0.55150  -0.55020  -0.54385  -0.54183
 Alpha  occ. eigenvalues --   -0.53829  -0.53503  -0.53136  -0.53048  -0.52958
 Alpha  occ. eigenvalues --   -0.52856  -0.52796  -0.52586  -0.52549  -0.52407
 Alpha  occ. eigenvalues --   -0.52307  -0.52161  -0.51776  -0.51572  -0.51571
 Alpha  occ. eigenvalues --   -0.51233  -0.51104  -0.50845  -0.50393  -0.50239
 Alpha  occ. eigenvalues --   -0.49897  -0.49782  -0.49740  -0.49570  -0.49400
 Alpha  occ. eigenvalues --   -0.49154  -0.49106  -0.49018  -0.48853  -0.48736
 Alpha  occ. eigenvalues --   -0.48459  -0.48285  -0.48249  -0.48241  -0.48143
 Alpha  occ. eigenvalues --   -0.48103  -0.47505  -0.47348  -0.47029  -0.46955
 Alpha  occ. eigenvalues --   -0.46617  -0.46469  -0.46456  -0.46175  -0.46172
 Alpha  occ. eigenvalues --   -0.46010  -0.45985  -0.45817  -0.45719  -0.45468
 Alpha  occ. eigenvalues --   -0.45121  -0.44900  -0.44421  -0.44387  -0.44222
 Alpha  occ. eigenvalues --   -0.44174  -0.44041  -0.43985  -0.43848  -0.43822
 Alpha  occ. eigenvalues --   -0.43731  -0.43663  -0.43452  -0.43294  -0.43137
 Alpha  occ. eigenvalues --   -0.43031  -0.42828  -0.42791  -0.42678  -0.42464
 Alpha  occ. eigenvalues --   -0.42387  -0.42294  -0.41873  -0.41684  -0.41573
 Alpha  occ. eigenvalues --   -0.41373  -0.41348  -0.41164  -0.40904  -0.40793
 Alpha  occ. eigenvalues --   -0.40638  -0.40615  -0.40525  -0.40488  -0.40405
 Alpha  occ. eigenvalues --   -0.40254  -0.40144  -0.39808  -0.39335  -0.39176
 Alpha  occ. eigenvalues --   -0.38265  -0.38157  -0.37566  -0.37354  -0.37175
 Alpha  occ. eigenvalues --   -0.37108  -0.36991  -0.36869  -0.36643  -0.36333
 Alpha  occ. eigenvalues --   -0.36113  -0.35822  -0.34156  -0.33912  -0.33708
 Alpha  occ. eigenvalues --   -0.33332  -0.33076  -0.32811  -0.31188  -0.31027
 Alpha  occ. eigenvalues --   -0.30879  -0.30668  -0.29849  -0.29660  -0.29233
 Alpha  occ. eigenvalues --   -0.29110  -0.29080  -0.28948  -0.23941  -0.23703
 Alpha  occ. eigenvalues --   -0.21024  -0.20760
 Alpha virt. eigenvalues --   -0.08697  -0.08406  -0.01592  -0.01386   0.00061
 Alpha virt. eigenvalues --    0.00302   0.02309   0.02560   0.03349   0.03661
 Alpha virt. eigenvalues --    0.04816   0.05093   0.05307   0.05523   0.06265

 Mulliken charges:
               1
     1  Mg   0.842365
     2  C   -0.001343
     3  C   -0.092942
     4  C   -0.046554
     5  C   -0.064632
     6  N   -0.256649
     7  C   -0.051424
     8  C   -0.014704
     9  C   -0.087405
    10  C    0.047467
    11  C    0.105034
    12  C    0.053288
    13  C   -0.070835
    14  H    0.034534
    15  N   -0.432897
    16  C    0.169757
    17  C   -0.176493
    18  C   -0.003990
    19  C    0.149114
    20  C    0.110369
    21  C    0.012245
    22  O   -0.250894
    23  C    0.062233
    24  N   -0.341162
    25  C    0.041192
    26  C   -0.027914
    27  C   -0.023826
    28  C    0.074874
    29  C    0.076469
    30  C    0.035410
    31  C   -0.004522
    32  N   -0.310512
    33  C    0.080812
    34  C   -0.169853
    35  C    0.008172
    36  C    0.084015
    37  C    0.127267
    38  C    0.046691
    39  O   -0.189038
    40  C   -0.005780
    41  C    0.212089
    42  O   -0.253947
    43  O   -0.305479
    44  C    0.157925
    45  H   -0.018317
    46  H   -0.017901
    47  H   -0.042408
    48  H    0.000017
    49  H   -0.003974
    50  H    0.025012
    51  H    0.015978
    52  H    0.015839
    53  H    0.014346
    54  H    0.046623
    55  H    0.016447
    56  H    0.017673
    57  H    0.005752
    58  H    0.025671
    59  H    0.040504
    60  H    0.036883
    61  H    0.034437
    62  H    0.032696
    63  H    0.015636
    64  H    0.008878
    65  H    0.022336
    66  H    0.012509
    67  H    0.004193
    68  H    0.005296
    69  H    0.004488
    70  H    0.007654
    71  H    0.016940
    72  H    0.030663
    73  H    0.047620
    74  H    0.008469
    75  H    0.045257
    76  H    0.034246
    77  H    0.041710
    78  H    0.045774
    79  H    0.054492
    80  Mg   0.838249
    81  C   -0.016496
    82  C   -0.087859
    83  C   -0.045556
    84  C   -0.064952
    85  N   -0.254500
    86  C   -0.049903
    87  C   -0.015066
    88  C   -0.090460
    89  C    0.045719
    90  C    0.114498
    91  C    0.062526
    92  C   -0.077779
    93  H    0.035109
    94  N   -0.423415
    95  C    0.162887
    96  C   -0.174794
    97  C   -0.007897
    98  C    0.152069
    99  C    0.099454
   100  C    0.015525
   101  O   -0.253347
   102  C    0.061208
   103  N   -0.350111
   104  C    0.037455
   105  C   -0.019781
   106  C   -0.034835
   107  C    0.089005
   108  C    0.073749
   109  C    0.034716
   110  C   -0.007630
   111  N   -0.324286
   112  C    0.078728
   113  C   -0.162487
   114  C    0.002332
   115  C    0.096718
   116  C    0.131364
   117  C    0.043415
   118  O   -0.187795
   119  C    0.000438
   120  C    0.211499
   121  O   -0.248837
   122  O   -0.306517
   123  C    0.151857
   124  H   -0.019984
   125  H   -0.015743
   126  H   -0.040259
   127  H   -0.001103
   128  H   -0.004445
   129  H    0.022044
   130  H    0.014349
   131  H    0.015921
   132  H    0.014042
   133  H    0.038436
   134  H    0.020208
   135  H    0.019411
   136  H    0.008573
   137  H    0.025853
   138  H    0.039738
   139  H    0.038079
   140  H    0.036238
   141  H    0.033973
   142  H    0.014362
   143  H    0.012351
   144  H    0.024970
   145  H    0.011465
   146  H    0.005538
   147  H    0.005998
   148  H    0.003732
   149  H    0.010790
   150  H    0.017985
   151  H    0.030513
   152  H    0.046602
   153  H    0.009009
   154  H    0.046268
   155  H    0.033925
   156  H    0.042426
   157  H    0.048900
   158  H    0.055651
 Sum of Mulliken charges =  -0.00000

 Dipole moment (field-independent basis, Debye):
    X=             -1.9953    Y=              2.3994    Z=              5.4835  Tot=              6.3093
 Quadrupole moment (field-independent basis, Debye-Ang):
   XX=           -457.7137   YY=           -471.6915   ZZ=           -517.6194
   XY=            -30.2195   XZ=             10.6761   YZ=             35.9832

 Normal termination of Gaussian 16 at Sat Sep 11 10:24:51 2021.
