 Gaussian 16, Revision A.03,
 Gaussian 16:  ES64L-G16RevA.03 25-Dec-2016

 -----------------------------------
 #p cam-b3lyp/Def2SVP td=(nstates=5)
 -----------------------------------

 --------------------------------
 TDDFT excited states in gaussian
 --------------------------------
 Symbolic Z-matrix:
 Charge =  0 Multiplicity = 1

                         Standard orientation:
 ---------------------------------------------------------------------
 Center     Atomic      Atomic             Coordinates (Angstroms)
 Number     Number       Type             X           Y           Z
 ---------------------------------------------------------------------
      1         12           0       -4.978585   -1.240876    0.419194
      2          6           0       -5.534335    2.294870    0.376129
      3          6           0       -6.051749   -1.298876   -2.819327
      4          6           0       -4.929479   -4.407945    0.573734
      5          6           0       -5.046799   -1.060360    3.898910
      6          7           0       -5.676066    0.360649   -0.940689
      7          6           0       -5.784925    1.682692   -0.853947
      8          6           0       -6.117401    2.365795   -2.214170
      9          6           0       -6.798643    1.130150   -2.956524
     10          6           0       -6.109488   -0.005355   -2.220578
     11          6           0       -8.301779    1.029377   -2.717922
     12          6           0       -4.832063    2.848575   -2.966872
     13          6           0       -5.080245    3.807653   -4.134746
     14          1           0       -4.117574    4.869594   -4.385534
     15          7           0       -4.952897   -2.593582   -1.020381
     16          6           0       -5.417020   -2.440493   -2.283884
     17          6           0       -5.170859   -3.728491   -2.967366
     18          6           0       -4.699574   -4.703417   -1.944866
     19          6           0       -4.868996   -3.938153   -0.736129
     20          6           0       -5.337060   -3.921637   -4.443449
     21          6           0       -4.188990   -6.106358   -2.040741
     22          8           0       -4.053010   -6.852507   -1.011497
     23          6           0       -3.932590   -6.620800   -3.398184
     24          7           0       -5.205271   -2.589316    1.996521
     25          6           0       -5.081634   -3.906731    1.801284
     26          6           0       -5.001031   -4.646522    3.103648
     27          6           0       -4.850611   -3.531585    4.236804
     28          6           0       -4.959232   -2.271160    3.343606
     29          6           0       -6.195573   -5.552024    3.434021
     30          6           0       -3.635944   -3.657441    5.190304
     31          6           0       -2.354661   -3.417341    4.423646
     32          7           0       -5.063976    0.339569    1.904438
     33          6           0       -5.105249    0.185865    3.297759
     34          6           0       -5.267552    1.532353    3.876286
     35          6           0       -5.326445    2.379597    2.771500
     36          6           0       -5.234777    1.608343    1.577743
     37          6           0       -5.399394    1.834328    5.260434
     38          6           0       -5.470239    3.754528    2.321227
     39          8           0       -5.494799    4.851991    2.880213
     40          6           0       -5.733007    3.742554    0.750674
     41          6           0       -4.817589    4.761734    0.128909
     42          8           0       -3.580503    4.597523    0.133176
     43          8           0       -5.545363    5.641840   -0.575577
     44          6           0       -4.695023    6.663555   -1.242791
     45          1           0       -6.589715   -1.472662   -3.753314
     46          1           0       -4.804364   -5.487847    0.676678
     47          1           0       -4.991155   -0.917391    4.979612
     48          1           0       -6.822728    3.194246   -2.146302
     49          1           0       -6.546614    1.102900   -4.016458
     50          1           0       -8.635824    1.749702   -1.971285
     51          1           0       -8.473337    0.011198   -2.368105
     52          1           0       -8.849851    1.120224   -3.656080
     53          1           0       -4.394644    2.008546   -3.506388
     54          1           0       -4.125358    3.302660   -2.271387
     55          1           0       -6.094034    4.208475   -4.112802
     56          1           0       -5.034993    3.235942   -5.061730
     57          1           0       -5.851874   -3.078412   -4.902234
     58          1           0       -6.017264   -4.762105   -4.579994
     59          1           0       -4.389151   -4.131575   -4.939157
     60          1           0       -4.854432   -6.579552   -3.978749
     61          1           0       -3.488067   -7.606737   -3.267120
     62          1           0       -3.225156   -5.959068   -3.898781
     63          1           0       -4.130559   -5.300804    3.128508
     64          1           0       -5.711859   -3.508661    4.904935
     65          1           0       -5.920625   -6.591862    3.612475
     66          1           0       -6.914643   -5.471948    2.619272
     67          1           0       -6.794379   -5.226662    4.284308
     68          1           0       -3.579618   -4.664678    5.601701
     69          1           0       -3.671104   -2.959111    6.026575
     70          1           0       -2.147419   -4.392511    3.984412
     71          1           0       -1.555744   -3.117170    5.102498
     72          1           0       -2.507234   -2.716105    3.602990
     73          1           0       -4.771122    2.705915    5.443678
     74          1           0       -5.096947    0.990624    5.880346
     75          1           0       -6.468728    2.035737    5.322207
     76          1           0       -6.783362    3.993823    0.606661
     77          1           0       -5.053853    7.640706   -0.919294
     78          1           0       -4.723750    6.441791   -2.309749
     79          1           0       -3.654188    6.709493   -0.920468
     80         12           0        5.537512   -0.198241   -0.232117
     81          6           0        4.070944    3.071240   -0.035341
     82          6           0        3.708346   -0.684619   -3.069752
     83          6           0        6.460447   -3.233646   -0.187855
     84          6           0        6.334675    0.107859    3.146719
     85          7           0        4.110607    1.100515   -1.313513
     86          6           0        3.678582    2.345379   -1.179281
     87          6           0        2.839927    2.867753   -2.376505
     88          6           0        2.332821    1.455740   -2.949154
     89          6           0        3.468409    0.566315   -2.447103
     90          6           0        1.036785    0.979386   -2.314557
     91          6           0        3.714656    3.634081   -3.429884
     92          6           0        2.920828    4.434988   -4.464353
     93          1           0        3.473135    5.701370   -4.937335
     94          7           0        5.540351   -1.560865   -1.674970
     95          6           0        4.746266   -1.592695   -2.765706
     96          6           0        5.126831   -2.806197   -3.505133
     97          6           0        6.095979   -3.575008   -2.677849
     98          6           0        6.053020   -2.813491   -1.445642
     99          6           0        4.642239   -3.097246   -4.895770
    100          6           0        6.915007   -4.801096   -2.946388
    101          8           0        7.509510   -5.433590   -2.003329
    102          6           0        6.924113   -5.292937   -4.331844
    103          7           0        6.099145   -1.478890    1.306346
    104          6           0        6.506121   -2.733952    1.047275
    105          6           0        7.118987   -3.372210    2.270960
    106          6           0        7.259146   -2.195390    3.344746
    107          6           0        6.591689   -1.049539    2.552973
    108          6           0        6.329709   -4.528783    2.883942
    109          6           0        8.671560   -1.954498    3.944549
    110          6           0        9.604350   -1.433230    2.875175
    111          7           0        5.434385    1.365899    1.254793
    112          6           0        5.796373    1.273438    2.616593
    113          6           0        5.439915    2.559526    3.250114
    114          6           0        4.869671    3.308569    2.209807
    115          6           0        4.852237    2.535986    1.017205
    116          6           0        5.609209    2.884462    4.625573
    117          6           0        4.268813    4.573310    1.851897
    118          8           0        4.096616    5.647026    2.427410
    119          6           0        3.609536    4.430273    0.412695
    120          6           0        4.027308    5.618379   -0.409736
    121          8           0        5.219673    5.782737   -0.722572
    122          8           0        2.928634    6.242529   -0.872057
    123          6           0        3.291629    7.421439   -1.702852
    124          1           0        3.011620   -1.024649   -3.836455
    125          1           0        6.890567   -4.236842   -0.142245
    126          1           0        6.640480    0.317570    4.173943
    127          1           0        1.992027    3.484054   -2.102615
    128          1           0        2.302212    1.458133   -4.035621
    129          1           0        0.731817    1.614288   -1.496008
    130          1           0        1.233615   -0.024503   -1.961693
    131          1           0        0.257182    0.883839   -3.075762
    132          1           0        4.201073    2.904503   -4.090072
    133          1           0        4.423165    4.275305   -2.942576
    134          1           0        1.870836    4.558761   -4.172540
    135          1           0        2.875259    3.856751   -5.390410
    136          1           0        3.813044   -2.437302   -5.179163
    137          1           0        4.198235   -4.098422   -4.876677
    138          1           0        5.446776   -3.081469   -5.634115
    139          1           0        5.905997   -5.514200   -4.643207
    140          1           0        7.634333   -6.121995   -4.342962
    141          1           0        7.285867   -4.491239   -4.985322
    142          1           0        8.103711   -3.765379    2.049932
    143          1           0        6.630343   -2.373966    4.229365
    144          1           0        6.913279   -5.466021    2.955353
    145          1           0        5.435251   -4.681729    2.294799
    146          1           0        5.923218   -4.336262    3.875362
    147          1           0        9.099006   -2.896414    4.297027
    148          1           0        8.673030   -1.266347    4.783262
    149          1           0        9.934474   -2.345606    2.369530
    150          1           0       10.443352   -0.904610    3.323161
    151          1           0        9.061395   -0.827257    2.140568
    152          1           0        6.006133    3.890278    4.661300
    153          1           0        6.270165    2.177502    5.122677
    154          1           0        4.577010    2.796946    4.975125
    155          1           0        2.528432    4.387446    0.550390
    156          1           0        2.780970    8.287018   -1.269617
    157          1           0        3.026525    7.148010   -2.741462
    158          1           0        4.323557    7.751680   -1.680556
 ---------------------------------------------------------------------

 SCF Done:  E(RCAM-B3LYP) =  -4069.81141401     A.U. after   19 cycles

 Excitation energies and oscillator strengths:

 Excited State   1:      Singlet-A      1.6559 eV  748.72 nm  f=0.0021  <S**2>=0.000
     309 -> 315       -0.11481
     310 -> 316        0.12386
     311 -> 313       -0.46478
     312 -> 314        0.50618
 This state for optimization and/or second-order correction.
 Total Energy, E(TD-HF/TD-DFT) =  -4069.75055934
 Copying the excited state density for this state as the 1-particle RhoCI density.

 Excited State   2:      Singlet-A      1.6970 eV  730.59 nm  f=0.7160  <S**2>=0.000
     309 -> 315        0.13276
     310 -> 316        0.12075
     311 -> 313        0.50421
     312 -> 314        0.46307

 Excited State   3:      Singlet-A      2.1825 eV  568.07 nm  f=0.0333  <S**2>=0.000
     309 -> 313       -0.25808
     310 -> 314        0.59011
     311 -> 315        0.10770
     312 -> 316       -0.24749

 Excited State   4:      Singlet-A      2.1945 eV  564.98 nm  f=0.1514  <S**2>=0.000
     309 -> 313        0.58647
     310 -> 314        0.25510
     311 -> 315       -0.25693
     312 -> 316       -0.11254

 Excited State   5:      Singlet-A      2.4483 eV  506.41 nm  f=0.0000  <S**2>=0.000
     312 -> 313        0.70697

 The electronic state is 1-A.
 Alpha  occ. eigenvalues --  -46.87956 -46.87463 -19.26415 -19.26055 -19.19157
 Alpha  occ. eigenvalues --  -19.18967 -19.18892 -19.18559 -19.18279 -19.17783
 Alpha  occ. eigenvalues --  -14.42616 -14.42295 -14.41598 -14.41165 -14.39563
 Alpha  occ. eigenvalues --  -14.39159 -14.38737 -14.38394 -10.39217 -10.38813
 Alpha  occ. eigenvalues --  -10.35603 -10.35241 -10.34502 -10.33953 -10.31801
 Alpha  occ. eigenvalues --  -10.31563 -10.31510 -10.31090 -10.31086 -10.30813
 Alpha  occ. eigenvalues --  -10.30720 -10.30650 -10.30357 -10.30197 -10.30153
 Alpha  occ. eigenvalues --  -10.30052 -10.29973 -10.29776 -10.29697 -10.29410
 Alpha  occ. eigenvalues --  -10.29257 -10.29207 -10.28956 -10.28818 -10.28521
 Alpha  occ. eigenvalues --  -10.28504 -10.28464 -10.28304 -10.28194 -10.27935
 Alpha  occ. eigenvalues --  -10.27907 -10.27890 -10.27798 -10.27738 -10.27676
 Alpha  occ. eigenvalues --  -10.27616 -10.27561 -10.27560 -10.27480 -10.27369
 Alpha  occ. eigenvalues --  -10.27357 -10.27291 -10.27279 -10.27266 -10.27220
 Alpha  occ. eigenvalues --  -10.26983 -10.26729 -10.26589 -10.26503 -10.26394
 Alpha  occ. eigenvalues --  -10.26304 -10.26281 -10.26162 -10.26009 -10.25924
 Alpha  occ. eigenvalues --  -10.25750 -10.25722 -10.25645 -10.25535 -10.25253
 Alpha  occ. eigenvalues --  -10.24971 -10.24932 -10.24782 -10.24659 -10.24606
 Alpha  occ. eigenvalues --  -10.24494  -3.16700  -3.16213  -1.91582  -1.91168
 Alpha  occ. eigenvalues --   -1.91095  -1.91010  -1.90684  -1.90521  -1.16764
 Alpha  occ. eigenvalues --   -1.16356  -1.08734  -1.08379  -1.07368  -1.06814
 Alpha  occ. eigenvalues --   -1.06777  -1.06674  -1.04746  -1.04287  -1.03912
 Alpha  occ. eigenvalues --   -1.03465  -1.03384  -1.02845  -1.02561  -1.01912
 Alpha  occ. eigenvalues --   -0.92119  -0.91752  -0.89650  -0.89383  -0.89313
 Alpha  occ. eigenvalues --   -0.88923  -0.88414  -0.88051  -0.87997  -0.87841
 Alpha  occ. eigenvalues --   -0.87588  -0.87490  -0.87439  -0.86961  -0.85170
 Alpha  occ. eigenvalues --   -0.84794  -0.84055  -0.83707  -0.83125  -0.82818
 Alpha  occ. eigenvalues --   -0.82786  -0.82452  -0.81726  -0.81366  -0.80748
 Alpha  occ. eigenvalues --   -0.80232  -0.78952  -0.78458  -0.77375  -0.77095
 Alpha  occ. eigenvalues --   -0.76955  -0.76689  -0.76078  -0.75610  -0.75024
 Alpha  occ. eigenvalues --   -0.74621  -0.72917  -0.72502  -0.71819  -0.71372
 Alpha  occ. eigenvalues --   -0.70024  -0.69602  -0.69049  -0.68626  -0.67791
 Alpha  occ. eigenvalues --   -0.67426  -0.67405  -0.67021  -0.65467  -0.65050
 Alpha  occ. eigenvalues --   -0.64999  -0.64773  -0.64567  -0.64440  -0.64401
 Alpha  occ. eigenvalues --   -0.64024  -0.62431  -0.62040  -0.60595  -0.60171
 Alpha  occ. eigenvalues --   -0.59982  -0.59574  -0.59132  -0.58789  -0.58647
 Alpha  occ. eigenvalues --   -0.58214  -0.57718  -0.57445  -0.57291  -0.57039
 Alpha  occ. eigenvalues --   -0.56455  -0.56128  -0.56009  -0.55673  -0.55653
 Alpha  occ. eigenvalues --   -0.55462  -0.55257  -0.55049  -0.54649  -0.54278
 Alpha  occ. eigenvalues --   -0.54090  -0.53694  -0.53449  -0.53393  -0.53061
 Alpha  occ. eigenvalues --   -0.53043  -0.52939  -0.52934  -0.52692  -0.52550
 Alpha  occ. eigenvalues --   -0.52502  -0.52246  -0.52024  -0.51804  -0.51675
 Alpha  occ. eigenvalues --   -0.51462  -0.51333  -0.50987  -0.50750  -0.50338
 Alpha  occ. eigenvalues --   -0.50169  -0.50078  -0.49796  -0.49699  -0.49685
 Alpha  occ. eigenvalues --   -0.49363  -0.49298  -0.49258  -0.48986  -0.48869
 Alpha  occ. eigenvalues --   -0.48734  -0.48606  -0.48573  -0.48339  -0.48205
 Alpha  occ. eigenvalues --   -0.48150  -0.47852  -0.47446  -0.47402  -0.46945
 Alpha  occ. eigenvalues --   -0.46944  -0.46744  -0.46520  -0.46500  -0.46354
 Alpha  occ. eigenvalues --   -0.46292  -0.46088  -0.45949  -0.45883  -0.45594
 Alpha  occ. eigenvalues --   -0.45328  -0.45031  -0.44717  -0.44668  -0.44297
 Alpha  occ. eigenvalues --   -0.44286  -0.44283  -0.44262  -0.44160  -0.43916
 Alpha  occ. eigenvalues --   -0.43904  -0.43738  -0.43628  -0.43549  -0.43333
 Alpha  occ. eigenvalues --   -0.43179  -0.43169  -0.42829  -0.42777  -0.42711
 Alpha  occ. eigenvalues --   -0.42651  -0.42388  -0.42151  -0.41846  -0.41782
 Alpha  occ. eigenvalues --   -0.41716  -0.41440  -0.41292  -0.41262  -0.41044
 Alpha  occ. eigenvalues --   -0.40997  -0.40781  -0.40702  -0.40557  -0.40512
 Alpha  occ. eigenvalues --   -0.40469  -0.40309  -0.40034  -0.39557  -0.39275
 Alpha  occ. eigenvalues --   -0.38610  -0.38180  -0.37963  -0.37469  -0.37461
 Alpha  occ. eigenvalues --   -0.37448  -0.37084  -0.36996  -0.36846  -0.36526
 Alpha  occ. eigenvalues --   -0.36334  -0.36012  -0.34437  -0.34050  -0.33911
 Alpha  occ. eigenvalues --   -0.33606  -0.33336  -0.32975  -0.31496  -0.31188
 Alpha  occ. eigenvalues --   -0.31117  -0.30767  -0.30138  -0.29680  -0.29603
 Alpha  occ. eigenvalues --   -0.29460  -0.29141  -0.28999  -0.24235  -0.23830
 Alpha  occ. eigenvalues --   -0.21280  -0.20920
 Alpha virt. eigenvalues --   -0.08925  -0.08593  -0.01903  -0.01492  -0.00217
 Alpha virt. eigenvalues --    0.00158   0.02072   0.02436   0.02856   0.03406
 Alpha virt. eigenvalues --    0.04537   0.04921   0.04963   0.05438   0.05950

 Mulliken charges:
               1
     1  Mg   0.837510
     2  C   -0.003571
     3  C   -0.095166
     4  C   -0.045556
     5  C   -0.063562
     6  N   -0.256733
     7  C   -0.052926
     8  C   -0.013676
     9  C   -0.086791
    10  C    0.045694
    11  C    0.104755
    12  C    0.053763
    13  C   -0.071478
    14  H    0.034945
    15  N   -0.433134
    16  C    0.167785
    17  C   -0.177910
    18  C   -0.004195
    19  C    0.148517
    20  C    0.110255
    21  C    0.012138
    22  O   -0.249059
    23  C    0.062774
    24  N   -0.341084
    25  C    0.041121
    26  C   -0.028219
    27  C   -0.024130
    28  C    0.074954
    29  C    0.076052
    30  C    0.034999
    31  C   -0.004489
    32  N   -0.310679
    33  C    0.080612
    34  C   -0.168947
    35  C    0.008896
    36  C    0.082973
    37  C    0.127073
    38  C    0.046712
    39  O   -0.186909
    40  C   -0.005546
    41  C    0.213471
    42  O   -0.257637
    43  O   -0.304731
    44  C    0.157165
    45  H   -0.017678
    46  H   -0.016497
    47  H   -0.040830
    48  H    0.001521
    49  H   -0.004717
    50  H    0.025820
    51  H    0.016773
    52  H    0.016770
    53  H    0.009158
    54  H    0.043242
    55  H    0.019056
    56  H    0.017407
    57  H    0.005581
    58  H    0.027255
    59  H    0.037969
    60  H    0.037539
    61  H    0.036054
    62  H    0.030006
    63  H    0.016816
    64  H    0.009813
    65  H    0.023506
    66  H    0.012543
    67  H    0.005013
    68  H    0.006668
    69  H    0.005066
    70  H    0.008960
    71  H    0.018427
    72  H    0.028693
    73  H    0.048830
    74  H    0.009431
    75  H    0.046319
    76  H    0.035456
    77  H    0.043887
    78  H    0.045525
    79  H    0.054450
    80  Mg   0.837578
    81  C   -0.016605
    82  C   -0.087851
    83  C   -0.045672
    84  C   -0.065372
    85  N   -0.254576
    86  C   -0.048931
    87  C   -0.015740
    88  C   -0.090987
    89  C    0.045939
    90  C    0.113250
    91  C    0.062600
    92  C   -0.077301
    93  H    0.033688
    94  N   -0.423419
    95  C    0.162795
    96  C   -0.175091
    97  C   -0.008132
    98  C    0.151985
    99  C    0.099722
   100  C    0.015337
   101  O   -0.253548
   102  C    0.061343
   103  N   -0.350077
   104  C    0.037348
   105  C   -0.019709
   106  C   -0.034769
   107  C    0.089184
   108  C    0.073789
   109  C    0.034828
   110  C   -0.007589
   111  N   -0.324318
   112  C    0.078891
   113  C   -0.163201
   114  C    0.003137
   115  C    0.095932
   116  C    0.131371
   117  C    0.043334
   118  O   -0.186529
   119  C    0.000227
   120  C    0.210637
   121  O   -0.252169
   122  O   -0.303698
   123  C    0.152579
   124  H   -0.021021
   125  H   -0.016016
   126  H   -0.040803
   127  H    0.003498
   128  H   -0.006053
   129  H    0.029306
   130  H    0.013047
   131  H    0.014264
   132  H    0.013102
   133  H    0.037593
   134  H    0.021467
   135  H    0.018262
   136  H    0.007647
   137  H    0.025170
   138  H    0.039074
   139  H    0.037798
   140  H    0.035932
   141  H    0.033537
   142  H    0.014031
   143  H    0.012073
   144  H    0.024718
   145  H    0.011993
   146  H    0.005137
   147  H    0.005866
   148  H    0.003480
   149  H    0.010749
   150  H    0.017619
   151  H    0.030337
   152  H    0.045955
   153  H    0.007855
   154  H    0.047917
   155  H    0.041196
   156  H    0.043998
   157  H    0.048441
   158  H    0.052750
 Sum of Mulliken charges =  -0.00000

 Dipole moment (field-independent basis, Debye):
    X=             -4.7455    Y=             -3.7084    Z=             -6.2019  Tot=              8.6450
 Quadrupole moment (field-independent basis, Debye-Ang):
   XX=           -513.9823   YY=           -560.7720   ZZ=           -447.7443
   XY=             -4.0803   XZ=             25.6076   YZ=            -34.4685

 Normal termination of Gaussian 16 at Fri Sep 10 22:14:35 2021.
