 Gaussian 16, Revision A.03,
 Gaussian 16:  ES64L-G16RevA.03 25-Dec-2016

 -----------------------------------
 #p cam-b3lyp/Def2SVP td=(nstates=5)
 -----------------------------------

 --------------------------------
 TDDFT excited states in gaussian
 --------------------------------
 Symbolic Z-matrix:
 Charge =  0 Multiplicity = 1

                         Standard orientation:
 ---------------------------------------------------------------------
 Center     Atomic      Atomic             Coordinates (Angstroms)
 Number     Number       Type             X           Y           Z
 ---------------------------------------------------------------------
      1         12           0        5.462953    0.406443    1.005102
      2          6           0        5.952763   -2.558639   -0.939271
      3          6           0        6.806666    2.156312   -1.597869
      4          6           0        5.461434    2.971086    2.870370
      5          6           0        5.233625   -1.648571    3.810451
      6          7           0        6.242079   -0.232508   -0.966027
      7          6           0        6.317969   -1.391166   -1.613270
      8          6           0        6.751020   -1.239889   -3.102215
      9          6           0        7.515978    0.155342   -3.001379
     10          6           0        6.788938    0.745107   -1.805756
     11          6           0        8.995244    0.015629   -2.656775
     12          6           0        5.524854   -1.152191   -4.072038
     13          6           0        5.852417   -1.331255   -5.557297
     14          1           0        4.894268   -2.021571   -6.407452
     15          7           0        5.584744    2.324196    0.546581
     16          6           0        6.150897    2.857269   -0.562738
     17          6           0        5.987961    4.321861   -0.439840
     18          6           0        5.450711    4.607437    0.919536
     19          6           0        5.502820    3.297556    1.516925
     20          6           0        6.281871    5.278827   -1.554103
     21          6           0        4.976919    5.863692    1.579442
     22          8           0        4.768780    5.933566    2.838954
     23          6           0        4.845929    7.050633    0.715119
     24          7           0        5.581331    0.657661    3.074041
     25          6           0        5.499791    1.872612    3.627422
     26          6           0        5.323636    1.784599    5.114420
     27          6           0        5.056811    0.243770    5.437534
     28          6           0        5.216389   -0.328339    4.007325
     29          6           0        6.503079    2.286320    5.958932
     30          6           0        3.768589   -0.096041    6.228377
     31          6           0        2.552273    0.201774    5.380450
     32          7           0        5.392436   -1.730231    1.380199
     33          6           0        5.318831   -2.365152    2.628450
     34          6           0        5.405970   -3.816081    2.380904
     35          6           0        5.541762   -3.924367    0.998269
     36          6           0        5.565965   -2.622504    0.421331
     37          6           0        5.414671   -4.832336    3.376688
     38          6           0        5.696794   -4.836173   -0.123529
     39          8           0        5.653111   -6.059801   -0.258875
     40          6           0        6.091428   -3.985003   -1.410231
     41          6           0        5.212497   -4.439981   -2.543273
     42          8           0        3.982830   -4.228063   -2.523912
     43          8           0        5.980229   -4.835952   -3.570082
     44          6           0        5.169921   -5.272286   -4.738486
     45          1           0        7.424800    2.777959   -2.248567
     46          1           0        5.348709    3.824888    3.541752
     47          1           0        5.084202   -2.354621    4.629365
     48          1           0        7.432154   -2.013018   -3.458237
     49          1           0        7.354919    0.772539   -3.885036
     50          1           0        9.251237   -1.014652   -2.409973
     51          1           0        9.156053    0.664589   -1.795681
     52          1           0        9.618746    0.417833   -3.455683
     53          1           0        5.150670   -0.128554   -4.086675
     54          1           0        4.753405   -1.867283   -3.784225
     55          1           0        6.852896   -1.741255   -5.698188
     56          1           0        5.896525   -0.344654   -6.018678
     57          1           0        6.817398    4.792779   -2.368666
     58          1           0        6.987094    6.013192   -1.165417
     59          1           0        5.383388    5.783926   -1.908977
     60          1           0        5.812548    7.275745    0.263984
     61          1           0        4.410827    7.830472    1.339128
     62          1           0        4.170793    6.815175   -0.108106
     63          1           0        4.466821    2.371873    5.442145
     64          1           0        5.857968   -0.193833    6.033625
     65          1           0        6.233942    3.074753    6.662242
     66          1           0        7.286721    2.619489    5.279084
     67          1           0        7.021625    1.512931    6.524968
     68          1           0        3.696961    0.524349    7.121087
     69          1           0        3.719670   -1.138270    6.543999
     70          1           0        2.401514    1.269225    5.537461
     71          1           0        1.693302   -0.369903    5.733386
     72          1           0        2.760188    0.054499    4.320465
     73          1           0        4.756646   -5.621432    3.012957
     74          1           0        5.077116   -4.447091    4.338585
     75          1           0        6.470929   -5.100941    3.381856
     76          1           0        7.145204   -4.181720   -1.605113
     77          1           0        5.481435   -6.287641   -4.983939
     78          1           0        5.292871   -4.506233   -5.504286
     79          1           0        4.104899   -5.421825   -4.557638
     80         12           0       -4.979674    0.549847   -0.724292
     81          6           0       -7.570597   -1.630244    0.464569
     82          6           0       -7.390698    2.917823   -1.187213
     83          6           0       -2.805376    2.334100   -2.192724
     84          6           0       -3.022735   -2.286794   -1.243502
     85          7           0       -7.162766    0.527783   -0.369500
     86          6           0       -8.027304   -0.335180    0.142584
     87          6           0       -9.444234    0.246582    0.394428
     88          6           0       -9.404853    1.446040   -0.672634
     89          6           0       -7.895885    1.675768   -0.726573
     90          6           0       -9.875202    1.034850   -2.057926
     91          6           0       -9.617784    0.785190    1.857918
     92          6           0      -11.062140    1.082803    2.266585
     93          1           0      -11.461827    0.825861    3.647421
     94          7           0       -4.964595    2.496122   -1.112060
     95          6           0       -6.034611    3.307879   -1.243926
     96          6           0       -5.492847    4.641747   -1.546312
     97          6           0       -4.023243    4.517161   -1.744945
     98          6           0       -3.873845    3.076116   -1.710716
     99          6           0       -6.337499    5.882706   -1.544285
    100          6           0       -2.934512    5.527184   -1.946743
    101          8           0       -1.762392    5.185018   -2.336454
    102          6           0       -3.306958    6.937764   -1.764931
    103          7           0       -3.257043    0.081119   -1.789737
    104          6           0       -2.462014    1.048808   -2.279048
    105          6           0       -1.148600    0.482662   -2.763600
    106          6           0       -1.130241   -1.039702   -2.274055
    107          6           0       -2.536679   -1.118838   -1.640751
    108          6           0       -0.918739    0.534132   -4.273868
    109          6           0        0.089338   -1.491163   -1.424646
    110          6           0        0.070182   -0.794552   -0.083103
    111          7           0       -5.147768   -1.558116   -0.281275
    112          6           0       -4.224709   -2.575028   -0.609799
    113          6           0       -4.830091   -3.860126   -0.204263
    114          6           0       -6.082965   -3.500966    0.315146
    115          6           0       -6.255165   -2.093538    0.220196
    116          6           0       -4.247029   -5.146655   -0.380321
    117          6           0       -7.303358   -3.993509    0.912424
    118          8           0       -7.693187   -5.089020    1.314437
    119          6           0       -8.372781   -2.817630    0.919787
    120          6           0       -8.991903   -2.761430    2.289483
    121          8           0       -8.307424   -2.450765    3.280227
    122          8           0      -10.328032   -2.869951    2.173874
    123          6           0      -10.987910   -2.808517    3.505266
    124          1           0       -8.095278    3.649898   -1.582832
    125          1           0       -1.978365    2.913903   -2.609087
    126          1           0       -2.435749   -3.206912   -1.282033
    127          1           0      -10.259880   -0.428585    0.164963
    128          1           0       -9.911679    2.329358   -0.292853
    129          1           0      -10.047043   -0.029114   -2.125723
    130          1           0       -9.087927    1.334977   -2.737008
    131          1           0      -10.757345    1.614750   -2.344061
    132          1           0       -9.192886    1.795278    1.920459
    133          1           0       -9.172872    0.113710    2.566295
    134          1           0      -11.786449    0.644927    1.569036
    135          1           0      -11.230481    2.159527    2.186896
    136          1           0       -7.407427    5.641023   -1.528283
    137          1           0       -6.184679    6.375105   -2.510745
    138          1           0       -6.064171    6.576968   -0.746805
    139          1           0       -4.109494    7.191018   -2.453587
    140          1           0       -2.376718    7.500650   -1.863380
    141          1           0       -3.708056    7.066114   -0.753360
    142          1           0       -0.312991    1.006047   -2.315340
    143          1           0       -1.127519   -1.740352   -3.121936
    144          1           0        0.004216    1.074705   -4.556720
    145          1           0       -1.783853    0.991412   -4.735405
    146          1           0       -0.878397   -0.435026   -4.768146
    147          1           0        1.021216   -1.197077   -1.913798
    148          1           0        0.132789   -2.563698   -1.267239
    149          1           0        0.533142    0.172632   -0.300634
    150          1           0        0.650401   -1.354439    0.647583
    151          1           0       -0.957638   -0.601552    0.245501
    152          1           0       -4.413354   -5.692308    0.538970
    153          1           0       -3.186934   -5.074090   -0.614237
    154          1           0       -4.830863   -5.510787   -1.229918
    155          1           0       -9.109155   -3.039675    0.146469
    156          1           0      -11.597190   -3.712476    3.601879
    157          1           0      -11.518594   -1.838229    3.531179
    158          1           0      -10.355581   -2.884957    4.382055
 ---------------------------------------------------------------------

 SCF Done:  E(RCAM-B3LYP) =  -4069.81290974     A.U. after   19 cycles

 Excitation energies and oscillator strengths:

 Excited State   1:      Singlet-A      1.6540 eV  749.59 nm  f=0.0058  <S**2>=0.000
     309 -> 315       -0.11118
     310 -> 316        0.12666
     311 -> 313       -0.45122
     312 -> 314        0.51839
 This state for optimization and/or second-order correction.
 Total Energy, E(TD-HF/TD-DFT) =  -4069.75212556
 Copying the excited state density for this state as the 1-particle RhoCI density.

 Excited State   2:      Singlet-A      1.6967 eV  730.75 nm  f=0.7103  <S**2>=0.000
     309 -> 315        0.13606
     310 -> 316        0.11733
     311 -> 313        0.51649
     312 -> 314        0.44953

 Excited State   3:      Singlet-A      2.1834 eV  567.84 nm  f=0.0919  <S**2>=0.000
     309 -> 313        0.11179
     310 -> 314        0.63346
     312 -> 316       -0.26704

 Excited State   4:      Singlet-A      2.1958 eV  564.65 nm  f=0.1064  <S**2>=0.000
     309 -> 313        0.63055
     310 -> 314       -0.11013
     311 -> 315       -0.27584

 Excited State   5:      Singlet-A      2.5040 eV  495.14 nm  f=0.0000  <S**2>=0.000
     312 -> 313        0.70665

 The electronic state is 1-A.
 Alpha  occ. eigenvalues --  -46.87798 -46.87447 -19.26429 -19.26213 -19.19201
 Alpha  occ. eigenvalues --  -19.19015 -19.18722 -19.18591 -19.18194 -19.17871
 Alpha  occ. eigenvalues --  -14.42455 -14.42294 -14.41432 -14.41119 -14.39385
 Alpha  occ. eigenvalues --  -14.39149 -14.38595 -14.38385 -10.39240 -10.38941
 Alpha  occ. eigenvalues --  -10.35349 -10.35274 -10.34422 -10.34048 -10.31822
 Alpha  occ. eigenvalues --  -10.31637 -10.31426 -10.31101 -10.30914 -10.30849
 Alpha  occ. eigenvalues --  -10.30573 -10.30493 -10.30179 -10.30157 -10.30139
 Alpha  occ. eigenvalues --  -10.29908 -10.29875 -10.29642 -10.29608 -10.29231
 Alpha  occ. eigenvalues --  -10.29219 -10.29192 -10.28804 -10.28643 -10.28565
 Alpha  occ. eigenvalues --  -10.28538 -10.28364 -10.28218 -10.28148 -10.27979
 Alpha  occ. eigenvalues --  -10.27799 -10.27774 -10.27718 -10.27548 -10.27467
 Alpha  occ. eigenvalues --  -10.27433 -10.27415 -10.27393 -10.27376 -10.27321
 Alpha  occ. eigenvalues --  -10.27284 -10.27270 -10.27218 -10.27078 -10.27065
 Alpha  occ. eigenvalues --  -10.26879 -10.26828 -10.26555 -10.26339 -10.26251
 Alpha  occ. eigenvalues --  -10.26238 -10.26082 -10.25992 -10.25880 -10.25818
 Alpha  occ. eigenvalues --  -10.25652 -10.25553 -10.25420 -10.25382 -10.25171
 Alpha  occ. eigenvalues --  -10.24828 -10.24769 -10.24674 -10.24560 -10.24477
 Alpha  occ. eigenvalues --  -10.24267  -3.16539  -3.16197  -1.91421  -1.91079
 Alpha  occ. eigenvalues --   -1.91007  -1.90849  -1.90667  -1.90505  -1.16780
 Alpha  occ. eigenvalues --   -1.16504  -1.08665  -1.08481  -1.07119  -1.06849
 Alpha  occ. eigenvalues --   -1.06809  -1.06799  -1.04588  -1.04297  -1.03746
 Alpha  occ. eigenvalues --   -1.03448  -1.03221  -1.02809  -1.02401  -1.01892
 Alpha  occ. eigenvalues --   -0.91990  -0.91788  -0.89479  -0.89228  -0.89183
 Alpha  occ. eigenvalues --   -0.88972  -0.88244  -0.87884  -0.87858  -0.87674
 Alpha  occ. eigenvalues --   -0.87563  -0.87471  -0.87205  -0.86953  -0.85007
 Alpha  occ. eigenvalues --   -0.84822  -0.83892  -0.83543  -0.82878  -0.82750
 Alpha  occ. eigenvalues --   -0.82644  -0.82461  -0.81634  -0.81405  -0.80602
 Alpha  occ. eigenvalues --   -0.80253  -0.78752  -0.78440  -0.77204  -0.76961
 Alpha  occ. eigenvalues --   -0.76939  -0.76672  -0.75947  -0.75654  -0.74870
 Alpha  occ. eigenvalues --   -0.74551  -0.72758  -0.72469  -0.71670  -0.71374
 Alpha  occ. eigenvalues --   -0.69839  -0.69346  -0.68883  -0.68638  -0.67634
 Alpha  occ. eigenvalues --   -0.67401  -0.67236  -0.67047  -0.65322  -0.65091
 Alpha  occ. eigenvalues --   -0.64868  -0.64628  -0.64544  -0.64441  -0.64234
 Alpha  occ. eigenvalues --   -0.63865  -0.62358  -0.62071  -0.60387  -0.60139
 Alpha  occ. eigenvalues --   -0.59826  -0.59615  -0.58985  -0.58768  -0.58503
 Alpha  occ. eigenvalues --   -0.58202  -0.57646  -0.57372  -0.57286  -0.56987
 Alpha  occ. eigenvalues --   -0.56302  -0.56051  -0.55992  -0.55714  -0.55486
 Alpha  occ. eigenvalues --   -0.55338  -0.55289  -0.54986  -0.54546  -0.54212
 Alpha  occ. eigenvalues --   -0.53937  -0.53746  -0.53277  -0.53209  -0.53030
 Alpha  occ. eigenvalues --   -0.52953  -0.52946  -0.52707  -0.52695  -0.52529
 Alpha  occ. eigenvalues --   -0.52365  -0.51930  -0.51907  -0.51630  -0.51627
 Alpha  occ. eigenvalues --   -0.51502  -0.51201  -0.50960  -0.50463  -0.50319
 Alpha  occ. eigenvalues --   -0.49977  -0.49873  -0.49805  -0.49573  -0.49503
 Alpha  occ. eigenvalues --   -0.49326  -0.49212  -0.49115  -0.49030  -0.48913
 Alpha  occ. eigenvalues --   -0.48625  -0.48447  -0.48384  -0.48381  -0.48197
 Alpha  occ. eigenvalues --   -0.48124  -0.47677  -0.47391  -0.47269  -0.46925
 Alpha  occ. eigenvalues --   -0.46785  -0.46587  -0.46471  -0.46365  -0.46348
 Alpha  occ. eigenvalues --   -0.46161  -0.46034  -0.45855  -0.45849  -0.45613
 Alpha  occ. eigenvalues --   -0.45163  -0.44964  -0.44599  -0.44474  -0.44349
 Alpha  occ. eigenvalues --   -0.44254  -0.44127  -0.44083  -0.43996  -0.43956
 Alpha  occ. eigenvalues --   -0.43801  -0.43778  -0.43530  -0.43389  -0.43340
 Alpha  occ. eigenvalues --   -0.43185  -0.43023  -0.42794  -0.42757  -0.42685
 Alpha  occ. eigenvalues --   -0.42607  -0.42257  -0.41992  -0.41709  -0.41664
 Alpha  occ. eigenvalues --   -0.41551  -0.41458  -0.41228  -0.41140  -0.40875
 Alpha  occ. eigenvalues --   -0.40792  -0.40762  -0.40588  -0.40534  -0.40478
 Alpha  occ. eigenvalues --   -0.40288  -0.40122  -0.40083  -0.39365  -0.39022
 Alpha  occ. eigenvalues --   -0.38440  -0.38050  -0.37802  -0.37484  -0.37293
 Alpha  occ. eigenvalues --   -0.37290  -0.37026  -0.36954  -0.36813  -0.36586
 Alpha  occ. eigenvalues --   -0.36219  -0.35954  -0.34287  -0.34034  -0.33918
 Alpha  occ. eigenvalues --   -0.33703  -0.33186  -0.32958  -0.31260  -0.31150
 Alpha  occ. eigenvalues --   -0.31028  -0.30764  -0.30061  -0.29774  -0.29419
 Alpha  occ. eigenvalues --   -0.29311  -0.29140  -0.29007  -0.24080  -0.23821
 Alpha  occ. eigenvalues --   -0.21114  -0.20900
 Alpha virt. eigenvalues --   -0.08754  -0.08589  -0.01730  -0.01470  -0.00018
 Alpha virt. eigenvalues --    0.00133   0.02193   0.02387   0.02749   0.03486
 Alpha virt. eigenvalues --    0.04695   0.04922   0.04944   0.05319   0.06091

 Mulliken charges:
               1
     1  Mg   0.834717
     2  C   -0.004159
     3  C   -0.093784
     4  C   -0.045109
     5  C   -0.063394
     6  N   -0.256774
     7  C   -0.054078
     8  C   -0.013439
     9  C   -0.086974
    10  C    0.045985
    11  C    0.104735
    12  C    0.052691
    13  C   -0.071794
    14  H    0.035133
    15  N   -0.433578
    16  C    0.168786
    17  C   -0.175957
    18  C   -0.002850
    19  C    0.149228
    20  C    0.109774
    21  C    0.013777
    22  O   -0.249517
    23  C    0.061337
    24  N   -0.340881
    25  C    0.041440
    26  C   -0.028314
    27  C   -0.023908
    28  C    0.074604
    29  C    0.076140
    30  C    0.035014
    31  C   -0.004760
    32  N   -0.310434
    33  C    0.079463
    34  C   -0.170277
    35  C    0.007940
    36  C    0.081325
    37  C    0.127498
    38  C    0.044999
    39  O   -0.188881
    40  C   -0.005136
    41  C    0.213536
    42  O   -0.260367
    43  O   -0.304067
    44  C    0.157763
    45  H   -0.017358
    46  H   -0.016380
    47  H   -0.041257
    48  H    0.000985
    49  H   -0.003765
    50  H    0.025506
    51  H    0.016789
    52  H    0.016872
    53  H    0.011029
    54  H    0.041992
    55  H    0.018537
    56  H    0.018771
    57  H    0.005624
    58  H    0.026707
    59  H    0.042493
    60  H    0.036648
    61  H    0.035589
    62  H    0.035217
    63  H    0.017131
    64  H    0.009442
    65  H    0.023409
    66  H    0.012399
    67  H    0.004843
    68  H    0.006562
    69  H    0.004930
    70  H    0.009136
    71  H    0.019365
    72  H    0.028546
    73  H    0.047123
    74  H    0.009639
    75  H    0.046046
    76  H    0.035513
    77  H    0.043630
    78  H    0.046676
    79  H    0.052399
    80  Mg   0.837508
    81  C   -0.017347
    82  C   -0.088301
    83  C   -0.045660
    84  C   -0.064958
    85  N   -0.254635
    86  C   -0.049796
    87  C   -0.015115
    88  C   -0.090404
    89  C    0.045587
    90  C    0.114542
    91  C    0.062607
    92  C   -0.077636
    93  H    0.034429
    94  N   -0.423280
    95  C    0.162629
    96  C   -0.175160
    97  C   -0.008478
    98  C    0.152119
    99  C    0.099536
   100  C    0.015396
   101  O   -0.255098
   102  C    0.061545
   103  N   -0.350173
   104  C    0.037597
   105  C   -0.019531
   106  C   -0.037379
   107  C    0.088382
   108  C    0.074877
   109  C    0.035838
   110  C   -0.013753
   111  N   -0.324258
   112  C    0.078817
   113  C   -0.162355
   114  C    0.002006
   115  C    0.096498
   116  C    0.130795
   117  C    0.042449
   118  O   -0.188004
   119  C    0.000913
   120  C    0.211206
   121  O   -0.251149
   122  O   -0.305663
   123  C    0.152149
   124  H   -0.020442
   125  H   -0.016846
   126  H   -0.036519
   127  H   -0.000935
   128  H   -0.004765
   129  H    0.022260
   130  H    0.014325
   131  H    0.015708
   132  H    0.013909
   133  H    0.037612
   134  H    0.020616
   135  H    0.019377
   136  H    0.008441
   137  H    0.025219
   138  H    0.039242
   139  H    0.037956
   140  H    0.034529
   141  H    0.034359
   142  H    0.013115
   143  H    0.014723
   144  H    0.022456
   145  H    0.010187
   146  H    0.006350
   147  H    0.012370
   148  H    0.014436
   149  H    0.007282
   150  H    0.024565
   151  H    0.027225
   152  H    0.045995
   153  H    0.012078
   154  H    0.046584
   155  H    0.034663
   156  H    0.043678
   157  H    0.049298
   158  H    0.053409
 Sum of Mulliken charges =  -0.00000

 Dipole moment (field-independent basis, Debye):
    X=              0.6949    Y=              6.7114    Z=             -3.8385  Tot=              7.7627
 Quadrupole moment (field-independent basis, Debye-Ang):
   XX=           -443.6548   YY=           -541.3233   ZZ=           -483.2492
   XY=            -27.3710   XZ=             -7.6422   YZ=             -4.3320

 Normal termination of Gaussian 16 at Fri Sep 10 10:11:19 2021.
