 Gaussian 16, Revision A.03,
 Gaussian 16:  ES64L-G16RevA.03 25-Dec-2016

 -----------------------------------
 #p cam-b3lyp/Def2SVP td=(nstates=5)
 -----------------------------------

 --------------------------------
 TDDFT excited states in gaussian
 --------------------------------
 Symbolic Z-matrix:
 Charge =  0 Multiplicity = 1

                         Standard orientation:
 ---------------------------------------------------------------------
 Center     Atomic      Atomic             Coordinates (Angstroms)
 Number     Number       Type             X           Y           Z
 ---------------------------------------------------------------------
      1         12           0       -7.782161   -0.876319    0.188248
      2          6           0       -8.031789    2.690926    0.345294
      3          6           0       -8.705067   -0.647831   -3.088809
      4          6           0       -8.010515   -4.039006    0.144795
      5          6           0       -7.995978   -0.896878    3.666684
      6          7           0       -8.276740    0.858051   -1.095496
      7          6           0       -8.276372    2.177079   -0.930161
      8          6           0       -8.485969    2.966121   -2.257134
      9          6           0       -9.234947    1.841318   -3.103213
     10          6           0       -8.679990    0.608021   -2.412615
     11          6           0      -10.750640    1.859188   -2.933339
     12          6           0       -7.130637    3.377704   -2.924521
     13          6           0       -7.241722    4.422361   -4.038840
     14          1           0       -6.181416    5.408498   -4.182484
     15          7           0       -7.805205   -2.138413   -1.331436
     16          6           0       -8.195507   -1.870546   -2.600766
     17          6           0       -8.028653   -3.132460   -3.353370
     18          6           0       -7.690129   -4.203890   -2.375855
     19          6           0       -7.849532   -3.499616   -1.129273
     20          6           0       -8.142109   -3.222491   -4.844266
     21          6           0       -7.297143   -5.638152   -2.538905
     22          8           0       -7.273147   -6.453004   -1.554012
     23          6           0       -7.022892   -6.091862   -3.914396
     24          7           0       -8.195885   -2.290625    1.666831
     25          6           0       -8.176121   -3.599926    1.394206
     26          6           0       -8.219359   -4.419757    2.649573
     27          6           0       -8.027108   -3.391437    3.855951
     28          6           0       -7.986328   -2.075672    3.040250
     29          6           0       -9.500791   -5.234656    2.872917
     30          6           0       -6.873111   -3.679879    4.848681
     31          6           0       -5.541862   -3.508426    4.151919
     32          7           0       -7.801236    0.614776    1.765370
     33          6           0       -7.920015    0.383060    3.143367
     34          6           0       -7.993553    1.701976    3.798441
     35          6           0       -7.928704    2.615045    2.747754
     36          6           0       -7.847893    1.910766    1.512540
     37          6           0       -8.163191    1.931879    5.192285
     38          6           0       -7.933701    4.021536    2.379494
     39          8           0       -7.890476    5.081871    3.005045
     40          6           0       -8.123439    4.125744    0.801848
     41          6           0       -7.096611    5.095484    0.283643
     42          8           0       -5.879566    4.823142    0.328331
     43          8           0       -7.713241    6.076355   -0.393262
     44          6           0       -6.748859    7.057031   -0.959298
     45          1           0       -9.212014   -0.718015   -4.053185
     46          1           0       -7.982849   -5.129920    0.184533
     47          1           0       -7.978506   -0.823604    4.755619
     48          1           0       -9.120469    3.847918   -2.166207
     49          1           0       -8.937293    1.854820   -4.151517
     50          1           0      -11.056297    2.560619   -2.157138
     51          1           0      -11.024428    0.841122   -2.655714
     52          1           0      -11.244885    2.053281   -3.885613
     53          1           0       -6.741903    2.535887   -3.497488
     54          1           0       -6.420790    3.725889   -2.173382
     55          1           0       -8.217564    4.908789   -4.033314
     56          1           0       -7.202461    3.904786   -4.997367
     57          1           0       -8.561319   -2.311573   -5.269750
     58          1           0       -8.884439   -3.990311   -5.061308
     59          1           0       -7.193596   -3.485262   -5.312890
     60          1           0       -7.909949   -5.935390   -4.528559
     61          1           0       -6.670616   -7.119099   -3.827585
     62          1           0       -6.239163   -5.466437   -4.342837
     63          1           0       -7.409941   -5.148384    2.668865
     64          1           0       -8.913309   -3.332457    4.488282
     65          1           0       -9.324083   -6.303382    2.996627
     66          1           0      -10.171867   -5.043541    2.036003
     67          1           0      -10.108444   -4.908813    3.716718
     68          1           0       -6.922013   -4.710753    5.197755
     69          1           0       -6.887327   -3.031914    5.725146
     70          1           0       -5.398391   -4.470316    3.660986
     71          1           0       -4.752593   -3.320412    4.880558
     72          1           0       -5.595874   -2.749127    3.371512
     73          1           0       -7.472058    2.732444    5.455723
     74          1           0       -7.962855    1.029621    5.769692
     75          1           0       -9.213165    2.222545    5.222681
     76          1           0       -9.140733    4.476504    0.630961
     77          1           0       -7.037669    8.041078   -0.589872
     78          1           0       -6.746898    6.902226   -2.038389
     79          1           0       -5.723964    6.992080   -0.592269
     80         12           0        8.095821   -0.653617   -0.034896
     81          6           0        7.360802    2.852200    0.184382
     82          6           0        6.743812   -0.588909   -3.165796
     83          6           0        8.316575   -3.818406   -0.087847
     84          6           0        8.321368   -0.682205    3.442742
     85          7           0        7.201427    0.980846   -1.226889
     86          6           0        7.032211    2.284407   -1.064245
     87          6           0        6.555066    3.034743   -2.336599
     88          6           0        5.865417    1.801004   -3.098911
     89          6           0        6.672694    0.655891   -2.490881
     90          6           0        4.404742    1.605109   -2.728236
     91          6           0        7.749257    3.626532   -3.164673
     92          6           0        7.346247    4.630657   -4.246827
     93          1           0        8.235202    5.757331   -4.516703
     94          7           0        8.062249   -1.917929   -1.564264
     95          6           0        7.488825   -1.721453   -2.770025
     96          6           0        7.723936   -2.956819   -3.533430
     97          6           0        8.339286   -3.960699   -2.623336
     98          6           0        8.242006   -3.262993   -1.356913
     99          6           0        7.445180   -3.070034   -5.004107
    100          6           0        8.908042   -5.328238   -2.852546
    101          8           0        9.172608   -6.119261   -1.879348
    102          6           0        9.058698   -5.749314   -4.253081
    103          7           0        8.081798   -2.093277    1.464939
    104          6           0        8.247136   -3.395700    1.174618
    105          6           0        8.477783   -4.208552    2.426195
    106          6           0        8.674520   -3.141674    3.601205
    107          6           0        8.423948   -1.841136    2.806730
    108          6           0        7.360066   -5.180517    2.803546
    109          6           0        9.974611   -3.254320    4.443668
    110          6           0       11.174349   -2.913453    3.589370
    111          7           0        8.068861    0.827670    1.537717
    112          6           0        8.152113    0.596915    2.928368
    113          6           0        7.974837    1.901951    3.597618
    114          6           0        7.776209    2.805023    2.542387
    115          6           0        7.806041    2.108593    1.304001
    116          6           0        7.961047    2.120509    5.004086
    117          6           0        7.537504    4.187450    2.195082
    118          8           0        7.501494    5.246459    2.820323
    119          6           0        7.131849    4.260039    0.659972
    120          6           0        7.937396    5.356161    0.017999
    121          8           0        9.173350    5.258295   -0.079123
    122          8           0        7.100994    6.233101   -0.566625
    123          6           0        7.853478    7.333111   -1.226603
    124          1           0        6.139012   -0.728329   -4.062267
    125          1           0        8.504024   -4.894140   -0.054246
    126          1           0        8.476091   -0.591843    4.520038
    127          1           0        5.825649    3.815402   -2.156878
    128          1           0        6.031324    1.856947   -4.171621
    129          1           0        4.102757    2.256998   -1.922015
    130          1           0        4.313074    0.568565   -2.431212
    131          1           0        3.772346    1.722163   -3.612949
    132          1           0        8.176501    2.834475   -3.793042
    133          1           0        8.480638    4.068272   -2.516161
    134          1           0        6.313053    4.977354   -4.123231
    135          1           0        7.343360    4.118248   -5.211935
    136          1           0        6.843065   -2.227242   -5.365448
    137          1           0        6.798925   -3.943856   -5.140721
    138          1           0        8.353067   -3.205976   -5.595661
    139          1           0        8.089546   -5.719627   -4.745344
    140          1           0        9.562818   -6.716920   -4.214705
    141          1           0        9.696549   -5.023613   -4.769905
    142          1           0        9.377325   -4.805523    2.339315
    143          1           0        7.873816   -3.210362    4.352202
    144          1           0        7.704436   -6.228098    2.893255
    145          1           0        6.574177   -5.100570    2.064275
    146          1           0        6.833905   -4.943334    3.726638
    147          1           0       10.117752   -4.283015    4.783469
    148          1           0        9.974617   -2.621203    5.324666
    149          1           0       11.384323   -3.854431    3.072101
    150          1           0       12.013645   -2.609255    4.211538
    151          1           0       10.916139   -2.168913    2.827379
    152          1           0        8.553294    3.007203    5.187189
    153          1           0        8.353230    1.261076    5.543843
    154          1           0        6.888853    2.255136    5.170043
    155          1           0        6.060361    4.458354    0.613290
    156          1           0        7.473100    8.272729   -0.814158
    157          1           0        7.726070    7.171996   -2.313602
    158          1           0        8.911302    7.418719   -1.007241
 ---------------------------------------------------------------------

 SCF Done:  E(RCAM-B3LYP) =  -4069.81167491     A.U. after   19 cycles

 Excitation energies and oscillator strengths:

 Excited State   1:      Singlet-A      1.6697 eV  742.54 nm  f=0.0148  <S**2>=0.000
     309 -> 315       -0.10469
     310 -> 316        0.13696
     311 -> 313       -0.41526
     312 -> 314        0.54650
 This state for optimization and/or second-order correction.
 Total Energy, E(TD-HF/TD-DFT) =  -4069.75031380
 Copying the excited state density for this state as the 1-particle RhoCI density.

 Excited State   2:      Singlet-A      1.6853 eV  735.69 nm  f=0.7416  <S**2>=0.000
     309 -> 315        0.14092
     310 -> 316        0.10645
     311 -> 313        0.54566
     312 -> 314        0.41471

 Excited State   3:      Singlet-A      2.1853 eV  567.34 nm  f=0.0587  <S**2>=0.000
     309 -> 313       -0.13914
     310 -> 314        0.62752
     312 -> 316       -0.26612

 Excited State   4:      Singlet-A      2.1928 eV  565.41 nm  f=0.1349  <S**2>=0.000
     309 -> 313        0.62551
     310 -> 314        0.13808
     311 -> 315       -0.27197

 Excited State   5:      Singlet-A      2.7589 eV  449.40 nm  f=0.0000  <S**2>=0.000
     312 -> 313        0.70709

 The electronic state is 1-A.
 Alpha  occ. eigenvalues --  -46.87850 -46.87585 -19.26328 -19.26261 -19.19077
 Alpha  occ. eigenvalues --  -19.19065 -19.18872 -19.18656 -19.18210 -19.17961
 Alpha  occ. eigenvalues --  -14.42505 -14.42422 -14.41500 -14.41285 -14.39457
 Alpha  occ. eigenvalues --  -14.39279 -14.38638 -14.38522 -10.39125 -10.39005
 Alpha  occ. eigenvalues --  -10.35506 -10.35335 -10.34430 -10.34138 -10.31722
 Alpha  occ. eigenvalues --  -10.31674 -10.31457 -10.31229 -10.30967 -10.30949
 Alpha  occ. eigenvalues --  -10.30620 -10.30557 -10.30322 -10.30283 -10.30259
 Alpha  occ. eigenvalues --  -10.30073 -10.29967 -10.29818 -10.29681 -10.29366
 Alpha  occ. eigenvalues --  -10.29328 -10.29308 -10.28813 -10.28639 -10.28623
 Alpha  occ. eigenvalues --  -10.28596 -10.28418 -10.28328 -10.28177 -10.28058
 Alpha  occ. eigenvalues --  -10.27925 -10.27842 -10.27781 -10.27638 -10.27596
 Alpha  occ. eigenvalues --  -10.27549 -10.27543 -10.27491 -10.27456 -10.27452
 Alpha  occ. eigenvalues --  -10.27418 -10.27406 -10.27396 -10.27309 -10.27203
 Alpha  occ. eigenvalues --  -10.26956 -10.26783 -10.26626 -10.26478 -10.26372
 Alpha  occ. eigenvalues --  -10.26288 -10.26222 -10.26080 -10.26068 -10.25922
 Alpha  occ. eigenvalues --  -10.25874 -10.25861 -10.25762 -10.25473 -10.25331
 Alpha  occ. eigenvalues --  -10.24881 -10.24838 -10.24794 -10.24728 -10.24676
 Alpha  occ. eigenvalues --  -10.24616  -3.16593  -3.16335  -1.91475  -1.91218
 Alpha  occ. eigenvalues --   -1.91061  -1.90903  -1.90806  -1.90643  -1.16677
 Alpha  occ. eigenvalues --   -1.16556  -1.08666  -1.08567  -1.07273  -1.06909
 Alpha  occ. eigenvalues --   -1.06861  -1.06687  -1.04635  -1.04419  -1.03812
 Alpha  occ. eigenvalues --   -1.03588  -1.03285  -1.02964  -1.02462  -1.02036
 Alpha  occ. eigenvalues --   -0.92022  -0.91906  -0.89566  -0.89424  -0.89249
 Alpha  occ. eigenvalues --   -0.89072  -0.88333  -0.88152  -0.87914  -0.87728
 Alpha  occ. eigenvalues --   -0.87713  -0.87610  -0.87332  -0.87059  -0.85042
 Alpha  occ. eigenvalues --   -0.84925  -0.83980  -0.83808  -0.83025  -0.82874
 Alpha  occ. eigenvalues --   -0.82705  -0.82581  -0.81634  -0.81517  -0.80648
 Alpha  occ. eigenvalues --   -0.80367  -0.78851  -0.78567  -0.77271  -0.77072
 Alpha  occ. eigenvalues --   -0.76988  -0.76823  -0.75975  -0.75758  -0.74943
 Alpha  occ. eigenvalues --   -0.74732  -0.72823  -0.72623  -0.71722  -0.71504
 Alpha  occ. eigenvalues --   -0.69951  -0.69693  -0.68931  -0.68754  -0.67693
 Alpha  occ. eigenvalues --   -0.67529  -0.67285  -0.67134  -0.65344  -0.65195
 Alpha  occ. eigenvalues --   -0.64903  -0.64695  -0.64672  -0.64578  -0.64316
 Alpha  occ. eigenvalues --   -0.64134  -0.62344  -0.62198  -0.60496  -0.60274
 Alpha  occ. eigenvalues --   -0.59861  -0.59718  -0.59037  -0.58917  -0.58553
 Alpha  occ. eigenvalues --   -0.58349  -0.57630  -0.57468  -0.57357  -0.57165
 Alpha  occ. eigenvalues --   -0.56360  -0.56130  -0.56028  -0.55809  -0.55574
 Alpha  occ. eigenvalues --   -0.55383  -0.55382  -0.55174  -0.54568  -0.54414
 Alpha  occ. eigenvalues --   -0.53956  -0.53835  -0.53351  -0.53279  -0.53157
 Alpha  occ. eigenvalues --   -0.53069  -0.52965  -0.52828  -0.52817  -0.52607
 Alpha  occ. eigenvalues --   -0.52481  -0.52338  -0.51954  -0.51800  -0.51677
 Alpha  occ. eigenvalues --   -0.51588  -0.51243  -0.51124  -0.50636  -0.50421
 Alpha  occ. eigenvalues --   -0.50079  -0.49976  -0.49909  -0.49801  -0.49572
 Alpha  occ. eigenvalues --   -0.49419  -0.49265  -0.49150  -0.49126  -0.49022
 Alpha  occ. eigenvalues --   -0.48641  -0.48511  -0.48494  -0.48479  -0.48305
 Alpha  occ. eigenvalues --   -0.48273  -0.47749  -0.47524  -0.47349  -0.47051
 Alpha  occ. eigenvalues --   -0.46847  -0.46637  -0.46616  -0.46481  -0.46408
 Alpha  occ. eigenvalues --   -0.46208  -0.46199  -0.46009  -0.45866  -0.45740
 Alpha  occ. eigenvalues --   -0.45247  -0.45138  -0.44624  -0.44564  -0.44436
 Alpha  occ. eigenvalues --   -0.44403  -0.44195  -0.44145  -0.44070  -0.44049
 Alpha  occ. eigenvalues --   -0.44011  -0.43869  -0.43541  -0.43475  -0.43440
 Alpha  occ. eigenvalues --   -0.43310  -0.43076  -0.42852  -0.42820  -0.42745
 Alpha  occ. eigenvalues --   -0.42699  -0.42488  -0.42058  -0.41895  -0.41753
 Alpha  occ. eigenvalues --   -0.41594  -0.41589  -0.41387  -0.41193  -0.40927
 Alpha  occ. eigenvalues --   -0.40912  -0.40884  -0.40660  -0.40630  -0.40618
 Alpha  occ. eigenvalues --   -0.40423  -0.40305  -0.40160  -0.39485  -0.39363
 Alpha  occ. eigenvalues --   -0.38518  -0.38282  -0.37815  -0.37585  -0.37369
 Alpha  occ. eigenvalues --   -0.37323  -0.37195  -0.37125  -0.36758  -0.36690
 Alpha  occ. eigenvalues --   -0.36241  -0.36143  -0.34337  -0.34177  -0.33817
 Alpha  occ. eigenvalues --   -0.33780  -0.33237  -0.33100  -0.31401  -0.31214
 Alpha  occ. eigenvalues --   -0.31087  -0.30898  -0.30069  -0.29865  -0.29502
 Alpha  occ. eigenvalues --   -0.29370  -0.29257  -0.29132  -0.24132  -0.23960
 Alpha  occ. eigenvalues --   -0.21179  -0.21042
 Alpha virt. eigenvalues --   -0.08826  -0.08717  -0.01802  -0.01611  -0.00113
 Alpha virt. eigenvalues --    0.00040   0.02155   0.02289   0.03058   0.03294
 Alpha virt. eigenvalues --    0.04660   0.04805   0.05052   0.05251   0.06108

 Mulliken charges:
               1
     1  Mg   0.838522
     2  C   -0.003048
     3  C   -0.094351
     4  C   -0.045839
     5  C   -0.063879
     6  N   -0.256755
     7  C   -0.052507
     8  C   -0.013970
     9  C   -0.086961
    10  C    0.046209
    11  C    0.104803
    12  C    0.053561
    13  C   -0.071652
    14  H    0.035758
    15  N   -0.433121
    16  C    0.168299
    17  C   -0.177348
    18  C   -0.004074
    19  C    0.148618
    20  C    0.110217
    21  C    0.012183
    22  O   -0.249521
    23  C    0.062561
    24  N   -0.341156
    25  C    0.041223
    26  C   -0.028189
    27  C   -0.024028
    28  C    0.074893
    29  C    0.076131
    30  C    0.035086
    31  C   -0.004515
    32  N   -0.310518
    33  C    0.080468
    34  C   -0.169507
    35  C    0.008484
    36  C    0.082983
    37  C    0.127260
    38  C    0.046273
    39  O   -0.188025
    40  C   -0.005371
    41  C    0.212967
    42  O   -0.257178
    43  O   -0.304776
    44  C    0.157619
    45  H   -0.017670
    46  H   -0.016780
    47  H   -0.041281
    48  H    0.001078
    49  H   -0.004258
    50  H    0.025582
    51  H    0.016529
    52  H    0.016648
    53  H    0.010806
    54  H    0.044054
    55  H    0.018131
    56  H    0.017700
    57  H    0.005768
    58  H    0.026896
    59  H    0.039073
    60  H    0.037396
    61  H    0.035678
    62  H    0.031076
    63  H    0.016569
    64  H    0.009595
    65  H    0.023283
    66  H    0.012551
    67  H    0.004856
    68  H    0.006471
    69  H    0.004885
    70  H    0.008755
    71  H    0.018251
    72  H    0.028850
    73  H    0.047897
    74  H    0.009232
    75  H    0.046134
    76  H    0.035248
    77  H    0.043233
    78  H    0.046155
    79  H    0.053782
    80  Mg   0.837954
    81  C   -0.016762
    82  C   -0.087815
    83  C   -0.045551
    84  C   -0.064824
    85  N   -0.254569
    86  C   -0.049585
    87  C   -0.015137
    88  C   -0.090582
    89  C    0.045843
    90  C    0.114364
    91  C    0.062567
    92  C   -0.077754
    93  H    0.034638
    94  N   -0.423470
    95  C    0.162871
    96  C   -0.174764
    97  C   -0.007924
    98  C    0.152079
    99  C    0.099456
   100  C    0.015466
   101  O   -0.253302
   102  C    0.061256
   103  N   -0.350044
   104  C    0.037552
   105  C   -0.019838
   106  C   -0.034818
   107  C    0.088987
   108  C    0.073661
   109  C    0.034723
   110  C   -0.007637
   111  N   -0.324184
   112  C    0.078580
   113  C   -0.162998
   114  C    0.002499
   115  C    0.096174
   116  C    0.131428
   117  C    0.042655
   118  O   -0.187472
   119  C    0.000799
   120  C    0.211189
   121  O   -0.251240
   122  O   -0.305370
   123  C    0.152110
   124  H   -0.019948
   125  H   -0.015711
   126  H   -0.040442
   127  H   -0.000209
   128  H   -0.004736
   129  H    0.023441
   130  H    0.014485
   131  H    0.015948
   132  H    0.013724
   133  H    0.037645
   134  H    0.020954
   135  H    0.019284
   136  H    0.008519
   137  H    0.025862
   138  H    0.039525
   139  H    0.038095
   140  H    0.036211
   141  H    0.033776
   142  H    0.014245
   143  H    0.012506
   144  H    0.024961
   145  H    0.011788
   146  H    0.005695
   147  H    0.006149
   148  H    0.003656
   149  H    0.010845
   150  H    0.017824
   151  H    0.030145
   152  H    0.045979
   153  H    0.008354
   154  H    0.047556
   155  H    0.035905
   156  H    0.044070
   157  H    0.049294
   158  H    0.053395
 Sum of Mulliken charges =  -0.00000

 Dipole moment (field-independent basis, Debye):
    X=             -4.3892    Y=             -2.8361    Z=             -7.2526  Tot=              8.9392
 Quadrupole moment (field-independent basis, Debye-Ang):
   XX=           -519.4361   YY=           -554.4974   ZZ=           -446.9044
   XY=             -7.1735   XZ=             11.9097   YZ=            -45.6255

 Normal termination of Gaussian 16 at Sun Sep 12 05:54:07 2021.
