 Gaussian 16, Revision A.03,
 Gaussian 16:  ES64L-G16RevA.03 25-Dec-2016

 -----------------------------------
 #p cam-b3lyp/Def2SVP td=(nstates=5)
 -----------------------------------

 --------------------------------
 TDDFT excited states in gaussian
 --------------------------------
 Symbolic Z-matrix:
 Charge =  0 Multiplicity = 1

                         Standard orientation:
 ---------------------------------------------------------------------
 Center     Atomic      Atomic             Coordinates (Angstroms)
 Number     Number       Type             X           Y           Z
 ---------------------------------------------------------------------
      1         12           0       -4.443037   -0.599812    0.128427
      2          6           0       -4.497148    2.963736    0.460706
      3          6           0       -5.338642   -0.160195   -3.134653
      4          6           0       -4.844444   -3.739187   -0.071118
      5          6           0       -4.671841   -0.779419    3.601329
      6          7           0       -4.836445    1.220105   -1.068978
      7          6           0       -4.764361    2.527399   -0.838853
      8          6           0       -4.924925    3.391006   -2.125622
      9          6           0       -5.731049    2.352035   -3.027120
     10          6           0       -5.247436    1.057641   -2.397369
     11          6           0       -7.244157    2.444899   -2.858649
     12          6           0       -3.546337    3.759686   -2.770061
     13          6           0       -3.595377    4.862347   -3.831705
     14          1           0       -2.481970    5.794519   -3.925133
     15          7           0       -4.529116   -1.782550   -1.451627
     16          6           0       -4.898950   -1.431587   -2.706751
     17          6           0       -4.798537   -2.662275   -3.520388
     18          6           0       -4.523315   -3.797429   -2.596389
     19          6           0       -4.648907   -3.147538   -1.316840
     20          6           0       -4.910683   -2.672583   -5.014064
     21          6           0       -4.208976   -5.241396   -2.829372
     22          8           0       -4.233753   -6.103728   -1.885792
     23          6           0       -3.954432   -5.641391   -4.225170
     24          7           0       -4.939784   -2.060135    1.534960
     25          6           0       -4.990795   -3.353565    1.198182
     26          6           0       -5.084081   -4.230451    2.411569
     27          6           0       -4.840603   -3.274768    3.667412
     28          6           0       -4.724347   -1.924761    2.917588
     29          6           0       -6.409205   -4.983602    2.592733
     30          6           0       -3.708234   -3.674679    4.646304
     31          6           0       -2.366752   -3.542707    3.960661
     32          7           0       -4.386678    0.810800    1.777076
     33          6           0       -4.523613    0.518560    3.141817
     34          6           0       -4.527325    1.805750    3.860980
     35          6           0       -4.408179    2.764377    2.856648
     36          6           0       -4.361107    2.118247    1.588345
     37          6           0       -4.689772    1.975892    5.264225
     38          6           0       -4.334475    4.185402    2.558129
     39          8           0       -4.235673    5.209743    3.235224
     40          6           0       -4.511774    4.377262    0.987275
     41          6           0       -3.431167    5.313324    0.518889
     42          8           0       -2.231096    4.972570    0.551772
     43          8           0       -3.990270    6.358700   -0.109709
     44          6           0       -2.971220    7.311452   -0.625416
     45          1           0       -5.844740   -0.154925   -4.102010
     46          1           0       -4.876854   -4.830604   -0.085142
     47          1           0       -4.654814   -0.760797    4.692575
     48          1           0       -5.510438    4.300844   -1.992227
     49          1           0       -5.428831    2.400619   -4.073077
     50          1           0       -7.514020    3.123108   -2.049250
     51          1           0       -7.574536    1.431032   -2.631900
     52          1           0       -7.723118    2.712434   -3.800880
     53          1           0       -3.202056    2.926920   -3.383277
     54          1           0       -2.821519    4.030971   -2.001706
     55          1           0       -4.543065    5.400866   -3.803556
     56          1           0       -3.580672    4.391106   -4.814515
     57          1           0       -5.277530   -1.720182   -5.394722
     58          1           0       -5.693143   -3.386809   -5.269691
     59          1           0       -3.976119   -2.963803   -5.493765
     60          1           0       -4.829053   -5.406373   -4.832092
     61          1           0       -3.659422   -6.689476   -4.188595
     62          1           0       -3.135819   -5.039742   -4.621200
     63          1           0       -4.315957   -5.002573    2.396046
     64          1           0       -5.724803   -3.198255    4.300666
     65          1           0       -6.291924   -6.065216    2.663877
     66          1           0       -7.065362   -4.714976    1.765334
     67          1           0       -7.001495   -4.666664    3.450731
     68          1           0       -3.815062   -4.717203    4.944094
     69          1           0       -3.690440   -3.070751    5.553610
     70          1           0       -2.274287   -4.485755    3.423127
     71          1           0       -1.571330   -3.434421    4.698760
     72          1           0       -2.375827   -2.744170    3.218541
     73          1           0       -3.956823    2.723312    5.567735
     74          1           0       -4.541613    1.036706    5.796749
     75          1           0       -5.722326    2.322039    5.307467
     76          1           0       -5.507579    4.791430    0.832485
     77          1           0       -3.207091    8.290561   -0.208349
     78          1           0       -2.973357    7.209968   -1.710820
     79          1           0       -1.952939    7.172262   -0.260628
     80         12           0        4.552218   -0.962591    0.017819
     81          6           0        4.492791    2.624134    0.122499
     82          6           0        3.645972   -0.732968   -3.262508
     83          6           0        4.156870   -4.110769    0.009550
     84          6           0        4.326010   -0.929384    3.495386
     85          7           0        4.151652    0.776901   -1.288316
     86          6           0        4.220530    2.092928   -1.155440
     87          6           0        4.063649    2.882480   -2.482680
     88          6           0        3.248898    1.782281   -3.322090
     89          6           0        3.733996    0.521962   -2.608682
     90          6           0        1.743124    1.882648   -3.143438
     91          6           0        5.445261    3.207975   -3.151427
     92          6           0        5.385892    4.237879   -4.281692
     93          1           0        6.504224    5.163604   -4.439269
     94          7           0        4.466685   -2.242220   -1.496706
     95          6           0        4.099801   -1.975367   -2.767723
     96          6           0        4.184324   -3.255289   -3.488021
     97          6           0        4.472047   -4.331036   -2.500748
     98          6           0        4.353153   -3.589860   -1.261144
     99          6           0        4.077217   -3.356923   -4.981872
    100          6           0        4.787728   -5.788789   -2.647374
    101          8           0        4.767763   -6.586291   -1.644178
    102          6           0        5.029401   -6.272963   -4.014368
    103          7           0        4.068248   -2.326780    1.510167
    104          6           0        4.011981   -3.644802    1.250194
    105          6           0        3.919536   -4.448803    2.525111
    106          6           0        4.170135   -3.404917    3.710476
    107          6           0        4.280396   -2.104986    2.883784
    108          6           0        2.595248   -5.175487    2.758762
    109          6           0        5.306096   -3.740443    4.715301
    110          6           0        6.647520   -3.662906    4.022516
    111          7           0        4.615699    0.542810    1.566305
    112          6           0        4.475737    0.342316    2.957097
    113          6           0        4.472964    1.676608    3.591213
    114          6           0        4.589289    2.568835    2.514700
    115          6           0        4.639266    1.842742    1.294129
    116          6           0        4.324192    1.935960    4.982874
    117          6           0        4.670459    3.960260    2.132531
    118          8           0        4.762707    5.024717    2.742577
    119          6           0        4.484286    4.063381    0.557381
    120          6           0        5.562624    4.963999    0.020180
    121          8           0        6.757983    4.627026    0.084996
    122          8           0        4.993995    5.967604   -0.672495
    123          6           0        6.023761    6.881705   -1.234467
    124          1           0        3.143985   -0.780215   -4.229294
    125          1           0        4.125291   -5.200965    0.072516
    126          1           0        4.357796   -0.838121    4.583200
    127          1           0        3.483591    3.794060   -2.403117
    128          1           0        3.556894    1.772902   -4.364400
    129          1           0        1.474441    2.604465   -2.386519
    130          1           0        1.414388    0.892585   -2.855767
    131          1           0        1.262789    2.092611   -4.103404
    132          1           0        5.785961    2.329910   -3.715039
    133          1           0        6.160666    3.519898   -2.415537
    134          1           0        4.432901    4.780649   -4.295130
    135          1           0        5.405342    3.706801   -5.236462
    136          1           0        3.701545   -2.425211   -5.422542
    137          1           0        3.295641   -4.093621   -5.197028
    138          1           0        5.008608   -3.682926   -5.449740
    139          1           0        4.154839   -6.072002   -4.628560
    140          1           0        5.326304   -7.317944   -3.906048
    141          1           0        5.856620   -5.699591   -4.447469
    142          1           0        4.689117   -5.210197    2.558815
    143          1           0        3.282947   -3.295460    4.351365
    144          1           0        2.714695   -6.266595    2.897618
    145          1           0        1.939982   -4.967963    1.923241
    146          1           0        2.012915   -4.813723    3.604467
    147          1           0        5.201863   -4.766736    5.075864
    148          1           0        5.318018   -3.092957    5.585709
    149          1           0        6.733821   -4.641844    3.541545
    150          1           0        7.444408   -3.507468    4.746979
    151          1           0        6.637888   -2.905857    3.229785
    152          1           0        5.049861    2.697083    5.237047
    153          1           0        4.469858    1.033732    5.573241
    154          1           0        3.286583    2.279507    5.007417
    155          1           0        3.486690    4.462851    0.370868
    156          1           0        5.784725    7.888979   -0.879564
    157          1           0        6.005978    6.715509   -2.327999
    158          1           0        7.041563    6.768538   -0.879900
 ---------------------------------------------------------------------

 SCF Done:  E(RCAM-B3LYP) =  -4069.81123029     A.U. after   19 cycles

 Excitation energies and oscillator strengths:

 Excited State   1:      Singlet-A      1.6475 eV  752.55 nm  f=0.0024  <S**2>=0.000
     309 -> 315       -0.11438
     310 -> 316        0.12129
     311 -> 313       -0.46959
     312 -> 314        0.50242
 This state for optimization and/or second-order correction.
 Total Energy, E(TD-HF/TD-DFT) =  -4069.75068498
 Copying the excited state density for this state as the 1-particle RhoCI density.

 Excited State   2:      Singlet-A      1.7046 eV  727.36 nm  f=0.6942  <S**2>=0.000
     309 -> 315        0.13298
     310 -> 316        0.12330
     311 -> 313        0.49979
     312 -> 314        0.46719

 Excited State   3:      Singlet-A      2.1804 eV  568.62 nm  f=0.0129  <S**2>=0.000
     309 -> 313       -0.32322
     310 -> 314        0.55833
     311 -> 315        0.13356
     312 -> 316       -0.23236

 Excited State   4:      Singlet-A      2.1961 eV  564.57 nm  f=0.1612  <S**2>=0.000
     309 -> 313        0.55332
     310 -> 314        0.31849
     311 -> 315       -0.24432
     312 -> 316       -0.14196

 Excited State   5:      Singlet-A      2.3479 eV  528.07 nm  f=0.0000  <S**2>=0.000
     312 -> 313        0.70709

 The electronic state is 1-A.
 Alpha  occ. eigenvalues --  -46.87898 -46.87431 -19.26347 -19.26108 -19.19088
 Alpha  occ. eigenvalues --  -19.18915 -19.18895 -19.18522 -19.18227 -19.17745
 Alpha  occ. eigenvalues --  -14.42561 -14.42271 -14.41550 -14.41134 -14.39503
 Alpha  occ. eigenvalues --  -14.39127 -14.38681 -14.38355 -10.39150 -10.38834
 Alpha  occ. eigenvalues --  -10.35531 -10.35205 -10.34449 -10.33917 -10.31727
 Alpha  occ. eigenvalues --  -10.31564 -10.31514 -10.31067 -10.31027 -10.30802
 Alpha  occ. eigenvalues --  -10.30670 -10.30596 -10.30311 -10.30156 -10.30116
 Alpha  occ. eigenvalues --  -10.30008 -10.29948 -10.29724 -10.29657 -10.29355
 Alpha  occ. eigenvalues --  -10.29226 -10.29167 -10.28902 -10.28771 -10.28533
 Alpha  occ. eigenvalues --  -10.28497 -10.28462 -10.28256 -10.28161 -10.27925
 Alpha  occ. eigenvalues --  -10.27883 -10.27839 -10.27758 -10.27682 -10.27628
 Alpha  occ. eigenvalues --  -10.27601 -10.27534 -10.27504 -10.27459 -10.27349
 Alpha  occ. eigenvalues --  -10.27348 -10.27243 -10.27240 -10.27234 -10.27188
 Alpha  occ. eigenvalues --  -10.26922 -10.26715 -10.26523 -10.26515 -10.26352
 Alpha  occ. eigenvalues --  -10.26304 -10.26280 -10.26121 -10.25996 -10.25904
 Alpha  occ. eigenvalues --  -10.25767 -10.25719 -10.25560 -10.25506 -10.25211
 Alpha  occ. eigenvalues --  -10.24918 -10.24880 -10.24834 -10.24614 -10.24590
 Alpha  occ. eigenvalues --  -10.24457  -3.16641  -3.16181  -1.91522  -1.91109
 Alpha  occ. eigenvalues --   -1.91064  -1.90951  -1.90653  -1.90489  -1.16696
 Alpha  occ. eigenvalues --   -1.16400  -1.08681  -1.08344  -1.07293  -1.06777
 Alpha  occ. eigenvalues --   -1.06709  -1.06697  -1.04691  -1.04264  -1.03862
 Alpha  occ. eigenvalues --   -1.03435  -1.03330  -1.02810  -1.02509  -1.01877
 Alpha  occ. eigenvalues --   -0.92065  -0.91725  -0.89621  -0.89332  -0.89288
 Alpha  occ. eigenvalues --   -0.88937  -0.88385  -0.88024  -0.87955  -0.87791
 Alpha  occ. eigenvalues --   -0.87537  -0.87468  -0.87381  -0.86933  -0.85119
 Alpha  occ. eigenvalues --   -0.84793  -0.84035  -0.83682  -0.83071  -0.82768
 Alpha  occ. eigenvalues --   -0.82761  -0.82448  -0.81671  -0.81365  -0.80694
 Alpha  occ. eigenvalues --   -0.80220  -0.78901  -0.78426  -0.77336  -0.77052
 Alpha  occ. eigenvalues --   -0.76941  -0.76690  -0.76028  -0.75611  -0.74991
 Alpha  occ. eigenvalues --   -0.74597  -0.72872  -0.72468  -0.71772  -0.71354
 Alpha  occ. eigenvalues --   -0.70017  -0.69582  -0.68999  -0.68620  -0.67738
 Alpha  occ. eigenvalues --   -0.67378  -0.67369  -0.67016  -0.65416  -0.65052
 Alpha  occ. eigenvalues --   -0.64950  -0.64726  -0.64548  -0.64436  -0.64370
 Alpha  occ. eigenvalues --   -0.64002  -0.62375  -0.62050  -0.60544  -0.60140
 Alpha  occ. eigenvalues --   -0.59930  -0.59573  -0.59085  -0.58765  -0.58598
 Alpha  occ. eigenvalues --   -0.58193  -0.57663  -0.57400  -0.57274  -0.57015
 Alpha  occ. eigenvalues --   -0.56406  -0.56068  -0.55982  -0.55668  -0.55619
 Alpha  occ. eigenvalues --   -0.55428  -0.55243  -0.55035  -0.54610  -0.54278
 Alpha  occ. eigenvalues --   -0.54038  -0.53704  -0.53398  -0.53340  -0.53019
 Alpha  occ. eigenvalues --   -0.53012  -0.52931  -0.52877  -0.52689  -0.52549
 Alpha  occ. eigenvalues --   -0.52493  -0.52229  -0.51989  -0.51750  -0.51608
 Alpha  occ. eigenvalues --   -0.51460  -0.51290  -0.50967  -0.50694  -0.50318
 Alpha  occ. eigenvalues --   -0.50144  -0.50029  -0.49783  -0.49675  -0.49630
 Alpha  occ. eigenvalues --   -0.49311  -0.49285  -0.49212  -0.48972  -0.48863
 Alpha  occ. eigenvalues --   -0.48684  -0.48552  -0.48527  -0.48329  -0.48174
 Alpha  occ. eigenvalues --   -0.48129  -0.47805  -0.47397  -0.47395  -0.46927
 Alpha  occ. eigenvalues --   -0.46906  -0.46692  -0.46502  -0.46456  -0.46356
 Alpha  occ. eigenvalues --   -0.46249  -0.46063  -0.45904  -0.45854  -0.45576
 Alpha  occ. eigenvalues --   -0.45296  -0.45001  -0.44664  -0.44629  -0.44293
 Alpha  occ. eigenvalues --   -0.44262  -0.44250  -0.44214  -0.44108  -0.43906
 Alpha  occ. eigenvalues --   -0.43882  -0.43718  -0.43578  -0.43503  -0.43333
 Alpha  occ. eigenvalues --   -0.43167  -0.43123  -0.42789  -0.42739  -0.42704
 Alpha  occ. eigenvalues --   -0.42658  -0.42363  -0.42124  -0.41798  -0.41770
 Alpha  occ. eigenvalues --   -0.41670  -0.41416  -0.41260  -0.41244  -0.41003
 Alpha  occ. eigenvalues --   -0.40933  -0.40767  -0.40675  -0.40539  -0.40508
 Alpha  occ. eigenvalues --   -0.40411  -0.40292  -0.40048  -0.39558  -0.39255
 Alpha  occ. eigenvalues --   -0.38579  -0.38159  -0.37912  -0.37472  -0.37425
 Alpha  occ. eigenvalues --   -0.37393  -0.37062  -0.36984  -0.36791  -0.36544
 Alpha  occ. eigenvalues --   -0.36287  -0.36005  -0.34385  -0.34022  -0.33844
 Alpha  occ. eigenvalues --   -0.33616  -0.33283  -0.32946  -0.31425  -0.31134
 Alpha  occ. eigenvalues --   -0.31080  -0.30740  -0.30086  -0.29646  -0.29544
 Alpha  occ. eigenvalues --   -0.29407  -0.29107  -0.28948  -0.24181  -0.23798
 Alpha  occ. eigenvalues --   -0.21229  -0.20889
 Alpha virt. eigenvalues --   -0.08871  -0.08557  -0.01849  -0.01462  -0.00155
 Alpha virt. eigenvalues --    0.00188   0.02122   0.02469   0.02845   0.03497
 Alpha virt. eigenvalues --    0.04587   0.04943   0.05025   0.05422   0.05989

 Mulliken charges:
               1
     1  Mg   0.838650
     2  C   -0.003234
     3  C   -0.095155
     4  C   -0.045363
     5  C   -0.063892
     6  N   -0.256658
     7  C   -0.052881
     8  C   -0.013758
     9  C   -0.086847
    10  C    0.045941
    11  C    0.104796
    12  C    0.053703
    13  C   -0.071359
    14  H    0.034816
    15  N   -0.433163
    16  C    0.168168
    17  C   -0.177847
    18  C   -0.003887
    19  C    0.148869
    20  C    0.110335
    21  C    0.012827
    22  O   -0.248714
    23  C    0.062598
    24  N   -0.341058
    25  C    0.041060
    26  C   -0.028344
    27  C   -0.024005
    28  C    0.074852
    29  C    0.076043
    30  C    0.035120
    31  C   -0.005436
    32  N   -0.310622
    33  C    0.080644
    34  C   -0.169420
    35  C    0.008835
    36  C    0.083187
    37  C    0.127164
    38  C    0.046681
    39  O   -0.187060
    40  C   -0.005599
    41  C    0.213445
    42  O   -0.257365
    43  O   -0.304872
    44  C    0.157065
    45  H   -0.017824
    46  H   -0.016401
    47  H   -0.041352
    48  H    0.001425
    49  H   -0.004839
    50  H    0.025791
    51  H    0.016721
    52  H    0.016626
    53  H    0.009610
    54  H    0.043533
    55  H    0.018942
    56  H    0.017087
    57  H    0.005414
    58  H    0.027169
    59  H    0.037963
    60  H    0.037183
    61  H    0.036366
    62  H    0.030156
    63  H    0.016952
    64  H    0.009755
    65  H    0.023562
    66  H    0.012625
    67  H    0.004861
    68  H    0.006584
    69  H    0.004667
    70  H    0.009717
    71  H    0.016548
    72  H    0.029873
    73  H    0.048393
    74  H    0.008953
    75  H    0.046295
    76  H    0.035321
    77  H    0.043930
    78  H    0.045372
    79  H    0.054844
    80  Mg   0.837773
    81  C   -0.015654
    82  C   -0.088156
    83  C   -0.045337
    84  C   -0.065005
    85  N   -0.254504
    86  C   -0.048362
    87  C   -0.015129
    88  C   -0.090963
    89  C    0.045984
    90  C    0.113137
    91  C    0.062666
    92  C   -0.077209
    93  H    0.034157
    94  N   -0.423381
    95  C    0.162716
    96  C   -0.175637
    97  C   -0.007986
    98  C    0.151672
    99  C    0.099925
   100  C    0.015340
   101  O   -0.253309
   102  C    0.061439
   103  N   -0.350002
   104  C    0.037201
   105  C   -0.019752
   106  C   -0.034656
   107  C    0.089314
   108  C    0.073433
   109  C    0.034816
   110  C   -0.007541
   111  N   -0.324630
   112  C    0.079304
   113  C   -0.162204
   114  C    0.004181
   115  C    0.096055
   116  C    0.130776
   117  C    0.044770
   118  O   -0.186603
   119  C   -0.000370
   120  C    0.210650
   121  O   -0.251888
   122  O   -0.304901
   123  C    0.152315
   124  H   -0.021598
   125  H   -0.015771
   126  H   -0.040826
   127  H    0.000619
   128  H   -0.005966
   129  H    0.029395
   130  H    0.013660
   131  H    0.012651
   132  H    0.013434
   133  H    0.037692
   134  H    0.020297
   135  H    0.018698
   136  H    0.007470
   137  H    0.024314
   138  H    0.039115
   139  H    0.037424
   140  H    0.035979
   141  H    0.033465
   142  H    0.013963
   143  H    0.011543
   144  H    0.024639
   145  H    0.013136
   146  H    0.004690
   147  H    0.005645
   148  H    0.003358
   149  H    0.010777
   150  H    0.017550
   151  H    0.030425
   152  H    0.045687
   153  H    0.007347
   154  H    0.050249
   155  H    0.041054
   156  H    0.043617
   157  H    0.048602
   158  H    0.053145
 Sum of Mulliken charges =  -0.00000

 Dipole moment (field-independent basis, Debye):
    X=             -4.3368    Y=             -1.8813    Z=             -7.2287  Tot=              8.6372
 Quadrupole moment (field-independent basis, Debye-Ang):
   XX=           -518.7249   YY=           -550.6765   ZZ=           -448.7636
   XY=             -7.2077   XZ=             -0.3393   YZ=            -47.9153

 Normal termination of Gaussian 16 at Fri Sep 10 04:27:09 2021.
