 Gaussian 16, Revision A.03,
 Gaussian 16:  ES64L-G16RevA.03 25-Dec-2016

 -----------------------------------
 #p cam-b3lyp/Def2SVP td=(nstates=5)
 -----------------------------------

 --------------------------------
 TDDFT excited states in gaussian
 --------------------------------
 Symbolic Z-matrix:
 Charge =  0 Multiplicity = 1

                         Standard orientation:
 ---------------------------------------------------------------------
 Center     Atomic      Atomic             Coordinates (Angstroms)
 Number     Number       Type             X           Y           Z
 ---------------------------------------------------------------------
      1         12           0       16.142745    0.500543    0.628106
      2          6           0       16.402300   -2.472965   -1.347520
      3          6           0       17.096570    2.246954   -2.143777
      4          6           0       16.361391    3.079025    2.461203
      5          6           0       16.324393   -1.535822    3.450495
      6          7           0       16.654680   -0.143739   -1.427002
      7          6           0       16.656999   -1.306249   -2.071777
      8          6           0       16.881347   -1.160966   -3.606683
      9          6           0       17.634504    0.244238   -3.619107
     10          6           0       17.069265    0.834104   -2.339073
     11          6           0       19.148614    0.125237   -3.478359
     12          6           0       15.533551   -1.095614   -4.400979
     13          6           0       15.658247   -1.281899   -5.915939
     14          1           0       14.602465   -1.990297   -6.623643
     15          7           0       16.175778    2.416115    0.146086
     16          6           0       16.578628    2.947657   -1.033092
     17          6           0       16.414696    4.411035   -0.897699
     18          6           0       16.063750    4.700305    0.520488
     19          6           0       16.213892    3.395720    1.112850
     20          6           0       16.541614    5.363060   -2.047173
     21          6           0       15.667708    5.955633    1.231427
     22          8           0       15.632025    6.032491    2.507121
     23          6           0       15.404711    7.134305    0.386083
     24          7           0       16.538292    0.768848    2.660146
     25          6           0       16.516863    1.986866    3.212376
     26          6           0       16.545900    1.907967    4.709997
     27          6           0       16.345811    0.366480    5.075426
     28          6           0       16.316760   -0.214447    3.640173
     29          6           0       17.822609    2.430452    5.383076
     30          6           0       15.181790    0.016940    6.036308
     31          6           0       13.857580    0.293431    5.360202
     32          7           0       16.152028   -1.633932    1.021775
     33          6           0       16.257348   -2.260236    2.272105
     34          6           0       16.329049   -3.711824    2.023470
     35          6           0       16.276812   -3.828907    0.635879
     36          6           0       16.205153   -2.531251    0.053432
     37          6           0       16.486554   -4.720328    3.014705
     38          6           0       16.289697   -4.747216   -0.491240
     39          8           0       16.244088   -5.972277   -0.612233
     40          6           0       16.494315   -3.901051   -1.824643
     41          6           0       15.475412   -4.375308   -2.824757
     42          8           0       14.257144   -4.178302   -2.639349
     43          8           0       16.101390   -4.769625   -3.944225
     44          6           0       15.145407   -5.224669   -4.988823
     45          1           0       17.612166    2.871168   -2.876210
     46          1           0       16.329877    3.936443    3.136687
     47          1           0       16.297109   -2.237426    4.286234
     48          1           0       17.517793   -1.928382   -4.047630
     49          1           0       17.346579    0.852711   -4.476184
     50          1           0       19.449336   -0.899938   -3.262711
     51          1           0       19.416578    0.782616   -2.650990
     52          1           0       19.652242    0.528974   -4.357070
     53          1           0       15.147434   -0.076769   -4.370494
     54          1           0       14.817920   -1.817886   -4.006618
     55          1           0       16.635544   -1.680690   -6.189373
     56          1           0       15.626179   -0.298354   -6.384778
     57          1           0       16.967638    4.877443   -2.924228
     58          1           0       17.283460    6.108916   -1.762442
     59          1           0       15.596632    5.854433   -2.279321
     60          1           0       16.297892    7.367799   -0.193794
     61          1           0       15.048372    7.913467    1.058972
     62          1           0       14.626969    6.884383   -0.336139
     63          1           0       15.734017    2.487184    5.147923
     64          1           0       17.226325   -0.056767    5.559400
     65          1           0       17.641356    3.220837    6.111872
     66          1           0       18.501984    2.768022    4.600908
     67          1           0       18.423489    1.667769    5.877723
     68          1           0       15.224177    0.643148    6.926820
     69          1           0       15.189987   -1.023389    6.361729
     70          1           0       13.715574    1.360117    5.530050
     71          1           0       13.062226   -0.286019    5.830161
     72          1           0       13.921213    0.140688    4.282656
     73          1           0       15.795579   -5.520143    2.748588
     74          1           0       16.278020   -4.331968    4.011346
     75          1           0       17.537126   -4.975950    2.877545
     76          1           0       17.514256   -4.086338   -2.160068
     77          1           0       15.433936   -6.237968   -5.268484
     78          1           0       15.152907   -4.462990   -5.768691
     79          1           0       14.116967   -5.385846   -4.663750
     80         12           0      -15.599905    0.497047   -0.265980
     81          6           0      -18.162271   -1.836877    0.664669
     82          6           0      -18.090970    2.696980   -1.033753
     83          6           0      -13.393997    2.405944   -1.513982
     84          6           0      -13.419166   -2.209853   -0.516606
     85          7           0      -17.803040    0.335087   -0.155412
     86          6           0      -18.662257   -0.577783    0.272070
     87          6           0      -20.132870   -0.087918    0.355172
     88          6           0      -20.051410    1.101157   -0.721089
     89          6           0      -18.563755    1.428953   -0.611056
     90          6           0      -20.336458    0.646582   -2.142859
     91          6           0      -20.503276    0.452259    1.781012
     92          6           0      -22.000390    0.658328    2.021710
     93          1           0      -22.534733    0.389064    3.353794
     94          7           0      -15.666481    2.436258   -0.682601
     95          6           0      -16.764907    3.174685   -0.946163
     96          6           0      -16.279433    4.538266   -1.209092
     97          6           0      -14.791892    4.508536   -1.241217
     98          6           0      -14.555085    3.080814   -1.166208
     99          6           0      -17.196916    5.721035   -1.321875
    100          6           0      -13.754503    5.585881   -1.337990
    101          8           0      -12.526611    5.317672   -1.589321
    102          6           0      -14.234712    6.970645   -1.222571
    103          7           0      -13.742371    0.132159   -1.125509
    104          6           0      -12.961357    1.145199   -1.539869
    105          6           0      -11.568351    0.661865   -1.865951
    106          6           0      -11.507212   -0.851194   -1.351678
    107          6           0      -12.967674   -1.016403   -0.877172
    108          6           0      -11.174753    0.713701   -3.342025
    109          6           0      -10.363885   -1.213361   -0.364608
    110          6           0      -10.577677   -0.506549    0.954529
    111          7           0      -15.680866   -1.613024    0.191286
    112          6           0      -14.663494   -2.570254   -0.015460
    113          6           0      -15.226713   -3.888352    0.342078
    114          6           0      -16.550283   -3.607225    0.713035
    115          6           0      -16.800746   -2.215142    0.575723
    116          6           0      -14.546248   -5.135455    0.253657
    117          6           0      -17.795695   -4.173047    1.179399
    118          8           0      -18.156941   -5.287860    1.554152
    119          6           0      -18.932477   -3.069930    1.048077
    120          6           0      -19.703274   -3.041253    2.339413
    121          8           0      -19.155300   -2.676729    3.394620
    122          8           0      -21.008339   -3.238394    2.078054
    123          6           0      -21.815612   -3.207550    3.326730
    124          1           0      -18.792391    3.377340   -1.517486
    125          1           0      -12.564522    3.034741   -1.845727
    126          1           0      -12.773712   -3.089772   -0.474132
    127          1           0      -20.872694   -0.817378    0.048056
    128          1           0      -20.653188    1.952917   -0.414941
    129          1           0      -20.430992   -0.426978   -2.211281
    130          1           0      -19.499039    0.991166   -2.735340
    131          1           0      -21.216434    1.164492   -2.534946
    132          1           0      -20.153754    1.488639    1.873211
    133          1           0      -20.098233   -0.181666    2.545681
    134          1           0      -22.612502    0.167100    1.255585
    135          1           0      -22.227513    1.720852    1.905592
    136          1           0      -18.244173    5.409787   -1.420664
    137          1           0      -16.968846    6.213025   -2.273607
    138          1           0      -17.059652    6.439433   -0.510869
    139          1           0      -14.969754    7.163987   -2.000256
    140          1           0      -13.337361    7.592435   -1.226676
    141          1           0      -14.753874    7.082160   -0.264105
    142          1           0      -10.823468    1.243315   -1.336636
    143          1           0      -11.364684   -1.558336   -2.182022
    144          1           0      -10.262559    1.310958   -3.529788
    145          1           0      -12.010349    1.108697   -3.904434
    146          1           0      -11.017244   -0.255453   -3.812281
    147          1           0       -9.403931   -0.863452   -0.752193
    148          1           0      -10.269569   -2.279148   -0.185199
    149          1           0      -10.156322    0.486789    0.773381
    150          1           0      -10.048124   -1.020035    1.754493
    151          1           0      -11.646068   -0.378299    1.163682
    152          1           0      -14.779016   -5.681935    1.157918
    153          1           0      -13.473498   -4.995695    0.137676
    154          1           0      -15.006787   -5.545335   -0.649207
    155          1           0      -19.561930   -3.347315    0.201655
    156          1           0      -22.372600   -4.148589    3.370406
    157          1           0      -22.407039   -2.274013    3.277121
    158          1           0      -21.281758   -3.233818    4.269466
 ---------------------------------------------------------------------

 SCF Done:  E(RCAM-B3LYP) =  -4069.81177553     A.U. after   19 cycles

 Excitation energies and oscillator strengths:

 Excited State   1:      Singlet-A      1.6753 eV  740.08 nm  f=0.2129  <S**2>=0.000
     310 -> 316        0.16862
     311 -> 313        0.66659
     312 -> 314       -0.16224
     310 <- 316        0.10166
 This state for optimization and/or second-order correction.
 Total Energy, E(TD-HF/TD-DFT) =  -4069.75020971
 Copying the excited state density for this state as the 1-particle RhoCI density.

 Excited State   2:      Singlet-A      1.6801 eV  737.95 nm  f=0.5645  <S**2>=0.000
     309 -> 315        0.17064
     311 -> 313        0.16220
     312 -> 314        0.66623
     309 <- 315        0.10217

 Excited State   3:      Singlet-A      2.1861 eV  567.15 nm  f=0.1027  <S**2>=0.000
     310 -> 313        0.64247
     311 -> 316       -0.27313

 Excited State   4:      Singlet-A      2.1925 eV  565.48 nm  f=0.0987  <S**2>=0.000
     309 -> 314        0.64070
     312 -> 315       -0.27831

 Excited State   5:      Singlet-A      3.0612 eV  405.01 nm  f=0.0000  <S**2>=0.000
     312 -> 313        0.70710

 The electronic state is 1-A.
 Alpha  occ. eigenvalues --  -46.87768 -46.87660 -19.26350 -19.26257 -19.19161
 Alpha  occ. eigenvalues --  -19.18992 -19.18785 -19.18715 -19.18142 -19.18051
 Alpha  occ. eigenvalues --  -14.42497 -14.42422 -14.41421 -14.41358 -14.39374
 Alpha  occ. eigenvalues --  -14.39352 -14.38599 -14.38558 -10.39091 -10.39052
 Alpha  occ. eigenvalues --  -10.35419 -10.35392 -10.34362 -10.34228 -10.31757
 Alpha  occ. eigenvalues --  -10.31653 -10.31377 -10.31309 -10.31024 -10.30880
 Alpha  occ. eigenvalues --  -10.30541 -10.30479 -10.30397 -10.30360 -10.30178
 Alpha  occ. eigenvalues --  -10.30140 -10.29893 -10.29892 -10.29602 -10.29436
 Alpha  occ. eigenvalues --  -10.29400 -10.29226 -10.28721 -10.28720 -10.28656
 Alpha  occ. eigenvalues --  -10.28511 -10.28405 -10.28336 -10.28142 -10.28089
 Alpha  occ. eigenvalues --  -10.28001 -10.27764 -10.27699 -10.27669 -10.27556
 Alpha  occ. eigenvalues --  -10.27513 -10.27484 -10.27472 -10.27468 -10.27465
 Alpha  occ. eigenvalues --  -10.27453 -10.27420 -10.27375 -10.27372 -10.27130
 Alpha  occ. eigenvalues --  -10.27051 -10.26694 -10.26677 -10.26417 -10.26380
 Alpha  occ. eigenvalues --  -10.26208 -10.26153 -10.26128 -10.26028 -10.25990
 Alpha  occ. eigenvalues --  -10.25933 -10.25848 -10.25815 -10.25407 -10.25395
 Alpha  occ. eigenvalues --  -10.24872 -10.24804 -10.24759 -10.24720 -10.24689
 Alpha  occ. eigenvalues --  -10.24655  -3.16511  -3.16410  -1.91392  -1.91292
 Alpha  occ. eigenvalues --   -1.90979  -1.90881  -1.90821  -1.90718  -1.16644
 Alpha  occ. eigenvalues --   -1.16606  -1.08658  -1.08599  -1.07187  -1.06967
 Alpha  occ. eigenvalues --   -1.06945  -1.06615  -1.04553  -1.04495  -1.03732
 Alpha  occ. eigenvalues --   -1.03663  -1.03205  -1.03038  -1.02382  -1.02111
 Alpha  occ. eigenvalues --   -0.91987  -0.91944  -0.89491  -0.89490  -0.89160
 Alpha  occ. eigenvalues --   -0.89152  -0.88258  -0.88217  -0.87842  -0.87793
 Alpha  occ. eigenvalues --   -0.87684  -0.87644  -0.87245  -0.87121  -0.85000
 Alpha  occ. eigenvalues --   -0.84954  -0.83907  -0.83872  -0.82938  -0.82931
 Alpha  occ. eigenvalues --   -0.82653  -0.82620  -0.81596  -0.81558  -0.80568
 Alpha  occ. eigenvalues --   -0.80442  -0.78768  -0.78635  -0.77190  -0.77144
 Alpha  occ. eigenvalues --   -0.76906  -0.76898  -0.75895  -0.75839  -0.74870
 Alpha  occ. eigenvalues --   -0.74801  -0.72746  -0.72698  -0.71644  -0.71581
 Alpha  occ. eigenvalues --   -0.69877  -0.69752  -0.68845  -0.68828  -0.67613
 Alpha  occ. eigenvalues --   -0.67601  -0.67201  -0.67191  -0.65272  -0.65258
 Alpha  occ. eigenvalues --   -0.64825  -0.64769  -0.64653  -0.64592  -0.64240
 Alpha  occ. eigenvalues --   -0.64201  -0.62278  -0.62270  -0.60413  -0.60339
 Alpha  occ. eigenvalues --   -0.59797  -0.59776  -0.58992  -0.58959  -0.58475
 Alpha  occ. eigenvalues --   -0.58425  -0.57556  -0.57554  -0.57280  -0.57235
 Alpha  occ. eigenvalues --   -0.56281  -0.56204  -0.55951  -0.55887  -0.55492
 Alpha  occ. eigenvalues --   -0.55452  -0.55311  -0.55245  -0.54495  -0.54485
 Alpha  occ. eigenvalues --   -0.53914  -0.53867  -0.53270  -0.53227  -0.53194
 Alpha  occ. eigenvalues --   -0.53142  -0.52902  -0.52886  -0.52727  -0.52669
 Alpha  occ. eigenvalues --   -0.52408  -0.52394  -0.51886  -0.51883  -0.51659
 Alpha  occ. eigenvalues --   -0.51588  -0.51200  -0.51167  -0.50543  -0.50476
 Alpha  occ. eigenvalues --   -0.50002  -0.49980  -0.49890  -0.49865  -0.49488
 Alpha  occ. eigenvalues --   -0.49486  -0.49203  -0.49186  -0.49105  -0.49068
 Alpha  occ. eigenvalues --   -0.48565  -0.48559  -0.48433  -0.48417  -0.48374
 Alpha  occ. eigenvalues --   -0.48339  -0.47666  -0.47594  -0.47268  -0.47118
 Alpha  occ. eigenvalues --   -0.46768  -0.46708  -0.46555  -0.46527  -0.46330
 Alpha  occ. eigenvalues --   -0.46269  -0.46134  -0.46084  -0.45822  -0.45794
 Alpha  occ. eigenvalues --   -0.45207  -0.45173  -0.44550  -0.44514  -0.44478
 Alpha  occ. eigenvalues --   -0.44476  -0.44127  -0.44116  -0.44076  -0.44060
 Alpha  occ. eigenvalues --   -0.43991  -0.43940  -0.43552  -0.43467  -0.43386
 Alpha  occ. eigenvalues --   -0.43357  -0.42999  -0.42930  -0.42901  -0.42671
 Alpha  occ. eigenvalues --   -0.42626  -0.42550  -0.41980  -0.41961  -0.41676
 Alpha  occ. eigenvalues --   -0.41669  -0.41505  -0.41458  -0.41113  -0.40989
 Alpha  occ. eigenvalues --   -0.40841  -0.40794  -0.40722  -0.40698  -0.40542
 Alpha  occ. eigenvalues --   -0.40490  -0.40228  -0.40206  -0.39420  -0.39411
 Alpha  occ. eigenvalues --   -0.38440  -0.38348  -0.37720  -0.37654  -0.37291
 Alpha  occ. eigenvalues --   -0.37264  -0.37235  -0.37200  -0.36770  -0.36685
 Alpha  occ. eigenvalues --   -0.36216  -0.36164  -0.34257  -0.34253  -0.33862
 Alpha  occ. eigenvalues --   -0.33743  -0.33175  -0.33158  -0.31315  -0.31274
 Alpha  occ. eigenvalues --   -0.31007  -0.30973  -0.30001  -0.29955  -0.29420
 Alpha  occ. eigenvalues --   -0.29327  -0.29293  -0.29211  -0.24052  -0.24036
 Alpha  occ. eigenvalues --   -0.21116  -0.21099
 Alpha virt. eigenvalues --   -0.08792  -0.08746  -0.01721  -0.01683  -0.00029
 Alpha virt. eigenvalues --   -0.00029   0.02208   0.02229   0.03150   0.03229
 Alpha virt. eigenvalues --    0.04730   0.04746   0.05126   0.05165   0.06182

 Mulliken charges:
               1
     1  Mg   0.838697
     2  C   -0.002960
     3  C   -0.094111
     4  C   -0.045856
     5  C   -0.063959
     6  N   -0.256774
     7  C   -0.052469
     8  C   -0.014031
     9  C   -0.086990
    10  C    0.046319
    11  C    0.104816
    12  C    0.053468
    13  C   -0.071802
    14  H    0.036133
    15  N   -0.433123
    16  C    0.168424
    17  C   -0.177148
    18  C   -0.003998
    19  C    0.148725
    20  C    0.110180
    21  C    0.012302
    22  O   -0.249616
    23  C    0.062465
    24  N   -0.341116
    25  C    0.041237
    26  C   -0.028190
    27  C   -0.023948
    28  C    0.074833
    29  C    0.076178
    30  C    0.035112
    31  C   -0.004499
    32  N   -0.310466
    33  C    0.080419
    34  C   -0.169717
    35  C    0.008346
    36  C    0.082995
    37  C    0.127312
    38  C    0.046117
    39  O   -0.188458
    40  C   -0.005329
    41  C    0.212864
    42  O   -0.257087
    43  O   -0.304805
    44  C    0.157699
    45  H   -0.017618
    46  H   -0.016834
    47  H   -0.041491
    48  H    0.000920
    49  H   -0.004030
    50  H    0.025462
    51  H    0.016441
    52  H    0.016639
    53  H    0.011227
    54  H    0.044130
    55  H    0.017847
    56  H    0.017955
    57  H    0.005865
    58  H    0.026809
    59  H    0.039585
    60  H    0.037324
    61  H    0.035668
    62  H    0.031538
    63  H    0.016578
    64  H    0.009442
    65  H    0.023214
    66  H    0.012528
    67  H    0.004737
    68  H    0.006369
    69  H    0.004730
    70  H    0.008797
    71  H    0.018175
    72  H    0.028981
    73  H    0.047573
    74  H    0.009119
    75  H    0.045985
    76  H    0.035129
    77  H    0.042926
    78  H    0.046398
    79  H    0.053694
    80  Mg   0.837879
    81  C   -0.016823
    82  C   -0.087817
    83  C   -0.045478
    84  C   -0.064877
    85  N   -0.254572
    86  C   -0.049868
    87  C   -0.015073
    88  C   -0.090501
    89  C    0.045769
    90  C    0.114381
    91  C    0.062518
    92  C   -0.077898
    93  H    0.034918
    94  N   -0.423498
    95  C    0.162909
    96  C   -0.174642
    97  C   -0.007799
    98  C    0.152112
    99  C    0.099378
   100  C    0.015569
   101  O   -0.253160
   102  C    0.061194
   103  N   -0.350047
   104  C    0.037491
   105  C   -0.019839
   106  C   -0.034814
   107  C    0.088915
   108  C    0.073645
   109  C    0.034703
   110  C   -0.007697
   111  N   -0.324107
   112  C    0.078469
   113  C   -0.163102
   114  C    0.002256
   115  C    0.096185
   116  C    0.131476
   117  C    0.042399
   118  O   -0.187856
   119  C    0.000901
   120  C    0.211257
   121  O   -0.250995
   122  O   -0.305641
   123  C    0.152029
   124  H   -0.019688
   125  H   -0.015558
   126  H   -0.040376
   127  H   -0.000656
   128  H   -0.004331
   129  H    0.022449
   130  H    0.014413
   131  H    0.016263
   132  H    0.013927
   133  H    0.037695
   134  H    0.020771
   135  H    0.019588
   136  H    0.008747
   137  H    0.026116
   138  H    0.039798
   139  H    0.038225
   140  H    0.036397
   141  H    0.033910
   142  H    0.014449
   143  H    0.012449
   144  H    0.025173
   145  H    0.011582
   146  H    0.005703
   147  H    0.006362
   148  H    0.003729
   149  H    0.010946
   150  H    0.018044
   151  H    0.030041
   152  H    0.046052
   153  H    0.008595
   154  H    0.046934
   155  H    0.035007
   156  H    0.043914
   157  H    0.049483
   158  H    0.053601
 Sum of Mulliken charges =  -0.00000

 Dipole moment (field-independent basis, Debye):
    X=              0.0753    Y=              6.6824    Z=             -4.5522  Tot=              8.0860
 Quadrupole moment (field-independent basis, Debye-Ang):
   XX=           -356.2659   YY=           -545.4334   ZZ=           -481.8936
   XY=            -28.6466   XZ=             -1.8026   YZ=             -7.9278

 Normal termination of Gaussian 16 at Sun Sep 12 09:40:27 2021.
