 Gaussian 16, Revision A.03,
 Gaussian 16:  ES64L-G16RevA.03 25-Dec-2016

 -----------------------------------
 #p cam-b3lyp/Def2SVP td=(nstates=5)
 -----------------------------------

 --------------------------------
 TDDFT excited states in gaussian
 --------------------------------
 Symbolic Z-matrix:
 Charge =  0 Multiplicity = 1

                         Standard orientation:
 ---------------------------------------------------------------------
 Center     Atomic      Atomic             Coordinates (Angstroms)
 Number     Number       Type             X           Y           Z
 ---------------------------------------------------------------------
      1         12           0        4.970568   -1.318120    0.317882
      2          6           0        5.609162    2.141209   -0.343519
      3          6           0        5.705067   -0.675145    3.587463
      4          6           0        4.856616   -4.443142    0.845021
      5          6           0        5.398884   -1.896987   -3.091974
      6          7           0        5.566010    0.538339    1.366525
      7          6           0        5.716914    1.809772    1.008954
      8          6           0        5.925882    2.770771    2.217337
      9          6           0        6.495835    1.723717    3.276029
     10          6           0        5.856770    0.457512    2.733586
     11          6           0        8.012423    1.569415    3.224499
     12          6           0        4.583063    3.408907    2.708610
     13          6           0        4.734930    4.597813    3.661917
     14          1           0        3.779109    5.691534    3.575147
     15          7           0        4.763234   -2.326231    2.004173
     16          6           0        5.099464   -1.903969    3.246723
     17          6           0        4.751864   -3.012330    4.161814
     18          6           0        4.362864   -4.184549    3.329543
     19          6           0        4.674514   -3.700208    2.009063
     20          6           0        4.761245   -2.881112    5.653941
     21          6           0        3.809472   -5.531859    3.671078
     22          8           0        3.760445   -6.483145    2.818303
     23          6           0        3.402530   -5.738851    5.072718
     24          7           0        5.322848   -2.977257   -0.898998
     25          6           0        5.146271   -4.220594   -0.438653
     26          6           0        5.180407   -5.225077   -1.552110
     27          6           0        5.175201   -4.382109   -2.908256
     28          6           0        5.224076   -2.958236   -2.301239
     29          6           0        6.378943   -6.183994   -1.551874
     30          6           0        4.061600   -4.708454   -3.934808
     31          6           0        2.715185   -4.304201   -3.377274
     32          7           0        5.247762   -0.097768   -1.455518
     33          6           0        5.427373   -0.550195   -2.770708
     34          6           0        5.682342    0.638265   -3.605346
     35          6           0        5.649569    1.704839   -2.709137
     36          6           0        5.416620    1.211185   -1.393716
     37          6           0        5.962723    0.632403   -5.000261
     38          6           0        5.781645    3.144304   -2.553081
     39          8           0        5.891278    4.094291   -3.329612
     40          6           0        5.882023    3.472605   -0.998099
     41          6           0        4.934159    4.604933   -0.710527
     42          8           0        3.700206    4.447137   -0.809651
     43          8           0        5.608320    5.614890   -0.139531
     44          6           0        4.720588    6.759372    0.198474
     45          1           0        6.140077   -0.643662    4.588321
     46          1           0        4.715132   -5.519307    0.964562
     47          1           0        5.457727   -1.991719   -4.177799
     48          1           0        6.655389    3.562810    2.047286
     49          1           0        6.136115    1.927758    4.284340
     50          1           0        8.439371    2.109680    2.379662
     51          1           0        8.192784    0.499123    3.122337
     52          1           0        8.463818    1.860104    4.173456
     53          1           0        4.071440    2.707143    3.367268
     54          1           0        3.963025    3.703255    1.861121
     55          1           0        5.755557    4.981516    3.661086
     56          1           0        4.580519    4.240946    4.680251
     57          1           0        5.247817   -1.959871    5.971913
     58          1           0        5.402219   -3.673825    6.039257
     59          1           0        3.762557   -2.975882    6.080524
     60          1           0        4.260915   -5.575192    5.724593
     61          1           0        2.948695   -6.728504    5.111056
     62          1           0        2.664751   -4.982320    5.341587
     63          1           0        4.300609   -5.866755   -1.527008
     64          1           0        6.100567   -4.507063   -3.471069
     65          1           0        6.097208   -7.237016   -1.530060
     66          1           0        7.012729   -5.931066   -0.702383
     67          1           0        7.069686   -6.052504   -2.384341
     68          1           0        4.021924   -5.780791   -4.123125
     69          1           0        4.199934   -4.208277   -4.893420
     70          1           0        2.439259   -5.160281   -2.762599
     71          1           0        1.997815   -4.156236   -4.185171
     72          1           0        2.800898   -3.442057   -2.715574
     73          1           0        5.378962    1.445217   -5.432145
     74          1           0        5.703801   -0.324852   -5.452175
     75          1           0        7.037562    0.812648   -4.990941
     76          1           0        6.918218    3.746219   -0.801742
     77          1           0        5.135471    7.642073   -0.288295
     78          1           0        4.634371    6.774278    1.285097
     79          1           0        3.719690    6.737176   -0.234018
     80         12           0       -5.530359   -0.128887   -0.387846
     81          6           0       -3.651350    2.924897   -0.538855
     82          6           0       -6.184841    0.610147    2.877136
     83          6           0       -6.808739   -3.017928   -0.093511
     84          6           0       -3.812589   -1.164163   -3.237966
     85          7           0       -4.939495    1.576840    0.890294
     86          6           0       -4.276115    2.708515    0.707051
     87          6           0       -4.350146    3.697984    1.900792
     88          6           0       -4.660465    2.641624    3.069836
     89          6           0       -5.336668    1.551452    2.241006
     90          6           0       -3.407714    2.055227    3.699210
     91          6           0       -5.513810    4.738693    1.743257
     92          6           0       -5.453970    5.921834    2.711935
     93          1           0       -5.896581    7.230940    2.239906
     94          7           0       -6.771966   -0.850388    0.981983
     95          6           0       -6.925095   -0.416433    2.250650
     96          6           0       -7.943814   -1.289390    2.854254
     97          6           0       -8.259973   -2.377792    1.889810
     98          6           0       -7.255423   -2.130743    0.874960
     99          6           0       -8.572799   -1.004954    4.187255
    100          6           0       -9.287137   -3.469182    1.888129
    101          8           0       -9.227856   -4.448356    1.063196
    102          6           0      -10.311317   -3.407161    2.941080
    103          7           0       -5.191761   -1.927673   -1.373779
    104          6           0       -5.921552   -3.020383   -1.088609
    105          6           0       -5.691685   -4.111029   -2.107457
    106          6           0       -4.835897   -3.433578   -3.276336
    107          6           0       -4.634253   -2.030956   -2.662017
    108          6           0       -4.962577   -5.354174   -1.598189
    109          6           0       -5.408373   -3.534306   -4.716752
    110          6           0       -6.676279   -2.718364   -4.826440
    111          7           0       -4.144750    0.769601   -1.780986
    112          6           0       -3.527412    0.149856   -2.889537
    113          6           0       -2.580584    1.127815   -3.463595
    114          6           0       -2.696859    2.249422   -2.628746
    115          6           0       -3.634068    1.981597   -1.594625
    116          6           0       -1.726989    0.902599   -4.580181
    117          6           0       -2.232018    3.595232   -2.380907
    118          8           0       -1.501268    4.385461   -2.976954
    119          6           0       -2.735702    4.047010   -0.942649
    120          6           0       -3.328246    5.423739   -1.069300
    121          8           0       -4.359977    5.608656   -1.738582
    122          8           0       -2.708557    6.251108   -0.208014
    123          6           0       -3.269032    7.626316   -0.288568
    124          1           0       -6.259685    0.631130    3.964718
    125          1           0       -7.301054   -3.993134   -0.102623
    126          1           0       -3.311485   -1.375480   -4.185015
    127          1           0       -3.427547    4.225413    2.111527
    128          1           0       -5.354330    3.051876    3.798949
    129          1           0       -2.513700    2.358153    3.174706
    130          1           0       -3.529260    0.981034    3.650581
    131          1           0       -3.367473    2.306121    4.763051
    132          1           0       -6.454327    4.276267    2.069345
    133          1           0       -5.568023    5.099835    0.734652
    134          1           0       -4.477893    6.001242    3.205813
    135          1           0       -6.154026    5.736174    3.530145
    136          1           0       -8.021949   -0.230285    4.734863
    137          1           0       -8.451556   -1.906825    4.797000
    138          1           0       -9.636753   -0.771189    4.109679
    139          1           0       -9.828929   -3.423796    3.915499
    140          1           0      -11.006283   -4.219837    2.720991
    141          1           0      -10.833720   -2.447004    2.864885
    142          1           0       -6.630949   -4.461449   -2.517433
    143          1           0       -3.836663   -3.884933   -3.363814
    144          1           0       -5.534633   -6.288828   -1.750697
    145          1           0       -4.738137   -5.212560   -0.549333
    146          1           0       -3.974845   -5.517847   -2.025754
    147          1           0       -5.683447   -4.567277   -4.943575
    148          1           0       -4.710862   -3.211251   -5.482327
    149          1           0       -7.440771   -3.396584   -4.435730
    150          1           0       -6.874372   -2.455875   -5.863687
    151          1           0       -6.640893   -1.845224   -4.164606
    152          1           0       -1.777129    1.791601   -5.194725
    153          1           0       -2.025471    0.016462   -5.136469
    154          1           0       -0.770338    0.763757   -4.069480
    155          1           0       -1.874031    4.032087   -0.274161
    156          1           0       -2.431946    8.301029   -0.492878
    157          1           0       -3.820492    7.780092    0.658001
    158          1           0       -3.928967    7.850765   -1.118360
 ---------------------------------------------------------------------

 SCF Done:  E(RCAM-B3LYP) =  -4069.81040006     A.U. after   19 cycles

 Excitation energies and oscillator strengths:

 Excited State   1:      Singlet-A      1.6560 eV  748.71 nm  f=0.0724  <S**2>=0.000
     309 -> 315       -0.11515
     310 -> 316       -0.12372
     311 -> 313       -0.46697
     312 -> 314        0.50409
 This state for optimization and/or second-order correction.
 Total Energy, E(TD-HF/TD-DFT) =  -4069.74954384
 Copying the excited state density for this state as the 1-particle RhoCI density.

 Excited State   2:      Singlet-A      1.6988 eV  729.83 nm  f=0.6597  <S**2>=0.000
     309 -> 315        0.13214
     310 -> 316       -0.12160
     311 -> 313        0.50212
     312 -> 314        0.46531

 Excited State   3:      Singlet-A      2.1835 eV  567.83 nm  f=0.0106  <S**2>=0.000
     309 -> 313        0.33737
     310 -> 314        0.54824
     311 -> 315       -0.14151
     312 -> 316        0.23128

 Excited State   4:      Singlet-A      2.1952 eV  564.80 nm  f=0.1683  <S**2>=0.000
     309 -> 313        0.54458
     310 -> 314       -0.33401
     311 -> 315       -0.23979
     312 -> 316       -0.14735

 Excited State   5:      Singlet-A      2.4931 eV  497.31 nm  f=0.0000  <S**2>=0.000
     312 -> 313        0.70697

 The electronic state is 1-A.
 Alpha  occ. eigenvalues --  -46.87745 -46.87440 -19.26064 -19.26046 -19.18872
 Alpha  occ. eigenvalues --  -19.18781 -19.18745 -19.18521 -19.18016 -19.17641
 Alpha  occ. eigenvalues --  -14.42400 -14.42289 -14.41403 -14.41139 -14.39351
 Alpha  occ. eigenvalues --  -14.39130 -14.38521 -14.38358 -10.38825 -10.38797
 Alpha  occ. eigenvalues --  -10.35417 -10.35203 -10.34236 -10.33821 -10.31527
 Alpha  occ. eigenvalues --  -10.31439 -10.31339 -10.31076 -10.30855 -10.30818
 Alpha  occ. eigenvalues --  -10.30501 -10.30446 -10.30182 -10.30155 -10.30108
 Alpha  occ. eigenvalues --  -10.29956 -10.29867 -10.29659 -10.29568 -10.29230
 Alpha  occ. eigenvalues --  -10.29210 -10.29157 -10.28699 -10.28539 -10.28530
 Alpha  occ. eigenvalues --  -10.28523 -10.28295 -10.28160 -10.28072 -10.27973
 Alpha  occ. eigenvalues --  -10.27738 -10.27718 -10.27679 -10.27528 -10.27500
 Alpha  occ. eigenvalues --  -10.27466 -10.27463 -10.27437 -10.27347 -10.27333
 Alpha  occ. eigenvalues --  -10.27300 -10.27249 -10.27233 -10.27190 -10.27008
 Alpha  occ. eigenvalues --  -10.26689 -10.26669 -10.26533 -10.26401 -10.26265
 Alpha  occ. eigenvalues --  -10.26225 -10.26191 -10.25994 -10.25979 -10.25896
 Alpha  occ. eigenvalues --  -10.25739 -10.25724 -10.25517 -10.25421 -10.25216
 Alpha  occ. eigenvalues --  -10.24770 -10.24747 -10.24736 -10.24597 -10.24587
 Alpha  occ. eigenvalues --  -10.24462  -3.16488  -3.16190  -1.91369  -1.91072
 Alpha  occ. eigenvalues --   -1.90956  -1.90798  -1.90661  -1.90497  -1.16391
 Alpha  occ. eigenvalues --   -1.16357  -1.08459  -1.08233  -1.07184  -1.06778
 Alpha  occ. eigenvalues --   -1.06650  -1.06377  -1.04525  -1.04278  -1.03713
 Alpha  occ. eigenvalues --   -1.03441  -1.03176  -1.02812  -1.02355  -1.01879
 Alpha  occ. eigenvalues --   -0.91882  -0.91719  -0.89494  -0.89286  -0.89141
 Alpha  occ. eigenvalues --   -0.88974  -0.88263  -0.88024  -0.87789  -0.87626
 Alpha  occ. eigenvalues --   -0.87520  -0.87470  -0.87233  -0.86917  -0.84934
 Alpha  occ. eigenvalues --   -0.84811  -0.83915  -0.83680  -0.82943  -0.82749
 Alpha  occ. eigenvalues --   -0.82590  -0.82458  -0.81460  -0.81347  -0.80511
 Alpha  occ. eigenvalues --   -0.80213  -0.78745  -0.78410  -0.77179  -0.76948
 Alpha  occ. eigenvalues --   -0.76869  -0.76696  -0.75837  -0.75621  -0.74855
 Alpha  occ. eigenvalues --   -0.74596  -0.72716  -0.72464  -0.71613  -0.71367
 Alpha  occ. eigenvalues --   -0.69913  -0.69583  -0.68822  -0.68630  -0.67574
 Alpha  occ. eigenvalues --   -0.67367  -0.67180  -0.67017  -0.65227  -0.65065
 Alpha  occ. eigenvalues --   -0.64781  -0.64550  -0.64548  -0.64435  -0.64235
 Alpha  occ. eigenvalues --   -0.63999  -0.62149  -0.62027  -0.60403  -0.60131
 Alpha  occ. eigenvalues --   -0.59750  -0.59595  -0.58923  -0.58762  -0.58429
 Alpha  occ. eigenvalues --   -0.58183  -0.57450  -0.57245  -0.57227  -0.57002
 Alpha  occ. eigenvalues --   -0.56242  -0.55970  -0.55829  -0.55648  -0.55462
 Alpha  occ. eigenvalues --   -0.55270  -0.55233  -0.55022  -0.54414  -0.54261
 Alpha  occ. eigenvalues --   -0.53843  -0.53730  -0.53246  -0.53161  -0.53011
 Alpha  occ. eigenvalues --   -0.52929  -0.52810  -0.52717  -0.52681  -0.52491
 Alpha  occ. eigenvalues --   -0.52429  -0.52221  -0.51816  -0.51579  -0.51559
 Alpha  occ. eigenvalues --   -0.51467  -0.51115  -0.50940  -0.50554  -0.50302
 Alpha  occ. eigenvalues --   -0.50023  -0.49879  -0.49797  -0.49673  -0.49458
 Alpha  occ. eigenvalues --   -0.49292  -0.49125  -0.49031  -0.48976  -0.48860
 Alpha  occ. eigenvalues --   -0.48497  -0.48415  -0.48355  -0.48321  -0.48166
 Alpha  occ. eigenvalues --   -0.48088  -0.47639  -0.47387  -0.47237  -0.46916
 Alpha  occ. eigenvalues --   -0.46751  -0.46503  -0.46501  -0.46370  -0.46302
 Alpha  occ. eigenvalues --   -0.46075  -0.46054  -0.45844  -0.45704  -0.45557
 Alpha  occ. eigenvalues --   -0.45169  -0.45003  -0.44484  -0.44466  -0.44315
 Alpha  occ. eigenvalues --   -0.44234  -0.44112  -0.44042  -0.43918  -0.43912
 Alpha  occ. eigenvalues --   -0.43871  -0.43684  -0.43379  -0.43339  -0.43325
 Alpha  occ. eigenvalues --   -0.43165  -0.42957  -0.42691  -0.42673  -0.42627
 Alpha  occ. eigenvalues --   -0.42472  -0.42362  -0.41973  -0.41771  -0.41621
 Alpha  occ. eigenvalues --   -0.41489  -0.41382  -0.41273  -0.41083  -0.40839
 Alpha  occ. eigenvalues --   -0.40796  -0.40775  -0.40543  -0.40539  -0.40523
 Alpha  occ. eigenvalues --   -0.40295  -0.40202  -0.40063  -0.39461  -0.39255
 Alpha  occ. eigenvalues --   -0.38450  -0.38166  -0.37706  -0.37479  -0.37290
 Alpha  occ. eigenvalues --   -0.37207  -0.37067  -0.36993  -0.36560  -0.36514
 Alpha  occ. eigenvalues --   -0.36062  -0.35998  -0.34225  -0.34023  -0.33583
 Alpha  occ. eigenvalues --   -0.33539  -0.33103  -0.32946  -0.31310  -0.31081
 Alpha  occ. eigenvalues --   -0.30972  -0.30748  -0.29873  -0.29544  -0.29392
 Alpha  occ. eigenvalues --   -0.29238  -0.29098  -0.28926  -0.24021  -0.23807
 Alpha  occ. eigenvalues --   -0.21074  -0.20892
 Alpha virt. eigenvalues --   -0.08713  -0.08552  -0.01703  -0.01470  -0.00003
 Alpha virt. eigenvalues --    0.00194   0.02300   0.02518   0.03140   0.03436
 Alpha virt. eigenvalues --    0.04762   0.04923   0.05327   0.05463   0.06219

 Mulliken charges:
               1
     1  Mg   0.838336
     2  C   -0.002319
     3  C   -0.094497
     4  C   -0.046064
     5  C   -0.064538
     6  N   -0.256582
     7  C   -0.052670
     8  C   -0.013781
     9  C   -0.086890
    10  C    0.045961
    11  C    0.104870
    12  C    0.053583
    13  C   -0.071357
    14  H    0.035695
    15  N   -0.433059
    16  C    0.168020
    17  C   -0.177580
    18  C   -0.004286
    19  C    0.148541
    20  C    0.110303
    21  C    0.012073
    22  O   -0.249925
    23  C    0.062628
    24  N   -0.341078
    25  C    0.040982
    26  C   -0.028101
    27  C   -0.023944
    28  C    0.074842
    29  C    0.076198
    30  C    0.035269
    31  C   -0.004341
    32  N   -0.310761
    33  C    0.080499
    34  C   -0.169317
    35  C    0.009392
    36  C    0.083369
    37  C    0.126862
    38  C    0.048164
    39  O   -0.186284
    40  C   -0.006024
    41  C    0.212886
    42  O   -0.253431
    43  O   -0.305743
    44  C    0.156721
    45  H   -0.017961
    46  H   -0.017184
    47  H   -0.041628
    48  H    0.001269
    49  H   -0.004643
    50  H    0.025635
    51  H    0.016390
    52  H    0.016335
    53  H    0.010002
    54  H    0.045125
    55  H    0.018136
    56  H    0.016957
    57  H    0.005508
    58  H    0.026638
    59  H    0.038653
    60  H    0.037242
    61  H    0.035483
    62  H    0.030991
    63  H    0.016077
    64  H    0.009602
    65  H    0.022999
    66  H    0.012692
    67  H    0.004695
    68  H    0.006186
    69  H    0.004776
    70  H    0.008628
    71  H    0.016154
    72  H    0.029454
    73  H    0.049399
    74  H    0.008523
    75  H    0.045962
    76  H    0.034754
    77  H    0.042775
    78  H    0.044761
    79  H    0.056988
    80  Mg   0.837148
    81  C   -0.016525
    82  C   -0.088111
    83  C   -0.045777
    84  C   -0.065317
    85  N   -0.254254
    86  C   -0.049894
    87  C   -0.014843
    88  C   -0.090520
    89  C    0.045310
    90  C    0.114352
    91  C    0.062664
    92  C   -0.077344
    93  H    0.034482
    94  N   -0.423334
    95  C    0.162361
    96  C   -0.175344
    97  C   -0.008328
    98  C    0.151705
    99  C    0.099671
   100  C    0.015155
   101  O   -0.253769
   102  C    0.061386
   103  N   -0.350090
   104  C    0.037239
   105  C   -0.019648
   106  C   -0.034760
   107  C    0.089428
   108  C    0.073750
   109  C    0.034835
   110  C   -0.007560
   111  N   -0.324468
   112  C    0.078840
   113  C   -0.163294
   114  C    0.004213
   115  C    0.095529
   116  C    0.131533
   117  C    0.045721
   118  O   -0.181980
   119  C   -0.000134
   120  C    0.211292
   121  O   -0.251903
   122  O   -0.304911
   123  C    0.152390
   124  H   -0.020844
   125  H   -0.016116
   126  H   -0.040841
   127  H   -0.000382
   128  H   -0.005100
   129  H    0.023212
   130  H    0.013967
   131  H    0.014507
   132  H    0.013690
   133  H    0.037973
   134  H    0.020159
   135  H    0.018992
   136  H    0.008002
   137  H    0.025216
   138  H    0.039124
   139  H    0.037818
   140  H    0.035812
   141  H    0.033632
   142  H    0.013939
   143  H    0.012060
   144  H    0.024624
   145  H    0.011890
   146  H    0.005564
   147  H    0.005771
   148  H    0.003224
   149  H    0.010774
   150  H    0.017581
   151  H    0.030447
   152  H    0.046722
   153  H    0.006616
   154  H    0.050441
   155  H    0.039461
   156  H    0.043613
   157  H    0.048234
   158  H    0.053329
 Sum of Mulliken charges =  -0.00000

 Dipole moment (field-independent basis, Debye):
    X=              1.3498    Y=             -1.2527    Z=              8.0073  Tot=              8.2163
 Quadrupole moment (field-independent basis, Debye-Ang):
   XX=           -501.0553   YY=           -530.3242   ZZ=           -465.6533
   XY=            -18.2369   XZ=             -2.1511   YZ=             57.0284

 Normal termination of Gaussian 16 at Fri Sep 10 21:28:16 2021.
