 Gaussian 16, Revision A.03,
 Gaussian 16:  ES64L-G16RevA.03 25-Dec-2016

 -----------------------------------
 #p cam-b3lyp/Def2SVP td=(nstates=5)
 -----------------------------------

 --------------------------------
 TDDFT excited states in gaussian
 --------------------------------
 Symbolic Z-matrix:
 Charge =  0 Multiplicity = 1

                         Standard orientation:
 ---------------------------------------------------------------------
 Center     Atomic      Atomic             Coordinates (Angstroms)
 Number     Number       Type             X           Y           Z
 ---------------------------------------------------------------------
      1         12           0       -6.517342    0.650832    0.439465
      2          6           0       -6.894040   -2.180451   -1.717884
      3          6           0       -7.194847   -1.437079    3.051873
      4          6           0       -6.638788    3.208341    2.310566
      5          6           0       -6.994755    2.664876   -2.364348
      6          7           0       -6.968802   -1.514555    0.528513
      7          6           0       -7.023910   -2.498147   -0.364057
      8          6           0       -7.157343   -3.910378    0.280281
      9          6           0       -7.802725   -3.490164    1.676312
     10          6           0       -7.262195   -2.074712    1.777542
     11          6           0       -9.326732   -3.433278    1.650469
     12          6           0       -5.769205   -4.607435    0.477549
     13          6           0       -5.828975   -6.104679    0.793843
     14          1           0       -4.793427   -6.975433    0.258330
     15          7           0       -6.383504    0.808397    2.404181
     16          6           0       -6.684470   -0.147584    3.315667
     17          6           0       -6.419831    0.454373    4.640165
     18          6           0       -6.122111    1.898751    4.432247
     19          6           0       -6.398830    2.037118    3.025243
     20          6           0       -6.416389   -0.331583    5.915316
     21          6           0       -5.671429    2.984700    5.357305
     22          8           0       -5.696059    4.218052    5.021430
     23          6           0       -5.278581    2.569254    6.716024
     24          7           0       -6.996311    2.650836    0.081405
     25          6           0       -6.913282    3.565104    1.054135
     26          6           0       -7.025359    4.956952    0.506287
     27          6           0       -6.959104    4.813269   -1.082649
     28          6           0       -6.899094    3.268715   -1.177632
     29          6           0       -8.292912    5.729688    0.896413
     30          6           0       -5.875325    5.640176   -1.818902
     31          6           0       -4.501143    5.122184   -1.457787
     32          7           0       -6.704974    0.338301   -1.700200
     33          6           0       -6.920792    1.318420   -2.679722
     34          6           0       -7.086859    0.615359   -3.965099
     35          6           0       -6.971870   -0.734625   -3.639271
     36          6           0       -6.774340   -0.867808   -2.235157
     37          6           0       -7.369576    1.226202   -5.218645
     38          6           0       -6.994517   -2.096781   -4.147085
     39          8           0       -7.033566   -2.603338   -5.269301
     40          6           0       -7.066800   -3.092807   -2.906708
     41          6           0       -6.035546   -4.166193   -3.125036
     42          8           0       -4.817234   -3.896712   -3.103533
     43          8           0       -6.630374   -5.368401   -3.087383
     44          6           0       -5.658064   -6.479324   -3.267980
     45          1           0       -7.624300   -1.943198    3.918680
     46          1           0       -6.578781    4.123831    2.902777
     47          1           0       -7.062683    3.231652   -3.294726
     48          1           0       -7.825255   -4.590186   -0.249039
     49          1           0       -7.426670   -4.099082    2.498214
     50          1           0       -9.713275   -3.565698    0.640038
     51          1           0       -9.587634   -2.445737    2.031500
     52          1           0       -9.753041   -4.148343    2.354543
     53          1           0       -5.310790   -4.241862    1.396393
     54          1           0       -5.130340   -4.447818   -0.391761
     55          1           0       -6.817697   -6.516182    0.588898
     56          1           0       -5.700000   -6.232106    1.868705
     57          1           0       -6.831356   -1.328540    5.772405
     58          1           0       -7.114673    0.158651    6.593386
     59          1           0       -5.426892   -0.369851    6.371128
     60          1           0       -6.120888    2.072657    7.198164
     61          1           0       -4.900736    3.465363    7.207015
     62          1           0       -4.485237    1.824881    6.642118
     63          1           0       -6.196506    5.577924    0.843664
     64          1           0       -7.892350    5.113447   -1.559742
     65          1           0       -8.091495    6.677915    1.395413
     66          1           0       -8.904136    5.080361    1.522569
     67          1           0       -8.973354    5.938088    0.071195
     68          1           0       -5.917141    6.683183   -1.506919
     69          1           0       -5.977328    5.614198   -2.903878
     70          1           0       -4.289494    5.628899   -0.516895
     71          1           0       -3.776207    5.401220   -2.223175
     72          1           0       -4.520198    4.051373   -1.254102
     73          1           0       -6.726911    0.734992   -5.949168
     74          1           0       -7.184587    2.299683   -5.186711
     75          1           0       -8.427706    0.987817   -5.325360
     76          1           0       -8.078982   -3.495558   -2.886669
     77          1           0       -6.006014   -7.076568   -4.110870
     78          1           0       -5.568867   -6.973424   -2.300346
     79          1           0       -4.662541   -6.197349   -3.612600
     80         12           0        6.679673    0.629110   -0.583929
     81          6           0        6.614633   -2.424634    1.300079
     82          6           0        6.030884    2.269248    2.335589
     83          6           0        6.284111    3.282558   -2.278089
     84          6           0        6.184292   -1.291064   -3.449812
     85          7           0        6.382816   -0.094170    1.485127
     86          6           0        6.442026   -1.270118    2.091748
     87          6           0        6.389135   -1.197810    3.641434
     88          6           0        5.641265    0.215425    3.790838
     89          6           0        6.068713    0.858674    2.473190
     90          6           0        4.126237    0.097082    3.795205
     91          6           0        7.818689   -1.162289    4.287284
     92          6           0        7.847887   -1.402788    5.798261
     93          1           0        8.975682   -2.137625    6.364432
     94          7           0        6.711104    2.530953   -0.017767
     95          6           0        6.444142    3.018383    1.212040
     96          6           0        6.583473    4.478958    1.104893
     97          6           0        6.793010    4.826385   -0.326927
     98          6           0        6.578748    3.533702   -0.945927
     99          6           0        6.592551    5.385445    2.301393
    100          6           0        7.118168    6.112193   -1.024896
    101          8           0        7.019881    6.231195   -2.297305
    102          6           0        7.464877    7.254493   -0.166744
    103          7           0        6.080455    0.973912   -2.544645
    104          6           0        6.043684    2.220506   -3.047229
    105          6           0        5.852052    2.199388   -4.544967
    106          6           0        6.010583    0.667732   -4.976815
    107          6           0        6.185510    0.028297   -3.581857
    108          6           0        4.513148    2.734849   -5.051927
    109          6           0        7.064919    0.350990   -6.072588
    110          6           0        8.456117    0.608682   -5.540084
    111          7           0        6.623769   -1.479162   -1.053128
    112          6           0        6.376170   -2.066277   -2.313321
    113          6           0        6.325064   -3.528606   -2.109833
    114          6           0        6.525162   -3.690768   -0.730649
    115          6           0        6.669243   -2.418216   -0.114742
    116          6           0        6.068906   -4.500326   -3.117934
    117          6           0        6.636648   -4.648590    0.345848
    118          8           0        6.681967   -5.876140    0.415181
    119          6           0        6.573346   -3.865520    1.727584
    120          6           0        7.690712   -4.370073    2.599041
    121          8           0        8.877209   -4.174012    2.282186
    122          8           0        7.178202   -4.806501    3.764041
    123          6           0        8.249067   -5.306745    4.666717
    124          1           0        5.605407    2.858586    3.148322
    125          1           0        6.247032    4.160997   -2.926509
    126          1           0        6.131616   -1.963641   -4.308615
    127          1           0        5.805245   -1.979150    4.112974
    128          1           0        6.029225    0.780378    4.634449
    129          1           0        3.800099   -0.909133    3.577709
    130          1           0        3.775519    0.781388    3.033789
    131          1           0        3.721989    0.466714    4.741935
    132          1           0        8.201531   -0.134179    4.253246
    133          1           0        8.475037   -1.855631    3.798282
    134          1           0        6.899173   -1.809206    6.169356
    135          1           0        7.941025   -0.437376    6.301574
    136          1           0        6.252818    4.863199    3.204299
    137          1           0        5.829551    6.151942    2.127651
    138          1           0        7.557227    5.874760    2.451808
    139          1           0        6.640754    7.459121    0.512522
    140          1           0        7.751798    8.056519   -0.849606
    141          1           0        8.323590    6.977186    0.454817
    142          1           0        6.616193    2.785231   -5.040907
    143          1           0        5.076403    0.262986   -5.393130
    144          1           0        4.620749    3.566212   -5.773964
    145          1           0        3.924839    3.045829   -4.198862
    146          1           0        3.867181    1.994317   -5.520468
    147          1           0        6.932341    1.016292   -6.929293
    148          1           0        7.009680   -0.666940   -6.443771
    149          1           0        8.578835    1.686624   -5.681751
    150          1           0        9.194468    0.049004   -6.110724
    151          1           0        8.508520    0.409641   -4.463378
    152          1           0        6.773158   -5.306243   -2.959663
    153          1           0        6.167727   -4.074945   -4.114457
    154          1           0        5.032750   -4.757396   -2.882248
    155          1           0        5.593487   -4.055609    2.167264
    156          1           0        7.983865   -6.333012    4.938980
    157          1           0        8.316097   -4.568963    5.488266
    158          1           0        9.236213   -5.448811    4.242674
 ---------------------------------------------------------------------

 SCF Done:  E(RCAM-B3LYP) =  -4069.81183519     A.U. after   19 cycles

 Excitation energies and oscillator strengths:

 Excited State   1:      Singlet-A      1.6720 eV  741.51 nm  f=0.2565  <S**2>=0.000
     310 -> 316        0.14580
     311 -> 313       -0.36777
     312 -> 314        0.57925
 This state for optimization and/or second-order correction.
 Total Energy, E(TD-HF/TD-DFT) =  -4069.75038884
 Copying the excited state density for this state as the 1-particle RhoCI density.

 Excited State   2:      Singlet-A      1.6816 eV  737.28 nm  f=0.4753  <S**2>=0.000
     309 -> 315        0.14832
     311 -> 313        0.57871
     312 -> 314        0.36757

 Excited State   3:      Singlet-A      2.1856 eV  567.27 nm  f=0.0949  <S**2>=0.000
     310 -> 314        0.63972
     312 -> 316       -0.27184

 Excited State   4:      Singlet-A      2.1918 eV  565.68 nm  f=0.1033  <S**2>=0.000
     309 -> 313        0.63800
     311 -> 315       -0.27649

 Excited State   5:      Singlet-A      2.6503 eV  467.82 nm  f=0.0000  <S**2>=0.000
     312 -> 313        0.70710

 The electronic state is 1-A.
 Alpha  occ. eigenvalues --  -46.87852 -46.87557 -19.26315 -19.26292 -19.19113
 Alpha  occ. eigenvalues --  -19.19037 -19.18905 -19.18624 -19.18215 -19.17968
 Alpha  occ. eigenvalues --  -14.42500 -14.42401 -14.41504 -14.41250 -14.39462
 Alpha  occ. eigenvalues --  -14.39251 -14.38641 -14.38496 -10.39098 -10.39041
 Alpha  occ. eigenvalues --  -10.35541 -10.35302 -10.34433 -10.34147 -10.31740
 Alpha  occ. eigenvalues --  -10.31668 -10.31449 -10.31216 -10.30959 -10.30937
 Alpha  occ. eigenvalues --  -10.30621 -10.30566 -10.30293 -10.30267 -10.30260
 Alpha  occ. eigenvalues --  -10.30026 -10.29975 -10.29780 -10.29691 -10.29332
 Alpha  occ. eigenvalues --  -10.29316 -10.29300 -10.28775 -10.28660 -10.28632
 Alpha  occ. eigenvalues --  -10.28524 -10.28420 -10.28309 -10.28147 -10.28075
 Alpha  occ. eigenvalues --  -10.27900 -10.27850 -10.27778 -10.27649 -10.27572
 Alpha  occ. eigenvalues --  -10.27556 -10.27555 -10.27508 -10.27453 -10.27389
 Alpha  occ. eigenvalues --  -10.27379 -10.27378 -10.27367 -10.27243 -10.27194
 Alpha  occ. eigenvalues --  -10.26978 -10.26715 -10.26648 -10.26528 -10.26336
 Alpha  occ. eigenvalues --  -10.26263 -10.26237 -10.26074 -10.26009 -10.25966
 Alpha  occ. eigenvalues --  -10.25893 -10.25820 -10.25721 -10.25491 -10.25241
 Alpha  occ. eigenvalues --  -10.24888 -10.24845 -10.24772 -10.24743 -10.24619
 Alpha  occ. eigenvalues --  -10.24585  -3.16595  -3.16307  -1.91477  -1.91189
 Alpha  occ. eigenvalues --   -1.91063  -1.90905  -1.90778  -1.90615  -1.16643
 Alpha  occ. eigenvalues --   -1.16606  -1.08670  -1.08579  -1.07308  -1.06898
 Alpha  occ. eigenvalues --   -1.06876  -1.06659  -1.04631  -1.04401  -1.03815
 Alpha  occ. eigenvalues --   -1.03561  -1.03291  -1.02931  -1.02466  -1.02007
 Alpha  occ. eigenvalues --   -0.92020  -0.91895  -0.89574  -0.89382  -0.89218
 Alpha  occ. eigenvalues --   -0.89083  -0.88342  -0.88101  -0.87923  -0.87720
 Alpha  occ. eigenvalues --   -0.87685  -0.87588  -0.87347  -0.87026  -0.85019
 Alpha  occ. eigenvalues --   -0.84925  -0.83989  -0.83760  -0.83050  -0.82836
 Alpha  occ. eigenvalues --   -0.82692  -0.82576  -0.81617  -0.81525  -0.80642
 Alpha  occ. eigenvalues --   -0.80361  -0.78861  -0.78537  -0.77266  -0.77058
 Alpha  occ. eigenvalues --   -0.76965  -0.76817  -0.75958  -0.75764  -0.74948
 Alpha  occ. eigenvalues --   -0.74690  -0.72827  -0.72596  -0.71719  -0.71484
 Alpha  occ. eigenvalues --   -0.69961  -0.69638  -0.68915  -0.68750  -0.67696
 Alpha  occ. eigenvalues --   -0.67509  -0.67258  -0.67131  -0.65321  -0.65199
 Alpha  occ. eigenvalues --   -0.64898  -0.64676  -0.64662  -0.64572  -0.64322
 Alpha  occ. eigenvalues --   -0.64093  -0.62326  -0.62207  -0.60510  -0.60239
 Alpha  occ. eigenvalues --   -0.59844  -0.59718  -0.59037  -0.58894  -0.58553
 Alpha  occ. eigenvalues --   -0.58332  -0.57622  -0.57479  -0.57362  -0.57135
 Alpha  occ. eigenvalues --   -0.56364  -0.56110  -0.56001  -0.55825  -0.55581
 Alpha  occ. eigenvalues --   -0.55384  -0.55372  -0.55147  -0.54561  -0.54396
 Alpha  occ. eigenvalues --   -0.53926  -0.53845  -0.53360  -0.53270  -0.53131
 Alpha  occ. eigenvalues --   -0.53063  -0.52957  -0.52826  -0.52818  -0.52588
 Alpha  occ. eigenvalues --   -0.52492  -0.52287  -0.51965  -0.51769  -0.51659
 Alpha  occ. eigenvalues --   -0.51588  -0.51240  -0.51112  -0.50657  -0.50385
 Alpha  occ. eigenvalues --   -0.50087  -0.49985  -0.49896  -0.49753  -0.49565
 Alpha  occ. eigenvalues --   -0.49406  -0.49266  -0.49131  -0.49122  -0.49026
 Alpha  occ. eigenvalues --   -0.48631  -0.48530  -0.48498  -0.48480  -0.48267
 Alpha  occ. eigenvalues --   -0.48249  -0.47745  -0.47508  -0.47352  -0.47021
 Alpha  occ. eigenvalues --   -0.46845  -0.46613  -0.46589  -0.46480  -0.46412
 Alpha  occ. eigenvalues --   -0.46208  -0.46169  -0.45980  -0.45857  -0.45737
 Alpha  occ. eigenvalues --   -0.45255  -0.45093  -0.44622  -0.44565  -0.44435
 Alpha  occ. eigenvalues --   -0.44392  -0.44200  -0.44126  -0.44070  -0.44047
 Alpha  occ. eigenvalues --   -0.43980  -0.43858  -0.43530  -0.43481  -0.43430
 Alpha  occ. eigenvalues --   -0.43299  -0.43074  -0.42867  -0.42808  -0.42740
 Alpha  occ. eigenvalues --   -0.42686  -0.42444  -0.42054  -0.41870  -0.41752
 Alpha  occ. eigenvalues --   -0.41579  -0.41568  -0.41379  -0.41187  -0.40918
 Alpha  occ. eigenvalues --   -0.40899  -0.40890  -0.40644  -0.40620  -0.40619
 Alpha  occ. eigenvalues --   -0.40383  -0.40257  -0.40171  -0.39495  -0.39306
 Alpha  occ. eigenvalues --   -0.38518  -0.38239  -0.37773  -0.37591  -0.37372
 Alpha  occ. eigenvalues --   -0.37299  -0.37160  -0.37116  -0.36741  -0.36711
 Alpha  occ. eigenvalues --   -0.36229  -0.36121  -0.34338  -0.34154  -0.33804
 Alpha  occ. eigenvalues --   -0.33795  -0.33238  -0.33074  -0.31433  -0.31182
 Alpha  occ. eigenvalues --   -0.31088  -0.30875  -0.30073  -0.29874  -0.29514
 Alpha  occ. eigenvalues --   -0.29378  -0.29229  -0.29109  -0.24133  -0.23934
 Alpha  occ. eigenvalues --   -0.21182  -0.21015
 Alpha virt. eigenvalues --   -0.08832  -0.08691  -0.01808  -0.01580  -0.00125
 Alpha virt. eigenvalues --    0.00062   0.02147   0.02304   0.03056   0.03319
 Alpha virt. eigenvalues --    0.04680   0.04817   0.05076   0.05219   0.06167

 Mulliken charges:
               1
     1  Mg   0.838538
     2  C   -0.002895
     3  C   -0.094071
     4  C   -0.046057
     5  C   -0.063969
     6  N   -0.256813
     7  C   -0.052306
     8  C   -0.013998
     9  C   -0.086995
    10  C    0.046312
    11  C    0.104791
    12  C    0.053443
    13  C   -0.072200
    14  H    0.037169
    15  N   -0.433082
    16  C    0.168264
    17  C   -0.177279
    18  C   -0.004297
    19  C    0.148615
    20  C    0.110175
    21  C    0.011871
    22  O   -0.249903
    23  C    0.062684
    24  N   -0.341136
    25  C    0.041258
    26  C   -0.028126
    27  C   -0.024021
    28  C    0.074905
    29  C    0.076169
    30  C    0.035121
    31  C   -0.004500
    32  N   -0.310502
    33  C    0.080500
    34  C   -0.169696
    35  C    0.008431
    36  C    0.083032
    37  C    0.127307
    38  C    0.046139
    39  O   -0.188197
    40  C   -0.005285
    41  C    0.212903
    42  O   -0.257098
    43  O   -0.304810
    44  C    0.157581
    45  H   -0.017521
    46  H   -0.017050
    47  H   -0.041387
    48  H    0.001114
    49  H   -0.003891
    50  H    0.025540
    51  H    0.016343
    52  H    0.016806
    53  H    0.011075
    54  H    0.044232
    55  H    0.017863
    56  H    0.018002
    57  H    0.006108
    58  H    0.026818
    59  H    0.038992
    60  H    0.037650
    61  H    0.035092
    62  H    0.030825
    63  H    0.016292
    64  H    0.009585
    65  H    0.023096
    66  H    0.012584
    67  H    0.004878
    68  H    0.006414
    69  H    0.004908
    70  H    0.008442
    71  H    0.018498
    72  H    0.028858
    73  H    0.047578
    74  H    0.009175
    75  H    0.046171
    76  H    0.035303
    77  H    0.043077
    78  H    0.046698
    79  H    0.053864
    80  Mg   0.838103
    81  C   -0.016959
    82  C   -0.087900
    83  C   -0.045386
    84  C   -0.063984
    85  N   -0.254540
    86  C   -0.049793
    87  C   -0.015066
    88  C   -0.090544
    89  C    0.045752
    90  C    0.114418
    91  C    0.062593
    92  C   -0.077658
    93  H    0.034570
    94  N   -0.423479
    95  C    0.162894
    96  C   -0.174644
    97  C   -0.007859
    98  C    0.152129
    99  C    0.099380
   100  C    0.015493
   101  O   -0.253267
   102  C    0.061226
   103  N   -0.349965
   104  C    0.037744
   105  C   -0.020006
   106  C   -0.035034
   107  C    0.088948
   108  C    0.073387
   109  C    0.034694
   110  C   -0.007640
   111  N   -0.324168
   112  C    0.078436
   113  C   -0.162639
   114  C    0.002196
   115  C    0.096344
   116  C    0.131430
   117  C    0.042462
   118  O   -0.188298
   119  C    0.000856
   120  C    0.211175
   121  O   -0.251040
   122  O   -0.305766
   123  C    0.152125
   124  H   -0.019810
   125  H   -0.015583
   126  H   -0.039899
   127  H   -0.001146
   128  H   -0.004641
   129  H    0.022268
   130  H    0.015097
   131  H    0.015530
   132  H    0.013978
   133  H    0.037658
   134  H    0.020337
   135  H    0.019493
   136  H    0.008619
   137  H    0.026241
   138  H    0.039511
   139  H    0.038276
   140  H    0.036186
   141  H    0.033751
   142  H    0.014131
   143  H    0.013655
   144  H    0.024759
   145  H    0.011830
   146  H    0.006926
   147  H    0.006346
   148  H    0.003892
   149  H    0.010768
   150  H    0.017737
   151  H    0.029897
   152  H    0.045577
   153  H    0.008772
   154  H    0.047942
   155  H    0.034771
   156  H    0.043535
   157  H    0.049302
   158  H    0.053570
 Sum of Mulliken charges =  -0.00000

 Dipole moment (field-independent basis, Debye):
    X=             -3.5532    Y=              1.9239    Z=              6.5374  Tot=              7.6853
 Quadrupole moment (field-independent basis, Debye-Ang):
   XX=           -518.8425   YY=           -518.1287   ZZ=           -480.8711
   XY=             32.3502   XZ=             -6.9533   YZ=            -17.5241

 Normal termination of Gaussian 16 at Sat Sep  4 09:52:49 2021.
