 Gaussian 16, Revision A.03,
 Gaussian 16:  ES64L-G16RevA.03 25-Dec-2016

 -----------------------------------
 #p cam-b3lyp/Def2SVP td=(nstates=5)
 -----------------------------------

 --------------------------------
 TDDFT excited states in gaussian
 --------------------------------
 Symbolic Z-matrix:
 Charge =  0 Multiplicity = 1

                         Standard orientation:
 ---------------------------------------------------------------------
 Center     Atomic      Atomic             Coordinates (Angstroms)
 Number     Number       Type             X           Y           Z
 ---------------------------------------------------------------------
      1         12           0        6.477728   -0.906242    0.327630
      2          6           0        7.004227    1.871010   -1.868250
      3          6           0        7.668871    1.055521    2.852650
      4          6           0        6.450273   -3.473624    2.188924
      5          6           0        6.417299   -2.941552   -2.500713
      6          7           0        7.210582    1.182374    0.363007
      7          6           0        7.304819    2.158119   -0.534886
      8          6           0        7.680842    3.536095    0.087339
      9          6           0        8.399343    3.024849    1.415640
     10          6           0        7.693576    1.689788    1.575103
     11          6           0        9.893577    2.772838    1.241692
     12          6           0        6.419734    4.404065    0.415919
     13          6           0        6.702124    5.878538    0.718477
     14          1           0        5.740147    6.879550    0.282675
     15          7           0        6.516259   -1.061634    2.296695
     16          6           0        7.024866   -0.159858    3.170425
     17          6           0        6.814917   -0.733814    4.516968
     18          6           0        6.315024   -2.126188    4.345226
     19          6           0        6.433611   -2.287260    2.918561
     20          6           0        7.036554    0.035441    5.783015
     21          6           0        5.820375   -3.152883    5.314427
     22          8           0        5.653337   -4.376341    4.983031
     23          6           0        5.618143   -2.701716    6.703165
     24          7           0        6.658273   -2.948163   -0.066828
     25          6           0        6.553191   -3.852240    0.913266
     26          6           0        6.431464   -5.242349    0.363066
     27          6           0        6.230182   -5.078138   -1.212458
     28          6           0        6.360488   -3.537940   -1.307749
     29          6           0        7.620897   -6.174760    0.631151
     30          6           0        4.982642   -5.752791   -1.836080
     31          6           0        3.728184   -5.065550   -1.345026
     32          7           0        6.495231   -0.602632   -1.821454
     33          6           0        6.486929   -1.594179   -2.813139
     34          6           0        6.616407   -0.907621   -4.111577
     35          6           0        6.708301    0.443193   -3.781876
     36          6           0        6.666919    0.588974   -2.365780
     37          6           0        6.695024   -1.539282   -5.384078
     38          6           0        6.856599    1.795323   -4.295304
     39          8           0        6.851288    2.301976   -5.418143
     40          6           0        7.176625    2.763459   -3.072142
     41          6           0        6.275780    3.962227   -3.193555
     42          8           0        5.040821    3.851346   -3.052311
     43          8           0        7.021187    5.077688   -3.219175
     44          6           0        6.187010    6.305795   -3.308940
     45          1           0        8.242054    1.495042    3.671322
     46          1           0        6.330783   -4.378708    2.788076
     47          1           0        6.321008   -3.504604   -3.430850
     48          1           0        8.376064    4.128827   -0.507436
     49          1           0        8.186423    3.670184    2.267655
     50          1           0       10.193928    2.862891    0.197852
     51          1           0       10.061006    1.756827    1.599715
     52          1           0       10.474733    3.421322    1.897819
     53          1           0        6.009550    4.092796    1.376607
     54          1           0        5.684226    4.335090   -0.386326
     55          1           0        7.710950    6.161283    0.416425
     56          1           0        6.695669    6.012540    1.800236
     57          1           0        7.560499    0.971970    5.596093
     58          1           0        7.728498   -0.546070    6.391922
     59          1           0        6.109217    0.196737    6.332889
     60          1           0        6.560176   -2.321485    7.098824
     61          1           0        5.177633   -3.545900    7.232461
     62          1           0        4.923788   -1.860990    6.703716
     63          1           0        5.566328   -5.754461    0.782240
     64          1           0        7.066234   -5.491761   -1.776911
     65          1           0        7.348577   -7.093363    1.151453
     66          1           0        8.368517   -5.614576    1.191998
     67          1           0        8.185438   -6.461991   -0.255532
     68          1           0        4.920005   -6.795083   -1.525194
     69          1           0        4.981236   -5.731115   -2.925933
     70          1           0        3.545517   -5.548676   -0.385832
     71          1           0        2.902462   -5.242756   -2.034948
     72          1           0        3.904576   -4.007794   -1.148750
     73          1           0        6.053002   -0.963514   -6.050612
     74          1           0        6.377419   -2.580325   -5.329681
     75          1           0        7.759616   -1.437949   -5.594389
     76          1           0        8.229337    3.032639   -3.152531
     77          1           0        6.525367    6.860368   -4.184266
     78          1           0        6.256580    6.799198   -2.339343
     79          1           0        5.134745    6.156942   -3.553725
     80         12           0       -6.643047    0.823172    0.579692
     81          6           0       -6.868518   -2.174649   -1.380233
     82          6           0       -5.604262    2.417611   -2.251088
     83          6           0       -6.003418    3.366269    2.366010
     84          6           0       -6.583835   -1.201190    3.415907
     85          7           0       -6.318414    0.106774   -1.487592
     86          6           0       -6.495887   -1.038636   -2.128593
     87          6           0       -6.338849   -0.944105   -3.670007
     88          6           0       -5.402220    0.358629   -3.736858
     89          6           0       -5.820533    1.027794   -2.429224
     90          6           0       -3.918928    0.038177   -3.656226
     91          6           0       -7.708672   -0.704604   -4.396812
     92          6           0       -7.676744   -0.909730   -5.912946
     93          1           0       -8.855229   -1.475514   -6.563736
     94          7           0       -6.386870    2.722640    0.064923
     95          6           0       -5.982578    3.193543   -1.133440
     96          6           0       -5.933062    4.657245   -0.994646
     97          6           0       -6.182100    5.001880    0.431515
     98          6           0       -6.179778    3.680417    1.026327
     99          6           0       -5.748249    5.579735   -2.164376
    100          6           0       -6.375885    6.305948    1.144302
    101          8           0       -6.340953    6.386044    2.423044
    102          6           0       -6.514526    7.500823    0.299004
    103          7           0       -6.124835    1.046461    2.580671
    104          6           0       -5.953788    2.266885    3.118475
    105          6           0       -5.858948    2.191269    4.623694
    106          6           0       -6.245644    0.686671    5.003493
    107          6           0       -6.417970    0.103602    3.583724
    108          6           0       -4.494475    2.532341    5.222245
    109          6           0       -7.397953    0.493121    6.026913
    110          6           0       -8.707281    0.945398    5.421547
    111          7           0       -6.896459   -1.282203    0.993448
    112          6           0       -6.806820   -1.921507    2.249376
    113          6           0       -6.937929   -3.373261    2.009259
    114          6           0       -7.072755   -3.480400    0.616842
    115          6           0       -7.008521   -2.188340    0.028656
    116          6           0       -6.875430   -4.389885    3.003592
    117          6           0       -7.244145   -4.393579   -0.490140
    118          8           0       -7.447710   -5.602380   -0.595567
    119          6           0       -6.992742   -3.599507   -1.843888
    120          6           0       -8.111599   -3.932611   -2.792428
    121          8           0       -9.278745   -3.585290   -2.539964
    122          8           0       -7.591042   -4.411237   -3.937113
    123          6           0       -8.661406   -4.745713   -4.913982
    124          1           0       -5.055234    2.960140   -3.021223
    125          1           0       -5.889901    4.219084    3.039296
    126          1           0       -6.673738   -1.891238    4.257584
    127          1           0       -5.836038   -1.787455   -4.127958
    128          1           0       -5.659212    0.986738   -4.585856
    129          1           0       -3.743240   -1.006719   -3.447725
    130          1           0       -3.527862    0.654370   -2.857219
    131          1           0       -3.411843    0.368475   -4.567320
    132          1           0       -7.952982    0.364730   -4.356989
    133          1           0       -8.480025   -1.312941   -3.966028
    134          1           0       -6.769421   -1.432518   -6.239145
    135          1           0       -7.609808    0.069005   -6.394206
    136          1           0       -5.426087    5.034199   -3.059925
    137          1           0       -4.902354    6.233419   -1.925565
    138          1           0       -6.628348    6.196890   -2.357275
    139          1           0       -5.630406    7.606126   -0.325257
    140          1           0       -6.733785    8.320741    0.985691
    141          1           0       -7.362672    7.353318   -0.378869
    142          1           0       -6.567537    2.864645    5.090138
    143          1           0       -5.400802    0.152267    5.462269
    144          1           0       -4.534845    3.356487    5.959279
    145          1           0       -3.818844    2.778006    4.413730
    146          1           0       -3.982527    1.702898    5.707167
    147          1           0       -7.231055    1.117924    6.907785
    148          1           0       -7.501238   -0.529999    6.372673
    149          1           0       -8.694256    2.027121    5.585283
    150          1           0       -9.547040    0.478923    5.932671
    151          1           0       -8.719467    0.776064    4.338569
    152          1           0       -7.669385   -5.090805    2.782571
    153          1           0       -6.977860   -3.974446    4.003933
    154          1           0       -5.870069   -4.779050    2.821703
    155          1           0       -6.021684   -3.910807   -2.230796
    156          1           0       -8.518601   -5.792826   -5.198329
    157          1           0       -8.579331   -3.989851   -5.717535
    158          1           0       -9.682817   -4.762215   -4.552200
 ---------------------------------------------------------------------

 SCF Done:  E(RCAM-B3LYP) =  -4069.81201200     A.U. after   19 cycles

 Excitation energies and oscillator strengths:

 Excited State   1:      Singlet-A      1.6726 eV  741.27 nm  f=0.2702  <S**2>=0.000
     310 -> 316        0.14752
     311 -> 313        0.35480
     312 -> 314        0.58726
 This state for optimization and/or second-order correction.
 Total Energy, E(TD-HF/TD-DFT) =  -4069.75054542
 Copying the excited state density for this state as the 1-particle RhoCI density.

 Excited State   2:      Singlet-A      1.6816 eV  737.28 nm  f=0.4620  <S**2>=0.000
     309 -> 315        0.15064
     311 -> 313        0.58676
     312 -> 314       -0.35463

 Excited State   3:      Singlet-A      2.1858 eV  567.22 nm  f=0.0966  <S**2>=0.000
     310 -> 314        0.64072
     312 -> 316       -0.27170

 Excited State   4:      Singlet-A      2.1927 eV  565.43 nm  f=0.1015  <S**2>=0.000
     309 -> 313        0.63891
     311 -> 315       -0.27745

 Excited State   5:      Singlet-A      2.6463 eV  468.51 nm  f=0.0000  <S**2>=0.000
     312 -> 313        0.70710

 The electronic state is 1-A.
 Alpha  occ. eigenvalues --  -46.87859 -46.87549 -19.26399 -19.26255 -19.19138
 Alpha  occ. eigenvalues --  -19.19065 -19.18865 -19.18625 -19.18257 -19.17950
 Alpha  occ. eigenvalues --  -14.42513 -14.42376 -14.41508 -14.41254 -14.39464
 Alpha  occ. eigenvalues --  -14.39240 -14.38654 -14.38491 -10.39193 -10.38994
 Alpha  occ. eigenvalues --  -10.35498 -10.35303 -10.34477 -10.34127 -10.31804
 Alpha  occ. eigenvalues --  -10.31668 -10.31473 -10.31180 -10.30971 -10.30898
 Alpha  occ. eigenvalues --  -10.30638 -10.30572 -10.30296 -10.30258 -10.30246
 Alpha  occ. eigenvalues --  -10.30039 -10.29980 -10.29801 -10.29696 -10.29324
 Alpha  occ. eigenvalues --  -10.29314 -10.29295 -10.28815 -10.28607 -10.28574
 Alpha  occ. eigenvalues --  -10.28523 -10.28431 -10.28291 -10.28179 -10.27970
 Alpha  occ. eigenvalues --  -10.27890 -10.27861 -10.27788 -10.27647 -10.27539
 Alpha  occ. eigenvalues --  -10.27536 -10.27533 -10.27486 -10.27471 -10.27450
 Alpha  occ. eigenvalues --  -10.27371 -10.27359 -10.27328 -10.27314 -10.27246
 Alpha  occ. eigenvalues --  -10.26945 -10.26776 -10.26562 -10.26454 -10.26329
 Alpha  occ. eigenvalues --  -10.26291 -10.26211 -10.26085 -10.26078 -10.25927
 Alpha  occ. eigenvalues --  -10.25831 -10.25793 -10.25758 -10.25464 -10.25359
 Alpha  occ. eigenvalues --  -10.24904 -10.24846 -10.24763 -10.24714 -10.24679
 Alpha  occ. eigenvalues --  -10.24589  -3.16602  -3.16299  -1.91484  -1.91181
 Alpha  occ. eigenvalues --   -1.91070  -1.90913  -1.90769  -1.90606  -1.16748
 Alpha  occ. eigenvalues --   -1.16548  -1.08718  -1.08558  -1.07265  -1.06879
 Alpha  occ. eigenvalues --   -1.06850  -1.06759  -1.04645  -1.04374  -1.03820
 Alpha  occ. eigenvalues --   -1.03552  -1.03297  -1.02934  -1.02474  -1.02003
 Alpha  occ. eigenvalues --   -0.92044  -0.91876  -0.89571  -0.89405  -0.89252
 Alpha  occ. eigenvalues --   -0.89000  -0.88334  -0.88140  -0.87943  -0.87735
 Alpha  occ. eigenvalues --   -0.87688  -0.87565  -0.87331  -0.87010  -0.85046
 Alpha  occ. eigenvalues --   -0.84868  -0.83984  -0.83804  -0.83017  -0.82838
 Alpha  occ. eigenvalues --   -0.82713  -0.82531  -0.81671  -0.81494  -0.80668
 Alpha  occ. eigenvalues --   -0.80336  -0.78859  -0.78524  -0.77278  -0.77028
 Alpha  occ. eigenvalues --   -0.77003  -0.76787  -0.75996  -0.75708  -0.74950
 Alpha  occ. eigenvalues --   -0.74720  -0.72838  -0.72590  -0.71733  -0.71467
 Alpha  occ. eigenvalues --   -0.69948  -0.69685  -0.68937  -0.68701  -0.67706
 Alpha  occ. eigenvalues --   -0.67497  -0.67283  -0.67081  -0.65354  -0.65145
 Alpha  occ. eigenvalues --   -0.64924  -0.64687  -0.64663  -0.64543  -0.64322
 Alpha  occ. eigenvalues --   -0.64117  -0.62386  -0.62180  -0.60497  -0.60238
 Alpha  occ. eigenvalues --   -0.59869  -0.59660  -0.59051  -0.58887  -0.58570
 Alpha  occ. eigenvalues --   -0.58321  -0.57672  -0.57451  -0.57370  -0.57143
 Alpha  occ. eigenvalues --   -0.56378  -0.56093  -0.56070  -0.55781  -0.55583
 Alpha  occ. eigenvalues --   -0.55403  -0.55346  -0.55164  -0.54596  -0.54404
 Alpha  occ. eigenvalues --   -0.53960  -0.53768  -0.53361  -0.53288  -0.53126
 Alpha  occ. eigenvalues --   -0.53029  -0.52991  -0.52813  -0.52791  -0.52549
 Alpha  occ. eigenvalues --   -0.52480  -0.52333  -0.51994  -0.51786  -0.51684
 Alpha  occ. eigenvalues --   -0.51533  -0.51265  -0.51098  -0.50622  -0.50368
 Alpha  occ. eigenvalues --   -0.50076  -0.49975  -0.49863  -0.49775  -0.49578
 Alpha  occ. eigenvalues --   -0.49371  -0.49286  -0.49164  -0.49083  -0.48972
 Alpha  occ. eigenvalues --   -0.48669  -0.48518  -0.48507  -0.48440  -0.48297
 Alpha  occ. eigenvalues --   -0.48236  -0.47756  -0.47481  -0.47357  -0.47012
 Alpha  occ. eigenvalues --   -0.46857  -0.46622  -0.46602  -0.46423  -0.46421
 Alpha  occ. eigenvalues --   -0.46230  -0.46168  -0.45994  -0.45904  -0.45719
 Alpha  occ. eigenvalues --   -0.45250  -0.45127  -0.44656  -0.44562  -0.44411
 Alpha  occ. eigenvalues --   -0.44349  -0.44204  -0.44150  -0.44089  -0.44003
 Alpha  occ. eigenvalues --   -0.43985  -0.43831  -0.43579  -0.43454  -0.43444
 Alpha  occ. eigenvalues --   -0.43271  -0.43092  -0.42832  -0.42798  -0.42794
 Alpha  occ. eigenvalues --   -0.42708  -0.42468  -0.42066  -0.41869  -0.41771
 Alpha  occ. eigenvalues --   -0.41596  -0.41562  -0.41340  -0.41202  -0.40927
 Alpha  occ. eigenvalues --   -0.40875  -0.40868  -0.40621  -0.40616  -0.40584
 Alpha  occ. eigenvalues --   -0.40399  -0.40299  -0.40101  -0.39478  -0.39356
 Alpha  occ. eigenvalues --   -0.38516  -0.38264  -0.37815  -0.37530  -0.37372
 Alpha  occ. eigenvalues --   -0.37332  -0.37170  -0.37074  -0.36807  -0.36679
 Alpha  occ. eigenvalues --   -0.36265  -0.36121  -0.34351  -0.34144  -0.33880
 Alpha  occ. eigenvalues --   -0.33764  -0.33253  -0.33066  -0.31395  -0.31184
 Alpha  occ. eigenvalues --   -0.31099  -0.30863  -0.30118  -0.29855  -0.29513
 Alpha  occ. eigenvalues --   -0.29392  -0.29219  -0.29104  -0.24144  -0.23924
 Alpha  occ. eigenvalues --   -0.21190  -0.21005
 Alpha virt. eigenvalues --   -0.08838  -0.08681  -0.01809  -0.01577  -0.00119
 Alpha virt. eigenvalues --    0.00082   0.02127   0.02308   0.03052   0.03328
 Alpha virt. eigenvalues --    0.04656   0.04856   0.04990   0.05264   0.06109

 Mulliken charges:
               1
     1  Mg   0.838625
     2  C   -0.003154
     3  C   -0.094093
     4  C   -0.045762
     5  C   -0.063922
     6  N   -0.256831
     7  C   -0.052528
     8  C   -0.014010
     9  C   -0.087038
    10  C    0.046403
    11  C    0.104767
    12  C    0.053450
    13  C   -0.071825
    14  H    0.035879
    15  N   -0.433183
    16  C    0.168534
    17  C   -0.177032
    18  C   -0.003876
    19  C    0.148766
    20  C    0.110134
    21  C    0.012359
    22  O   -0.249275
    23  C    0.062443
    24  N   -0.341126
    25  C    0.041320
    26  C   -0.028284
    27  C   -0.023972
    28  C    0.074782
    29  C    0.076091
    30  C    0.035075
    31  C   -0.004550
    32  N   -0.310355
    33  C    0.080207
    34  C   -0.170083
    35  C    0.008134
    36  C    0.082773
    37  C    0.127426
    38  C    0.045715
    39  O   -0.189002
    40  C   -0.005195
    41  C    0.212856
    42  O   -0.257800
    43  O   -0.304559
    44  C    0.157930
    45  H   -0.017430
    46  H   -0.016529
    47  H   -0.041502
    48  H    0.000887
    49  H   -0.003885
    50  H    0.025465
    51  H    0.016542
    52  H    0.016821
    53  H    0.011395
    54  H    0.043702
    55  H    0.017930
    56  H    0.018278
    57  H    0.005999
    58  H    0.027026
    59  H    0.039670
    60  H    0.037454
    61  H    0.035848
    62  H    0.031394
    63  H    0.016895
    64  H    0.009536
    65  H    0.023555
    66  H    0.012510
    67  H    0.004863
    68  H    0.006883
    69  H    0.004572
    70  H    0.009301
    71  H    0.018217
    72  H    0.028480
    73  H    0.046897
    74  H    0.009147
    75  H    0.046135
    76  H    0.035272
    77  H    0.042871
    78  H    0.046696
    79  H    0.052890
    80  Mg   0.838024
    81  C   -0.016800
    82  C   -0.087293
    83  C   -0.045604
    84  C   -0.065001
    85  N   -0.254625
    86  C   -0.049653
    87  C   -0.015122
    88  C   -0.090465
    89  C    0.045574
    90  C    0.114034
    91  C    0.062473
    92  C   -0.077825
    93  H    0.034380
    94  N   -0.423584
    95  C    0.162803
    96  C   -0.173962
    97  C   -0.008032
    98  C    0.152376
    99  C    0.099121
   100  C    0.015505
   101  O   -0.253691
   102  C    0.061227
   103  N   -0.350033
   104  C    0.037602
   105  C   -0.019765
   106  C   -0.034749
   107  C    0.088878
   108  C    0.073810
   109  C    0.034835
   110  C   -0.007605
   111  N   -0.324065
   112  C    0.078362
   113  C   -0.163293
   114  C    0.002223
   115  C    0.096109
   116  C    0.131504
   117  C    0.042233
   118  O   -0.188269
   119  C    0.001032
   120  C    0.211203
   121  O   -0.251138
   122  O   -0.305568
   123  C    0.152103
   124  H   -0.018222
   125  H   -0.016025
   126  H   -0.040801
   127  H   -0.000632
   128  H   -0.004110
   129  H    0.022103
   130  H    0.015535
   131  H    0.017989
   132  H    0.013836
   133  H    0.037350
   134  H    0.021048
   135  H    0.019838
   136  H    0.009568
   137  H    0.026729
   138  H    0.039495
   139  H    0.038522
   140  H    0.035922
   141  H    0.033881
   142  H    0.014116
   143  H    0.012138
   144  H    0.024471
   145  H    0.011887
   146  H    0.005144
   147  H    0.005757
   148  H    0.003534
   149  H    0.010749
   150  H    0.017712
   151  H    0.030377
   152  H    0.045735
   153  H    0.008235
   154  H    0.047029
   155  H    0.035086
   156  H    0.043649
   157  H    0.049670
   158  H    0.053408
 Sum of Mulliken charges =  -0.00000

 Dipole moment (field-independent basis, Debye):
    X=              4.6571    Y=              3.7728    Z=              1.4808  Tot=              6.1737
 Quadrupole moment (field-independent basis, Debye-Ang):
   XX=           -519.8086   YY=           -516.2390   ZZ=           -482.6268
   XY=            -13.9324   XZ=             43.0532   YZ=             13.6111

 Normal termination of Gaussian 16 at Sat Sep  4 07:03:27 2021.
