 Gaussian 16, Revision A.03,
 Gaussian 16:  ES64L-G16RevA.03 25-Dec-2016

 -----------------------------------
 #p cam-b3lyp/Def2SVP td=(nstates=5)
 -----------------------------------

 --------------------------------
 TDDFT excited states in gaussian
 --------------------------------
 Symbolic Z-matrix:
 Charge =  0 Multiplicity = 1

                         Standard orientation:
 ---------------------------------------------------------------------
 Center     Atomic      Atomic             Coordinates (Angstroms)
 Number     Number       Type             X           Y           Z
 ---------------------------------------------------------------------
      1         12           0        3.620139    1.144094    0.316543
      2          6           0        4.068403   -1.792749    2.313096
      3          6           0        4.942328   -0.609974   -2.294611
      4          6           0        3.656761    3.848099   -1.339851
      5          6           0        3.412887    2.953319    3.287976
      6          7           0        4.371257   -0.931954    0.153787
      7          6           0        4.432301   -1.974017    0.976921
      8          6           0        4.847995   -3.297708    0.268108
      9          6           0        5.622449   -2.681443   -0.981867
     10          6           0        4.913629   -1.341407   -1.070187
     11          6           0        7.104961   -2.436587   -0.719750
     12          6           0        3.610600   -4.143539   -0.184830
     13          6           0        3.918888   -5.588702   -0.587091
     14          1           0        2.946303   -6.625103   -0.275164
     15          7           0        3.747762    1.452102   -1.630685
     16          6           0        4.303472    0.623330   -2.546986
     17          6           0        4.150802    1.299109   -3.853392
     18          6           0        3.631941    2.671546   -3.597863
     19          6           0        3.683532    2.721910   -2.159051
     20          6           0        4.436765    0.631554   -5.163485
     21          6           0        3.173771    3.768034   -4.506667
     22          8           0        2.981480    4.961254   -4.089746
     23          6           0        3.039306    3.425111   -5.934030
     24          7           0        3.765323    3.150055    0.875717
     25          6           0        3.697819    4.126999   -0.035330
     26          6           0        3.539349    5.469590    0.614498
     27          6           0        3.267300    5.182574    2.161549
     28          6           0        3.405947    3.640266    2.143369
     29          6           0        4.732013    6.425657    0.474860
     30          6           0        1.986846    5.800814    2.776882
     31          6           0        0.762046    5.147813    2.176421
     32          7           0        3.541458    0.674605    2.434191
     33          6           0        3.479342    1.586100    3.498142
     34          6           0        3.554778    0.801412    4.744193
     35          6           0        3.672992   -0.519268    4.315618
     36          6           0        3.697909   -0.554840    2.892100
     37          6           0        3.569594    1.332719    6.064013
     38          6           0        3.808838   -1.906463    4.729252
     39          8           0        3.756195   -2.498797    5.808077
     40          6           0        4.192774   -2.775158    3.451054
     41          6           0        3.297343   -3.984011    3.437417
     42          8           0        2.069292   -3.868380    3.247979
     43          8           0        4.050074   -5.094531    3.411265
     44          6           0        3.222938   -6.329858    3.366935
     45          1           0        5.556154   -0.981861   -3.117325
     46          1           0        3.557361    4.796396   -1.872101
     47          1           0        3.269281    3.441977    4.253400
     48          1           0        5.520093   -3.931518    0.846893
     49          1           0        5.454279   -3.259674   -1.890212
     50          1           0        7.357797   -2.605993    0.326814
     51          1           0        7.280167   -1.395056   -0.989951
     52          1           0        7.721031   -3.029387   -1.396376
     53          1           0        3.242385   -3.760566   -1.136571
     54          1           0        2.838474   -4.140572    0.585325
     55          1           0        4.915102   -5.889242   -0.261295
     56          1           0        3.963240   -5.638328   -1.675103
     57          1           0        4.959373   -0.314157   -5.025436
     58          1           0        5.151064    1.261881   -5.692799
     59          1           0        3.537039    0.509029   -5.766655
     60          1           0        4.001658    3.081243   -6.313743
     61          1           0        2.616536    4.305740   -6.416326
     62          1           0        2.352752    2.583669   -6.031852
     63          1           0        2.690131    6.008579    0.196472
     64          1           0        4.073064    5.555093    2.794516
     65          1           0        4.476216    7.380583    0.015088
     66          1           0        5.509254    5.914284   -0.092314
     67          1           0        5.252818    6.645853    1.406360
     68          1           0        1.929853    6.863790    2.544976
     69          1           0        1.935569    5.694567    3.860548
     70          1           0        0.619596    5.703089    1.250025
     71          1           0       -0.095942    5.266975    2.838893
     72          1           0        0.956091    4.109345    1.907320
     73          1           0        2.902467    0.703880    6.653481
     74          1           0        3.246141    2.373319    6.075615
     75          1           0        4.624213    1.220433    6.315064
     76          1           0        5.242893   -3.044751    3.559177
     77          1           0        3.525356   -6.949111    4.211508
     78          1           0        3.341082   -6.746142    2.366358
     79          1           0        2.159335   -6.205477    3.573373
     80         12           0       -4.222657    0.077900   -0.277136
     81          6           0       -1.759484   -1.916991   -1.960061
     82          6           0       -6.316640   -2.607269   -0.476335
     83          6           0       -6.555317    1.943209    0.793747
     84          6           0       -2.390066    2.887975   -1.220959
     85          7           0       -3.957191   -1.945397   -1.130396
     86          6           0       -2.957324   -2.610649   -1.689033
     87          6           0       -3.230143   -4.124128   -1.899978
     88          6           0       -4.834884   -4.076310   -1.937178
     89          6           0       -5.061402   -2.818700   -1.100655
     90          6           0       -5.397637   -3.832839   -3.327635
     91          6           0       -2.709055   -4.997625   -0.705207
     92          6           0       -2.662774   -6.502178   -0.980801
     93          1           0       -1.579715   -7.284712   -0.391652
     94          7           0       -5.968571   -0.390996    0.541709
     95          6           0       -6.666815   -1.533188    0.371042
     96          6           0       -7.892114   -1.378941    1.170430
     97          6           0       -7.937817    0.012971    1.695041
     98          6           0       -6.808135    0.594552    0.998132
     99          6           0       -8.837608   -2.513866    1.437650
    100          6           0       -8.855140    0.709242    2.654154
    101          8           0       -8.852282    1.984445    2.783331
    102          6           0       -9.821249   -0.137420    3.369208
    103          7           0       -4.559165    2.125846   -0.399729
    104          6           0       -5.624422    2.688373    0.197522
    105          6           0       -5.511091    4.194164    0.209444
    106          6           0       -4.026904    4.517279   -0.290936
    107          6           0       -3.547607    3.082891   -0.604305
    108          6           0       -6.516854    4.943913   -0.663903
    109          6           0       -3.149613    5.404111    0.634573
    110          6           0       -2.829550    4.659594    1.910761
    111          7           0       -2.315471    0.445221   -1.223587
    112          6           0       -1.751616    1.698546   -1.548116
    113          6           0       -0.497390    1.434588   -2.282749
    114          6           0       -0.429748    0.035072   -2.355307
    115          6           0       -1.572073   -0.532707   -1.729028
    116          6           0        0.374765    2.422156   -2.821442
    117          6           0        0.342917   -1.090829   -2.828603
    118          8           0        1.446775   -1.227255   -3.354564
    119          6           0       -0.546782   -2.402129   -2.704792
    120          6           0        0.290303   -3.472154   -2.059163
    121          8           0        0.676499   -3.349108   -0.883449
    122          8           0        0.313571   -4.555017   -2.857439
    123          6           0        1.122604   -5.647784   -2.254832
    124          1           0       -7.125569   -3.307232   -0.687501
    125          1           0       -7.275727    2.631225    1.242194
    126          1           0       -1.712250    3.709224   -1.463423
    127          1           0       -2.848577   -4.529250   -2.829527
    128          1           0       -5.267397   -4.944043   -1.445926
    129          1           0       -4.620113   -3.613725   -4.044274
    130          1           0       -6.070021   -2.990619   -3.229536
    131          1           0       -6.017749   -4.679114   -3.636832
    132          1           0       -3.451033   -4.977465    0.103376
    133          1           0       -1.744566   -4.660216   -0.378810
    134          1           0       -2.763526   -6.728817   -2.049185
    135          1           0       -3.540820   -6.965717   -0.524525
    136          1           0       -8.630533   -3.371819    0.786148
    137          1           0       -9.834979   -2.177242    1.134693
    138          1           0       -8.865890   -2.799321    2.491391
    139          1           0      -10.447585   -0.658207    2.648833
    140          1           0      -10.326810    0.526510    4.073119
    141          1           0       -9.270447   -0.906870    3.921631
    142          1           0       -5.636387    4.583487    1.212352
    143          1           0       -4.028659    5.063612   -1.245578
    144          1           0       -7.122837    5.677875   -0.099856
    145          1           0       -7.154674    4.217764   -1.150145
    146          1           0       -6.086610    5.476857   -1.510110
    147          1           0       -3.697588    6.302688    0.928561
    148          1           0       -2.223940    5.728607    0.171080
    149          1           0       -3.717613    4.831743    2.526226
    150          1           0       -1.938086    5.070262    2.380535
    151          1           0       -2.758030    3.580823    1.729686
    152          1           0        1.383166    2.108649   -2.586219
    153          1           0        0.158905    3.407825   -2.414474
    154          1           0        0.118785    2.350859   -3.881940
    155          1           0       -0.861934   -2.680406   -3.711180
    156          1           0        1.886307   -5.922123   -2.989126
    157          1           0        0.397558   -6.431540   -1.965382
    158          1           0        1.734607   -5.402512   -1.394756
 ---------------------------------------------------------------------

 SCF Done:  E(RCAM-B3LYP) =  -4069.80857908     A.U. after   19 cycles

 Excitation energies and oscillator strengths:

 Excited State   1:      Singlet-A      1.6172 eV  766.68 nm  f=0.2496  <S**2>=0.000
     309 -> 315       -0.11518
     310 -> 316       -0.10542
     311 -> 313        0.48123
     312 -> 313       -0.14438
     312 -> 314       -0.46613
 This state for optimization and/or second-order correction.
 Total Energy, E(TD-HF/TD-DFT) =  -4069.74914981
 Copying the excited state density for this state as the 1-particle RhoCI density.

 Excited State   2:      Singlet-A      1.7050 eV  727.18 nm  f=0.5146  <S**2>=0.000
     309 -> 315       -0.12436
     310 -> 316        0.12842
     311 -> 313        0.47132
     312 -> 314        0.49381

 Excited State   3:      Singlet-A      2.0515 eV  604.37 nm  f=0.0006  <S**2>=0.000
     311 -> 313        0.12924
     312 -> 313        0.68709

 Excited State   4:      Singlet-A      2.1707 eV  571.17 nm  f=0.0040  <S**2>=0.000
     309 -> 313        0.50684
     310 -> 314       -0.40148
     311 -> 315        0.20475
     312 -> 316        0.16158

 Excited State   5:      Singlet-A      2.1959 eV  564.63 nm  f=0.1549  <S**2>=0.000
     309 -> 313        0.39459
     310 -> 314        0.49565
     311 -> 315        0.16801
     312 -> 316       -0.21640

 The electronic state is 1-A.
 Alpha  occ. eigenvalues --  -46.87586 -46.86974 -19.26551 -19.25662 -19.19493
 Alpha  occ. eigenvalues --  -19.18654 -19.18513 -19.18390 -19.18265 -19.17435
 Alpha  occ. eigenvalues --  -14.42414 -14.41574 -14.41301 -14.40714 -14.39289
 Alpha  occ. eigenvalues --  -14.38715 -14.38559 -14.37760 -10.39328 -10.38332
 Alpha  occ. eigenvalues --  -10.35329 -10.34982 -10.34537 -10.33656 -10.31708
 Alpha  occ. eigenvalues --  -10.31282 -10.31249 -10.30983 -10.30557 -10.30347
 Alpha  occ. eigenvalues --  -10.30333 -10.30026 -10.30000 -10.29858 -10.29835
 Alpha  occ. eigenvalues --  -10.29789 -10.29473 -10.29360 -10.29341 -10.29327
 Alpha  occ. eigenvalues --  -10.29003 -10.28677 -10.28604 -10.28408 -10.28398
 Alpha  occ. eigenvalues --  -10.28394 -10.28107 -10.27943 -10.27868 -10.27602
 Alpha  occ. eigenvalues --  -10.27492 -10.27449 -10.27426 -10.27399 -10.27374
 Alpha  occ. eigenvalues --  -10.27290 -10.27265 -10.27262 -10.27068 -10.27064
 Alpha  occ. eigenvalues --  -10.26961 -10.26910 -10.26830 -10.26587 -10.26568
 Alpha  occ. eigenvalues --  -10.26492 -10.26417 -10.26334 -10.26031 -10.25949
 Alpha  occ. eigenvalues --  -10.25946 -10.25943 -10.25819 -10.25558 -10.25470
 Alpha  occ. eigenvalues --  -10.25305 -10.25277 -10.25219 -10.25127 -10.25079
 Alpha  occ. eigenvalues --  -10.24880 -10.24647 -10.24636 -10.24408 -10.24135
 Alpha  occ. eigenvalues --  -10.24024  -3.16334  -3.15712  -1.91215  -1.90804
 Alpha  occ. eigenvalues --   -1.90642  -1.90592  -1.90180  -1.90025  -1.16887
 Alpha  occ. eigenvalues --   -1.15986  -1.09039  -1.07908  -1.07267  -1.06903
 Alpha  occ. eigenvalues --   -1.06786  -1.05902  -1.04440  -1.03742  -1.03603
 Alpha  occ. eigenvalues --   -1.03036  -1.02981  -1.02499  -1.02066  -1.01635
 Alpha  occ. eigenvalues --   -0.92024  -0.91177  -0.89414  -0.89100  -0.88998
 Alpha  occ. eigenvalues --   -0.88382  -0.88118  -0.87766  -0.87642  -0.87568
 Alpha  occ. eigenvalues --   -0.87124  -0.87059  -0.86864  -0.86560  -0.84944
 Alpha  occ. eigenvalues --   -0.84357  -0.83799  -0.83500  -0.82857  -0.82627
 Alpha  occ. eigenvalues --   -0.82392  -0.82061  -0.81597  -0.80958  -0.80423
 Alpha  occ. eigenvalues --   -0.79915  -0.78550  -0.78048  -0.77057  -0.76951
 Alpha  occ. eigenvalues --   -0.76652  -0.76344  -0.75801  -0.75246  -0.74748
 Alpha  occ. eigenvalues --   -0.74352  -0.72594  -0.72063  -0.71548  -0.70983
 Alpha  occ. eigenvalues --   -0.69707  -0.69471  -0.68797  -0.68212  -0.67574
 Alpha  occ. eigenvalues --   -0.67135  -0.66960  -0.66560  -0.65255  -0.64759
 Alpha  occ. eigenvalues --   -0.64638  -0.64537  -0.64177  -0.64113  -0.64007
 Alpha  occ. eigenvalues --   -0.63642  -0.62397  -0.61657  -0.60281  -0.59800
 Alpha  occ. eigenvalues --   -0.59739  -0.59086  -0.58922  -0.58450  -0.58299
 Alpha  occ. eigenvalues --   -0.57806  -0.57704  -0.57207  -0.56861  -0.56689
 Alpha  occ. eigenvalues --   -0.56186  -0.55991  -0.55602  -0.55506  -0.55326
 Alpha  occ. eigenvalues --   -0.55286  -0.54956  -0.54842  -0.54489  -0.53979
 Alpha  occ. eigenvalues --   -0.53872  -0.53266  -0.53195  -0.53055  -0.52951
 Alpha  occ. eigenvalues --   -0.52826  -0.52647  -0.52505  -0.52331  -0.52300
 Alpha  occ. eigenvalues --   -0.52179  -0.52016  -0.51658  -0.51551  -0.51242
 Alpha  occ. eigenvalues --   -0.51206  -0.50839  -0.50554  -0.50403  -0.50040
 Alpha  occ. eigenvalues --   -0.49945  -0.49802  -0.49548  -0.49398  -0.49276
 Alpha  occ. eigenvalues --   -0.49259  -0.49132  -0.48898  -0.48585  -0.48558
 Alpha  occ. eigenvalues --   -0.48416  -0.48311  -0.48274  -0.47993  -0.47883
 Alpha  occ. eigenvalues --   -0.47761  -0.47544  -0.47150  -0.47012  -0.46710
 Alpha  occ. eigenvalues --   -0.46583  -0.46499  -0.46309  -0.46107  -0.45981
 Alpha  occ. eigenvalues --   -0.45894  -0.45800  -0.45575  -0.45525  -0.45352
 Alpha  occ. eigenvalues --   -0.45145  -0.44776  -0.44502  -0.44385  -0.44197
 Alpha  occ. eigenvalues --   -0.44086  -0.44011  -0.43904  -0.43831  -0.43690
 Alpha  occ. eigenvalues --   -0.43564  -0.43385  -0.43325  -0.43175  -0.42920
 Alpha  occ. eigenvalues --   -0.42839  -0.42749  -0.42637  -0.42572  -0.42321
 Alpha  occ. eigenvalues --   -0.42184  -0.42053  -0.41824  -0.41658  -0.41449
 Alpha  occ. eigenvalues --   -0.41294  -0.41007  -0.40955  -0.40861  -0.40654
 Alpha  occ. eigenvalues --   -0.40617  -0.40493  -0.40373  -0.40270  -0.40248
 Alpha  occ. eigenvalues --   -0.40146  -0.39979  -0.39507  -0.39333  -0.38935
 Alpha  occ. eigenvalues --   -0.38245  -0.37934  -0.37581  -0.37188  -0.37154
 Alpha  occ. eigenvalues --   -0.37088  -0.36810  -0.36680  -0.36491  -0.36192
 Alpha  occ. eigenvalues --   -0.36008  -0.35490  -0.34226  -0.33986  -0.33491
 Alpha  occ. eigenvalues --   -0.33132  -0.32991  -0.32335  -0.31211  -0.30925
 Alpha  occ. eigenvalues --   -0.30880  -0.30350  -0.30201  -0.29311  -0.29298
 Alpha  occ. eigenvalues --   -0.29198  -0.28747  -0.28547  -0.23983  -0.23274
 Alpha  occ. eigenvalues --   -0.21071  -0.20288
 Alpha virt. eigenvalues --   -0.08765  -0.07951  -0.01623  -0.01094  -0.00019
 Alpha virt. eigenvalues --    0.00667   0.02076   0.02882   0.03186   0.04554
 Alpha virt. eigenvalues --    0.04713   0.04810   0.05194   0.05844   0.06033

 Mulliken charges:
               1
     1  Mg   0.834731
     2  C    0.003649
     3  C   -0.077391
     4  C   -0.044056
     5  C   -0.066169
     6  N   -0.257372
     7  C   -0.044113
     8  C    0.000861
     9  C   -0.092407
    10  C    0.054593
    11  C    0.105976
    12  C    0.036948
    13  C   -0.090850
    14  H    0.032712
    15  N   -0.438854
    16  C    0.196151
    17  C   -0.160820
    18  C   -0.017002
    19  C    0.118536
    20  C    0.119418
    21  C    0.013599
    22  O   -0.255157
    23  C    0.065574
    24  N   -0.340442
    25  C    0.042350
    26  C   -0.027764
    27  C   -0.022333
    28  C    0.073662
    29  C    0.077109
    30  C    0.041697
    31  C   -0.032278
    32  N   -0.309150
    33  C    0.079298
    34  C   -0.172238
    35  C    0.006637
    36  C    0.082225
    37  C    0.127802
    38  C    0.045604
    39  O   -0.192059
    40  C   -0.007281
    41  C    0.211714
    42  O   -0.252044
    43  O   -0.305976
    44  C    0.159590
    45  H   -0.021365
    46  H   -0.022811
    47  H   -0.044974
    48  H   -0.005884
    49  H   -0.003982
    50  H    0.024225
    51  H    0.015845
    52  H    0.013910
    53  H    0.024285
    54  H    0.063630
    55  H    0.015862
    56  H    0.013973
    57  H    0.006250
    58  H    0.020654
    59  H    0.043998
    60  H    0.037701
    61  H    0.032138
    62  H    0.031596
    63  H    0.011989
    64  H    0.008268
    65  H    0.021024
    66  H    0.013207
    67  H    0.004048
    68  H    0.003540
    69  H    0.003690
    70  H    0.007847
    71  H    0.041409
    72  H    0.035652
    73  H    0.045566
    74  H    0.006992
    75  H    0.044115
    76  H    0.033048
    77  H    0.040652
    78  H    0.044241
    79  H    0.052591
    80  Mg   0.841617
    81  C   -0.015436
    82  C   -0.088037
    83  C   -0.044997
    84  C   -0.066991
    85  N   -0.255189
    86  C   -0.049286
    87  C   -0.016385
    88  C   -0.090679
    89  C    0.047245
    90  C    0.114580
    91  C    0.061906
    92  C   -0.077328
    93  H    0.033860
    94  N   -0.423401
    95  C    0.164273
    96  C   -0.174471
    97  C   -0.007191
    98  C    0.152525
    99  C    0.099423
   100  C    0.016079
   101  O   -0.252948
   102  C    0.060919
   103  N   -0.349948
   104  C    0.037923
   105  C   -0.020370
   106  C   -0.032171
   107  C    0.089082
   108  C    0.073747
   109  C    0.031527
   110  C    0.004716
   111  N   -0.322836
   112  C    0.075362
   113  C   -0.164896
   114  C    0.000065
   115  C    0.097636
   116  C    0.128925
   117  C    0.041687
   118  O   -0.195835
   119  C    0.008633
   120  C    0.212026
   121  O   -0.241846
   122  O   -0.306856
   123  C    0.160639
   124  H   -0.019924
   125  H   -0.015327
   126  H   -0.037388
   127  H   -0.002330
   128  H   -0.004022
   129  H    0.021401
   130  H    0.014473
   131  H    0.016054
   132  H    0.015885
   133  H    0.042109
   134  H    0.019240
   135  H    0.019858
   136  H    0.008789
   137  H    0.025978
   138  H    0.040637
   139  H    0.038014
   140  H    0.036516
   141  H    0.034713
   142  H    0.014885
   143  H    0.012884
   144  H    0.024933
   145  H    0.011135
   146  H    0.005953
   147  H    0.004717
   148  H    0.004790
   149  H    0.006735
   150  H    0.001848
   151  H    0.030407
   152  H    0.069360
   153  H    0.015768
   154  H    0.035130
   155  H    0.032896
   156  H    0.039937
   157  H    0.046102
   158  H    0.042938
 Sum of Mulliken charges =  -0.00000

 Dipole moment (field-independent basis, Debye):
    X=             -1.8291    Y=             -3.2562    Z=             -4.8254  Tot=              6.1019
 Quadrupole moment (field-independent basis, Debye-Ang):
   XX=           -486.1266   YY=           -469.6754   ZZ=           -527.2483
   XY=             20.4671   XZ=             -7.1043   YZ=             29.0414

 Normal termination of Gaussian 16 at Wed Sep  8 22:20:54 2021.
