 Gaussian 16, Revision A.03,
 Gaussian 16:  ES64L-G16RevA.03 25-Dec-2016

 -----------------------------------
 #p cam-b3lyp/Def2SVP td=(nstates=5)
 -----------------------------------

 --------------------------------
 TDDFT excited states in gaussian
 --------------------------------
 Symbolic Z-matrix:
 Charge =  0 Multiplicity = 1

                         Standard orientation:
 ---------------------------------------------------------------------
 Center     Atomic      Atomic             Coordinates (Angstroms)
 Number     Number       Type             X           Y           Z
 ---------------------------------------------------------------------
      1         12           0        6.640398    0.698708    0.870584
      2          6           0        7.201109   -2.493398   -0.648717
      3          6           0        7.895794    2.106331   -1.972943
      4          6           0        6.579533    3.498052    2.359404
      5          6           0        6.510947   -0.949196    3.938696
      6          7           0        7.415570   -0.186316   -1.004646
      7          6           0        7.520601   -1.421388   -1.484997
      8          6           0        7.930490   -1.467179   -2.987418
      9          6           0        8.651622   -0.049291   -3.094933
     10          6           0        7.920666    0.680028   -1.981506
     11          6           0       10.138673   -0.095000   -2.758640
     12          6           0        6.690467   -1.552911   -3.939638
     13          6           0        7.005536   -1.928282   -5.390563
     14          1           0        6.059697   -2.759225   -6.120130
     15          7           0        6.695247    2.536146    0.146937
     16          6           0        7.230564    2.925359   -1.035110
     17          6           0        7.022395    4.387186   -1.115164
     18          6           0        6.492829    4.844065    0.199718
     19          6           0        6.594031    3.632889    0.973145
     20          6           0        7.272017    5.187077   -2.356781
     21          6           0        5.987164    6.165581    0.685546
     22          8           0        5.792199    6.404857    1.926235
     23          6           0        5.807817    7.215345   -0.333705
     24          7           0        6.775787    1.240576    2.881972
     25          6           0        6.662172    2.518049    3.261629
     26          6           0        6.506981    2.633875    4.749056
     27          6           0        6.293490    1.146172    5.288422
     28          6           0        6.453906    0.384481    3.949630
     29          6           0        7.679945    3.284006    5.495712
     30          6           0        5.026484    0.882006    6.140085
     31          6           0        3.791068    1.021590    5.279061
     32          7           0        6.642780   -1.365540    1.541345
     33          6           0        6.604665   -1.821343    2.867039
     34          6           0        6.735131   -3.289372    2.823026
     35          6           0        6.857524   -3.586071    1.466989
     36          6           0        6.833093   -2.377680    0.713672
     37          6           0        6.788400   -4.155465    3.950625
     38          6           0        7.027999   -4.640911    0.481034
     39          8           0        7.021815   -5.872190    0.518538
     40          6           0        7.379574   -3.966853   -0.918205
     41          6           0        6.501951   -4.602121   -1.962006
     42          8           0        5.266463   -4.426512   -1.952140
     43          8           0        7.269429   -5.114787   -2.936014
     44          6           0        6.459362   -5.734498   -4.018559
     45          1           0        8.485796    2.648978   -2.714140
     46          1           0        6.447728    4.433686    2.906813
     47          1           0        6.394121   -1.537783    4.850491
     48          1           0        8.631621   -2.261787   -3.243228
     49          1           0        8.460203    0.432992   -4.053309
     50          1           0       10.430447   -1.072438   -2.374708
     51          1           0       10.289093    0.672661   -1.999322
     52          1           0       10.739256    0.209875   -3.616036
     53          1           0        6.283601   -0.553080   -4.090833
     54          1           0        5.945823   -2.243444   -3.542153
     55          1           0        8.016827   -2.323814   -5.489325
     56          1           0        7.012480   -1.015128   -5.985795
     57          1           0        7.812883    4.608025   -3.104249
     58          1           0        7.958069    5.989424   -2.086079
     59          1           0        6.353605    5.610366   -2.763817
     60          1           0        6.761198    7.403927   -0.827720
     61          1           0        5.355613    8.061488    0.182439
     62          1           0        5.130610    6.846822   -1.104763
     63          1           0        5.635872    3.235318    5.005687
     64          1           0        7.115404    0.820543    5.926465
     65          1           0        7.394298    4.154729    6.086433
     66          1           0        8.444228    3.542025    4.763189
     67          1           0        8.229782    2.613376    6.155525
     68          1           0        4.945900    1.618854    6.938525
     69          1           0        5.014742   -0.106755    6.598849
     70          1           0        3.608178    2.095509    5.288012
     71          1           0        2.955157    0.479489    5.722449
     72          1           0        3.990704    0.733642    4.246725
     73          1           0        6.151571   -5.007072    3.711491
     74          1           0        6.450402   -3.649618    4.854770
     75          1           0        7.852689   -4.388937    3.975816
     76          1           0        8.436658   -4.157264   -1.101070
     77          1           0        6.800174   -6.764426   -4.124995
     78          1           0        6.548457   -5.079883   -4.885707
     79          1           0        5.401939   -5.889078   -3.801074
     80         12           0       -6.429478    0.180771   -1.081093
     81          6           0       -7.881073   -1.423582    1.782121
     82          6           0       -8.306929    2.922242   -0.310275
     83          6           0       -5.516633    1.458090   -3.838375
     84          6           0       -5.575596   -2.989090   -2.250938
     85          7           0       -7.869454    0.576878    0.550426
     86          6           0       -8.294816   -0.085463    1.615650
     87          6           0       -9.151275    0.757956    2.597823
     88          6           0       -9.672736    1.872563    1.566017
     89          6           0       -8.532152    1.819312    0.551660
     90          6           0      -10.959787    1.482486    0.858441
     91          6           0       -8.291353    1.394950    3.745339
     92          6           0       -9.099316    1.972638    4.909478
     93          1           0       -8.550446    1.865628    6.258468
     94          7           0       -6.455252    2.068501   -1.692980
     95          6           0       -7.267335    3.054221   -1.256934
     96          6           0       -6.903299    4.248872   -2.034401
     97          6           0       -5.923346    3.847423   -3.079992
     98          6           0       -5.943284    2.407157   -2.920867
     99          6           0       -7.411790    5.621748   -1.702643
    100          6           0       -5.113179    4.629369   -4.069127
    101          8           0       -4.505427    4.058724   -5.042695
    102          6           0       -5.128677    6.091808   -3.919044
    103          7           0       -5.847049   -0.650106   -2.895688
    104          6           0       -5.448831    0.128965   -3.916661
    105          6           0       -4.818098   -0.692360   -5.015751
    106          6           0       -4.656089   -2.164710   -4.412818
    107          6           0       -5.332485   -1.952108   -3.040707
    108          6           0       -5.601221   -0.762794   -6.326532
    109          6           0       -3.233140   -2.786571   -4.447010
    110          6           0       -2.316285   -2.029056   -3.513768
    111          7           0       -6.502547   -1.834832   -0.306451
    112          6           0       -6.118460   -3.019151   -0.972741
    113          6           0       -6.459887   -4.148881   -0.084174
    114          6           0       -7.044574   -3.540009    1.036494
    115          6           0       -7.084420   -2.131754    0.850146
    116          6           0       -6.266774   -5.527757   -0.380039
    117          6           0       -7.646806   -3.769175    2.330136
    118          8           0       -7.805702   -4.752391    3.052474
    119          6           0       -8.330248   -2.418810    2.815749
    120          6           0       -7.921923   -2.178832    4.243403
    121          8           0       -6.734316   -1.947230    4.530720
    122          8           0       -9.025861   -2.047066    5.001236
    123          6           0       -8.672492   -1.796502    6.423974
    124          1           0       -9.017410    3.749133   -0.291246
    125          1           0       -5.089365    1.854313   -4.762451
    126          1           0       -5.252146   -4.001775   -2.500963
    127          1           0       -9.992365    0.232287    3.033737
    128          1           0       -9.721257    2.852287    2.034146
    129          1           0      -11.248959    0.465831    1.079629
    130          1           0      -10.760700    1.597671   -0.198973
    131          1           0      -11.752171    2.198167    1.095639
    132          1           0       -7.818470    2.312170    3.371414
    133          1           0       -7.572651    0.691381    4.118276
    134          1           0      -10.143907    1.638746    4.892005
    135          1           0       -9.162201    3.056322    4.784233
    136          1           0       -8.243219    5.580978   -0.988173
    137          1           0       -7.858956    6.026701   -2.616942
    138          1           0       -6.619501    6.295023   -1.368529
    139          1           0       -6.152563    6.451211   -3.989312
    140          1           0       -4.421656    6.469158   -4.660404
    141          1           0       -4.774935    6.344027   -2.913126
    142          1           0       -3.838548   -0.307909   -5.272246
    143          1           0       -5.270831   -2.897386   -4.956064
    144          1           0       -5.019859   -0.415653   -7.201504
    145          1           0       -6.505815   -0.179781   -6.215442
    146          1           0       -5.990618   -1.747473   -6.579505
    147          1           0       -2.803252   -2.693829   -5.447385
    148          1           0       -3.215405   -3.839252   -4.185188
    149          1           0       -1.997771   -1.175562   -4.119725
    150          1           0       -1.468157   -2.646655   -3.225169
    151          1           0       -2.869168   -1.634454   -2.653378
    152          1           0       -5.865778   -5.984996    0.514744
    153          1           0       -5.600195   -5.662602   -1.229313
    154          1           0       -7.293360   -5.822868   -0.613062
    155          1           0       -9.409072   -2.542545    2.713776
    156          1           0       -9.172870   -2.567484    7.018015
    157          1           0       -8.955648   -0.745526    6.621490
    158          1           0       -7.639165   -1.941362    6.716739
 ---------------------------------------------------------------------

 SCF Done:  E(RCAM-B3LYP) =  -4069.81181238     A.U. after   19 cycles

 Excitation energies and oscillator strengths:

 Excited State   1:      Singlet-A      1.6652 eV  744.54 nm  f=0.0096  <S**2>=0.000
     309 -> 315       -0.10953
     310 -> 316        0.13167
     311 -> 313        0.52910
     312 -> 314       -0.43760
 This state for optimization and/or second-order correction.
 Total Energy, E(TD-HF/TD-DFT) =  -4069.75061559
 Copying the excited state density for this state as the 1-particle RhoCI density.

 Excited State   2:      Singlet-A      1.6888 eV  734.17 nm  f=0.7356  <S**2>=0.000
     309 -> 315        0.13705
     310 -> 316        0.11270
     311 -> 313        0.43674
     312 -> 314        0.52794

 Excited State   3:      Singlet-A      2.1847 eV  567.51 nm  f=0.0539  <S**2>=0.000
     309 -> 314        0.16962
     310 -> 313        0.62017
     311 -> 316       -0.26255

 Excited State   4:      Singlet-A      2.1929 eV  565.40 nm  f=0.1380  <S**2>=0.000
     309 -> 314        0.61799
     310 -> 313       -0.16825
     312 -> 315       -0.26879

 Excited State   5:      Singlet-A      2.7134 eV  456.94 nm  f=0.0000  <S**2>=0.000
     312 -> 313        0.70709

 The electronic state is 1-A.
 Alpha  occ. eigenvalues --  -46.87677 -46.87555 -19.26265 -19.26213 -19.19069
 Alpha  occ. eigenvalues --  -19.18941 -19.18712 -19.18647 -19.18060 -19.17950
 Alpha  occ. eigenvalues --  -14.42397 -14.42336 -14.41330 -14.41251 -14.39285
 Alpha  occ. eigenvalues --  -14.39251 -14.38491 -14.38467 -10.38999 -10.38999
 Alpha  occ. eigenvalues --  -10.35347 -10.35327 -10.34282 -10.34128 -10.31681
 Alpha  occ. eigenvalues --  -10.31625 -10.31291 -10.31205 -10.30933 -10.30802
 Alpha  occ. eigenvalues --  -10.30451 -10.30389 -10.30291 -10.30252 -10.30086
 Alpha  occ. eigenvalues --  -10.30034 -10.29800 -10.29782 -10.29513 -10.29337
 Alpha  occ. eigenvalues --  -10.29298 -10.29137 -10.28654 -10.28636 -10.28584
 Alpha  occ. eigenvalues --  -10.28467 -10.28307 -10.28252 -10.28056 -10.28018
 Alpha  occ. eigenvalues --  -10.27899 -10.27676 -10.27612 -10.27570 -10.27469
 Alpha  occ. eigenvalues --  -10.27390 -10.27384 -10.27383 -10.27370 -10.27369
 Alpha  occ. eigenvalues --  -10.27368 -10.27327 -10.27292 -10.27263 -10.27060
 Alpha  occ. eigenvalues --  -10.26956 -10.26618 -10.26612 -10.26375 -10.26317
 Alpha  occ. eigenvalues --  -10.26141 -10.26025 -10.25949 -10.25948 -10.25895
 Alpha  occ. eigenvalues --  -10.25816 -10.25711 -10.25707 -10.25327 -10.25313
 Alpha  occ. eigenvalues --  -10.24769 -10.24716 -10.24672 -10.24588 -10.24501
 Alpha  occ. eigenvalues --  -10.24483  -3.16420  -3.16305  -1.91301  -1.91187
 Alpha  occ. eigenvalues --   -1.90888  -1.90775  -1.90730  -1.90612  -1.16559
 Alpha  occ. eigenvalues --   -1.16557  -1.08557  -1.08520  -1.07114  -1.06902
 Alpha  occ. eigenvalues --   -1.06854  -1.06563  -1.04468  -1.04396  -1.03643
 Alpha  occ. eigenvalues --   -1.03560  -1.03115  -1.02932  -1.02293  -1.02006
 Alpha  occ. eigenvalues --   -0.91886  -0.91862  -0.89391  -0.89368  -0.89088
 Alpha  occ. eigenvalues --   -0.89062  -0.88161  -0.88095  -0.87748  -0.87680
 Alpha  occ. eigenvalues --   -0.87583  -0.87561  -0.87162  -0.87036  -0.84910
 Alpha  occ. eigenvalues --   -0.84881  -0.83807  -0.83741  -0.82857  -0.82848
 Alpha  occ. eigenvalues --   -0.82563  -0.82547  -0.81499  -0.81489  -0.80491
 Alpha  occ. eigenvalues --   -0.80347  -0.78682  -0.78539  -0.77103  -0.77042
 Alpha  occ. eigenvalues --   -0.76832  -0.76794  -0.75822  -0.75745  -0.74782
 Alpha  occ. eigenvalues --   -0.74693  -0.72655  -0.72590  -0.71563  -0.71484
 Alpha  occ. eigenvalues --   -0.69766  -0.69603  -0.68769  -0.68735  -0.67531
 Alpha  occ. eigenvalues --   -0.67505  -0.67122  -0.67118  -0.65183  -0.65179
 Alpha  occ. eigenvalues --   -0.64744  -0.64664  -0.64555  -0.64512  -0.64144
 Alpha  occ. eigenvalues --   -0.64078  -0.62203  -0.62180  -0.60328  -0.60246
 Alpha  occ. eigenvalues --   -0.59704  -0.59699  -0.58889  -0.58873  -0.58391
 Alpha  occ. eigenvalues --   -0.58322  -0.57484  -0.57456  -0.57195  -0.57131
 Alpha  occ. eigenvalues --   -0.56197  -0.56103  -0.55892  -0.55797  -0.55413
 Alpha  occ. eigenvalues --   -0.55367  -0.55224  -0.55131  -0.54415  -0.54369
 Alpha  occ. eigenvalues --   -0.53826  -0.53796  -0.53186  -0.53128  -0.53120
 Alpha  occ. eigenvalues --   -0.53050  -0.52811  -0.52805  -0.52653  -0.52596
 Alpha  occ. eigenvalues --   -0.52293  -0.52231  -0.51789  -0.51760  -0.51576
 Alpha  occ. eigenvalues --   -0.51517  -0.51090  -0.51082  -0.50464  -0.50398
 Alpha  occ. eigenvalues --   -0.49905  -0.49889  -0.49811  -0.49746  -0.49413
 Alpha  occ. eigenvalues --   -0.49406  -0.49112  -0.49107  -0.49009  -0.48995
 Alpha  occ. eigenvalues --   -0.48490  -0.48465  -0.48348  -0.48341  -0.48269
 Alpha  occ. eigenvalues --   -0.48260  -0.47587  -0.47499  -0.47189  -0.47027
 Alpha  occ. eigenvalues --   -0.46679  -0.46598  -0.46465  -0.46457  -0.46242
 Alpha  occ. eigenvalues --   -0.46162  -0.46049  -0.45978  -0.45717  -0.45715
 Alpha  occ. eigenvalues --   -0.45096  -0.45082  -0.44471  -0.44423  -0.44397
 Alpha  occ. eigenvalues --   -0.44371  -0.44036  -0.44026  -0.43985  -0.43953
 Alpha  occ. eigenvalues --   -0.43914  -0.43856  -0.43447  -0.43394  -0.43290
 Alpha  occ. eigenvalues --   -0.43276  -0.42915  -0.42835  -0.42799  -0.42610
 Alpha  occ. eigenvalues --   -0.42527  -0.42425  -0.41885  -0.41831  -0.41593
 Alpha  occ. eigenvalues --   -0.41567  -0.41431  -0.41356  -0.41033  -0.40894
 Alpha  occ. eigenvalues --   -0.40761  -0.40720  -0.40648  -0.40599  -0.40448
 Alpha  occ. eigenvalues --   -0.40366  -0.40149  -0.40143  -0.39294  -0.39261
 Alpha  occ. eigenvalues --   -0.38348  -0.38234  -0.37653  -0.37566  -0.37198
 Alpha  occ. eigenvalues --   -0.37160  -0.37150  -0.37105  -0.36674  -0.36621
 Alpha  occ. eigenvalues --   -0.36108  -0.36086  -0.34169  -0.34148  -0.33767
 Alpha  occ. eigenvalues --   -0.33685  -0.33072  -0.33071  -0.31242  -0.31206
 Alpha  occ. eigenvalues --   -0.30923  -0.30873  -0.29921  -0.29854  -0.29334
 Alpha  occ. eigenvalues --   -0.29232  -0.29203  -0.29105  -0.23964  -0.23932
 Alpha  occ. eigenvalues --   -0.21013  -0.21010
 Alpha virt. eigenvalues --   -0.08691  -0.08658  -0.01633  -0.01582   0.00051
 Alpha virt. eigenvalues --    0.00056   0.02312   0.02315   0.03262   0.03357
 Alpha virt. eigenvalues --    0.04824   0.04825   0.05183   0.05257   0.06262

 Mulliken charges:
               1
     1  Mg   0.839143
     2  C   -0.003051
     3  C   -0.094100
     4  C   -0.045833
     5  C   -0.063712
     6  N   -0.256763
     7  C   -0.052489
     8  C   -0.014040
     9  C   -0.087018
    10  C    0.046306
    11  C    0.104858
    12  C    0.053453
    13  C   -0.071554
    14  H    0.035413
    15  N   -0.433096
    16  C    0.168467
    17  C   -0.177154
    18  C   -0.004058
    19  C    0.148749
    20  C    0.110187
    21  C    0.012272
    22  O   -0.249894
    23  C    0.062445
    24  N   -0.341172
    25  C    0.041287
    26  C   -0.028101
    27  C   -0.024038
    28  C    0.074977
    29  C    0.076273
    30  C    0.035042
    31  C   -0.004598
    32  N   -0.310528
    33  C    0.080604
    34  C   -0.169274
    35  C    0.008324
    36  C    0.083150
    37  C    0.127218
    38  C    0.046198
    39  O   -0.188497
    40  C   -0.005421
    41  C    0.212914
    42  O   -0.257247
    43  O   -0.304741
    44  C    0.157876
    45  H   -0.017801
    46  H   -0.017019
    47  H   -0.041187
    48  H    0.000764
    49  H   -0.004081
    50  H    0.025375
    51  H    0.016437
    52  H    0.016476
    53  H    0.011515
    54  H    0.043911
    55  H    0.017804
    56  H    0.018095
    57  H    0.005809
    58  H    0.026524
    59  H    0.039775
    60  H    0.037230
    61  H    0.035183
    62  H    0.031804
    63  H    0.016553
    64  H    0.009305
    65  H    0.022968
    66  H    0.012345
    67  H    0.004654
    68  H    0.006120
    69  H    0.005063
    70  H    0.008399
    71  H    0.019512
    72  H    0.029064
    73  H    0.047985
    74  H    0.009516
    75  H    0.045763
    76  H    0.035006
    77  H    0.042863
    78  H    0.046282
    79  H    0.053214
    80  Mg   0.838250
    81  C   -0.016897
    82  C   -0.087932
    83  C   -0.045554
    84  C   -0.064499
    85  N   -0.254535
    86  C   -0.049805
    87  C   -0.015129
    88  C   -0.090478
    89  C    0.045691
    90  C    0.114457
    91  C    0.062559
    92  C   -0.077771
    93  H    0.034703
    94  N   -0.423388
    95  C    0.162831
    96  C   -0.174820
    97  C   -0.008051
    98  C    0.152087
    99  C    0.099423
   100  C    0.015356
   101  O   -0.253763
   102  C    0.061302
   103  N   -0.350196
   104  C    0.037615
   105  C   -0.019617
   106  C   -0.035004
   107  C    0.089283
   108  C    0.073855
   109  C    0.034635
   110  C   -0.008146
   111  N   -0.324242
   112  C    0.078831
   113  C   -0.162417
   114  C    0.002213
   115  C    0.096530
   116  C    0.131331
   117  C    0.042632
   118  O   -0.187737
   119  C    0.000807
   120  C    0.211219
   121  O   -0.250797
   122  O   -0.305698
   123  C    0.152089
   124  H   -0.019987
   125  H   -0.015999
   126  H   -0.039780
   127  H   -0.000778
   128  H   -0.004486
   129  H    0.022359
   130  H    0.014351
   131  H    0.016022
   132  H    0.013998
   133  H    0.037767
   134  H    0.020660
   135  H    0.019504
   136  H    0.008645
   137  H    0.025736
   138  H    0.039585
   139  H    0.038176
   140  H    0.035570
   141  H    0.033963
   142  H    0.014234
   143  H    0.012144
   144  H    0.024546
   145  H    0.011333
   146  H    0.005532
   147  H    0.005648
   148  H    0.004469
   149  H    0.009846
   150  H    0.021793
   151  H    0.029794
   152  H    0.046679
   153  H    0.009330
   154  H    0.046599
   155  H    0.034817
   156  H    0.043790
   157  H    0.049340
   158  H    0.053576
 Sum of Mulliken charges =  -0.00000

 Dipole moment (field-independent basis, Debye):
    X=             -0.1220    Y=              6.5961    Z=             -3.1470  Tot=              7.3094
 Quadrupole moment (field-independent basis, Debye-Ang):
   XX=           -445.0493   YY=           -533.1727   ZZ=           -477.6300
   XY=            -18.8858   XZ=            -24.6266   YZ=             20.3022

 Normal termination of Gaussian 16 at Sat Sep 11 06:01:14 2021.
