 Gaussian 16, Revision A.03,
 Gaussian 16:  ES64L-G16RevA.03 25-Dec-2016

 -----------------------------------
 #p cam-b3lyp/Def2SVP td=(nstates=5)
 -----------------------------------

 --------------------------------
 TDDFT excited states in gaussian
 --------------------------------
 Symbolic Z-matrix:
 Charge =  0 Multiplicity = 1

                         Standard orientation:
 ---------------------------------------------------------------------
 Center     Atomic      Atomic             Coordinates (Angstroms)
 Number     Number       Type             X           Y           Z
 ---------------------------------------------------------------------
      1         12           0        6.289288   -1.046415    0.345877
      2          6           0        6.749031    2.104390   -1.289137
      3          6           0        7.118446    0.515411    3.264141
      4          6           0        6.333443   -3.897919    1.732816
      5          6           0        6.612811   -2.549533   -2.781682
      6          7           0        6.841669    1.048291    0.801647
      7          6           0        6.922630    2.171394    0.095066
      8          6           0        7.134772    3.440270    0.973886
      9          6           0        7.790196    2.752852    2.254462
     10          6           0        7.187463    1.365506    2.120635
     11          6           0        9.309059    2.638349    2.174173
     12          6           0        5.784750    4.148225    1.331613
     13          6           0        5.920138    5.561900    1.904805
     14          1           0        4.914386    6.555945    1.561755
     15          7           0        6.190879   -1.544100    2.255190
     16          6           0        6.555136   -0.778151    3.311564
     17          6           0        6.291809   -1.593886    4.516519
     18          6           0        5.923555   -2.964930    4.066275
     19          6           0        6.163116   -2.863022    2.649376
     20          6           0        6.352099   -1.046977    5.909719
     21          6           0        5.443527   -4.178048    4.798430
     22          8           0        5.404142   -5.332266    4.249975
     23          6           0        5.099685   -3.994136    6.220046
     24          7           0        6.667920   -2.969367   -0.372822
     25          6           0        6.563997   -4.037358    0.425663
     26          6           0        6.600071   -5.313469   -0.361851
     27          6           0        6.506136   -4.887761   -1.897983
     28          6           0        6.515178   -3.349694   -1.717597
     29          6           0        7.838891   -6.194975   -0.151411
     30          6           0        5.369805   -5.525420   -2.736171
     31          6           0        4.029030   -5.023161   -2.249183
     32          7           0        6.444763   -0.367569   -1.709856
     33          6           0        6.594041   -1.166605   -2.852630
     34          6           0        6.764418   -0.254307   -3.998384
     35          6           0        6.718707    1.020120   -3.436609
     36          6           0        6.557931    0.910345   -2.025796
     37          6           0        6.991562   -0.644432   -5.347696
     38          6           0        6.792980    2.448597   -3.696980
     39          8           0        6.830998    3.144013   -4.713073
     40          6           0        6.937806    3.205092   -2.303220
     41          6           0        5.952523    4.341976   -2.298616
     42          8           0        4.723858    4.123669   -2.289081
     43          8           0        6.602682    5.492770   -2.067299
     44          6           0        5.678809    6.657433   -2.020694
     45          1           0        7.589370    0.841611    4.193530
     46          1           0        6.244225   -4.900609    2.156007
     47          1           0        6.634462   -2.944717   -3.798940
     48          1           0        7.821632    4.174877    0.553172
     49          1           0        7.460408    3.221472    3.181477
     50          1           0        9.679333    2.931664    1.191939
     51          1           0        9.532453    1.588952    2.367445
     52          1           0        9.782931    3.198982    2.980344
     53          1           0        5.329993    3.644868    2.184777
     54          1           0        5.120565    4.171857    0.466959
     55          1           0        6.922073    5.961890    1.746550
     56          1           0        5.820441    5.501994    2.988628
     57          1           0        6.809285   -0.058540    5.932512
     58          1           0        7.041606   -1.678158    6.469987
     59          1           0        5.375502   -1.049152    6.394058
     60          1           0        5.974169   -3.626212    6.757128
     61          1           0        4.691741   -4.946654    6.556411
     62          1           0        4.339997   -3.216227    6.301794
     63          1           0        5.751032   -5.949528   -0.114895
     64          1           0        7.414052   -5.137015   -2.447741
     65          1           0        7.604922   -7.207471    0.178462
     66          1           0        8.492730   -5.692829    0.561074
     67          1           0        8.491018   -6.281796   -1.020093
     68          1           0        5.370351   -6.608037   -2.614161
     69          1           0        5.449400   -5.311762   -3.802129
     70          1           0        3.814707   -5.679436   -1.406450
     71          1           0        3.275642   -5.131809   -3.030089
     72          1           0        4.101710   -4.007144   -1.860709
     73          1           0        6.356514   -0.005296   -5.961038
     74          1           0        6.758137   -1.697969   -5.499928
     75          1           0        8.056979   -0.434958   -5.441837
     76          1           0        7.967635    3.555619   -2.242339
     77          1           0        6.035541    7.379703   -2.755066
     78          1           0        5.633382    6.975433   -0.978956
     79          1           0        4.664150    6.482514   -2.380152
     80         12           0       -6.908643   -0.285586   -0.279949
     81          6           0       -4.330165    2.165101    0.193969
     82          6           0       -8.932646    1.693962    1.622509
     83          6           0       -9.050491   -2.626421   -0.300323
     84          6           0       -4.404673   -2.550442   -1.143817
     85          7           0       -6.561903    1.655588    0.721962
     86          6           0       -5.561937    2.522155    0.781062
     87          6           0       -5.925276    3.879537    1.440652
     88          6           0       -7.168483    3.389093    2.331029
     89          6           0       -7.610972    2.190705    1.493921
     90          6           0       -6.762553    2.887003    3.706687
     91          6           0       -6.362639    4.957612    0.387806
     92          6           0       -6.433555    6.388937    0.924492
     93          1           0       -6.056361    7.484869    0.036145
     94          7           0       -8.854055   -0.249726    0.110770
     95          6           0       -9.512274    0.638240    0.885079
     96          6           0      -10.922248    0.218862    0.868633
     97          6           0      -11.015826   -1.083994    0.155515
     98          6           0       -9.610287   -1.387376   -0.024767
     99          6           0      -12.030164    1.067741    1.421206
    100          6           0      -12.177815   -1.924722   -0.279391
    101          8           0      -12.023559   -3.134842   -0.672626
    102          6           0      -13.511340   -1.320925   -0.142892
    103          7           0       -6.739516   -2.349944   -0.459297
    104          6           0       -7.832133   -3.132945   -0.491003
    105          6           0       -7.480906   -4.543166   -0.901255
    106          6           0       -5.954461   -4.485297   -1.374763
    107          6           0       -5.647303   -3.005111   -1.058357
    108          6           0       -7.637218   -5.609712    0.182465
    109          6           0       -5.638904   -5.017480   -2.799494
    110          6           0       -6.260176   -4.111598   -3.838145
    111          7           0       -4.779100   -0.190248   -0.632102
    112          6           0       -3.919558   -1.262251   -0.957809
    113          6           0       -2.543867   -0.724518   -0.984760
    114          6           0       -2.697275    0.628733   -0.647604
    115          6           0       -4.069298    0.909625   -0.406427
    116          6           0       -1.362413   -1.474673   -1.244689
    117          6           0       -2.009312    1.881039   -0.430508
    118          8           0       -0.851634    2.272342   -0.573384
    119          6           0       -3.020927    2.902442    0.247545
    120          6           0       -2.922998    4.210697   -0.488242
    121          8           0       -3.278795    4.295514   -1.676868
    122          8           0       -2.632912    5.188906    0.388864
    123          6           0       -2.536260    6.507704   -0.291761
    124          1           0       -9.576345    2.124540    2.390064
    125          1           0       -9.760543   -3.446935   -0.427069
    126          1           0       -3.579439   -3.170484   -1.500496
    127          1           0       -5.153762    4.296369    2.076879
    128          1           0       -7.952123    4.141560    2.363717
    129          1           0       -5.689522    2.832304    3.815152
    130          1           0       -7.203144    1.903271    3.802612
    131          1           0       -7.225443    3.501647    4.484038
    132          1           0       -7.418321    4.800437    0.131771
    133          1           0       -5.727134    4.926575   -0.475791
    134          1           0       -5.932181    6.490700    1.894653
    135          1           0       -7.478375    6.628758    1.136289
    136          1           0      -11.639582    1.893114    2.029148
    137          1           0      -12.585339    0.445989    2.131892
    138          1           0      -12.716644    1.419798    0.648244
    139          1           0      -13.681933   -1.053494    0.897220
    140          1           0      -14.203843   -2.038290   -0.587529
    141          1           0      -13.532800   -0.387008   -0.715557
    142          1           0       -8.094576   -4.868330   -1.732391
    143          1           0       -5.303011   -5.087388   -0.724432
    144          1           0       -8.315555   -6.433276   -0.110273
    145          1           0       -7.989746   -5.129532    1.085614
    146          1           0       -6.708481   -6.071214    0.513589
    147          1           0       -6.084725   -6.004906   -2.942291
    148          1           0       -4.576867   -5.111604   -3.000007
    149          1           0       -7.292332   -4.470393   -3.892858
    150          1           0       -5.753002   -4.221136   -4.794611
    151          1           0       -6.290223   -3.073421   -3.487527
    152          1           0       -0.754958   -0.877591   -1.911767
    153          1           0       -1.594927   -2.444863   -1.678769
    154          1           0       -0.961129   -1.563778   -0.231625
    155          1           0       -2.734948    2.999756    1.295549
    156          1           0       -1.551837    6.920416   -0.050389
    157          1           0       -3.419641    7.082678    0.044086
    158          1           0       -2.507426    6.511682   -1.375086
 ---------------------------------------------------------------------

 SCF Done:  E(RCAM-B3LYP) =  -4069.81052623     A.U. after   19 cycles

 Excitation energies and oscillator strengths:

 Excited State   1:      Singlet-A      1.6719 eV  741.59 nm  f=0.3208  <S**2>=0.000
     309 -> 315        0.14201
     311 -> 313        0.56415
     312 -> 314       -0.39064
 This state for optimization and/or second-order correction.
 Total Energy, E(TD-HF/TD-DFT) =  -4069.74908574
 Copying the excited state density for this state as the 1-particle RhoCI density.

 Excited State   2:      Singlet-A      1.6833 eV  736.56 nm  f=0.4649  <S**2>=0.000
     310 -> 316        0.14432
     311 -> 313        0.39038
     312 -> 314        0.56353

 Excited State   3:      Singlet-A      2.1845 eV  567.56 nm  f=0.0088  <S**2>=0.000
     309 -> 313        0.53633
     310 -> 314       -0.35527
     311 -> 315       -0.22693
     312 -> 316        0.14988

 Excited State   4:      Singlet-A      2.1920 eV  565.62 nm  f=0.1768  <S**2>=0.000
     309 -> 313        0.35330
     310 -> 314        0.53382
     311 -> 315       -0.15319
     312 -> 316       -0.23240

 Excited State   5:      Singlet-A      2.6115 eV  474.76 nm  f=0.0000  <S**2>=0.000
     312 -> 313        0.70642

 The electronic state is 1-A.
 Alpha  occ. eigenvalues --  -46.87531 -46.87480 -19.26166 -19.25852 -19.18955
 Alpha  occ. eigenvalues --  -19.18599 -19.18580 -19.18521 -19.17835 -19.17811
 Alpha  occ. eigenvalues --  -14.42377 -14.42136 -14.41232 -14.41159 -14.39222
 Alpha  occ. eigenvalues --  -14.39099 -14.38460 -14.38264 -10.38895 -10.38602
 Alpha  occ. eigenvalues --  -10.35279 -10.35218 -10.34049 -10.33996 -10.31589
 Alpha  occ. eigenvalues --  -10.31285 -10.31175 -10.31083 -10.30907 -10.30591
 Alpha  occ. eigenvalues --  -10.30257 -10.30254 -10.30215 -10.30209 -10.30029
 Alpha  occ. eigenvalues --  -10.29949 -10.29759 -10.29638 -10.29336 -10.29314
 Alpha  occ. eigenvalues --  -10.29259 -10.28971 -10.28618 -10.28569 -10.28404
 Alpha  occ. eigenvalues --  -10.28267 -10.28180 -10.28048 -10.28043 -10.27850
 Alpha  occ. eigenvalues --  -10.27802 -10.27548 -10.27494 -10.27429 -10.27410
 Alpha  occ. eigenvalues --  -10.27361 -10.27352 -10.27330 -10.27296 -10.27295
 Alpha  occ. eigenvalues --  -10.27266 -10.27239 -10.27236 -10.27084 -10.26877
 Alpha  occ. eigenvalues --  -10.26796 -10.26588 -10.26320 -10.26279 -10.26217
 Alpha  occ. eigenvalues --  -10.26036 -10.26023 -10.25961 -10.25956 -10.25807
 Alpha  occ. eigenvalues --  -10.25740 -10.25658 -10.25565 -10.25300 -10.25249
 Alpha  occ. eigenvalues --  -10.24717 -10.24625 -10.24559 -10.24549 -10.24522
 Alpha  occ. eigenvalues --  -10.24502  -3.16282  -3.16220  -1.91164  -1.91101
 Alpha  occ. eigenvalues --   -1.90752  -1.90689  -1.90589  -1.90531  -1.16454
 Alpha  occ. eigenvalues --   -1.16192  -1.08414  -1.08282  -1.06986  -1.06854
 Alpha  occ. eigenvalues --   -1.06739  -1.06159  -1.04370  -1.04265  -1.03534
 Alpha  occ. eigenvalues --   -1.03467  -1.02932  -1.02907  -1.02109  -1.01977
 Alpha  occ. eigenvalues --   -0.91839  -0.91646  -0.89370  -0.89272  -0.89048
 Alpha  occ. eigenvalues --   -0.88859  -0.88103  -0.88044  -0.87635  -0.87572
 Alpha  occ. eigenvalues --   -0.87560  -0.87367  -0.87008  -0.86999  -0.84887
 Alpha  occ. eigenvalues --   -0.84663  -0.83757  -0.83706  -0.82820  -0.82736
 Alpha  occ. eigenvalues --   -0.82537  -0.82345  -0.81444  -0.81246  -0.80305
 Alpha  occ. eigenvalues --   -0.80283  -0.78518  -0.78503  -0.77027  -0.76944
 Alpha  occ. eigenvalues --   -0.76776  -0.76623  -0.75711  -0.75607  -0.74682
 Alpha  occ. eigenvalues --   -0.74646  -0.72563  -0.72485  -0.71458  -0.71383
 Alpha  occ. eigenvalues --   -0.69699  -0.69646  -0.68710  -0.68568  -0.67464
 Alpha  occ. eigenvalues --   -0.67347  -0.67088  -0.66892  -0.65150  -0.64957
 Alpha  occ. eigenvalues --   -0.64639  -0.64547  -0.64521  -0.64315  -0.64080
 Alpha  occ. eigenvalues --   -0.64010  -0.62123  -0.61943  -0.60216  -0.60179
 Alpha  occ. eigenvalues --   -0.59680  -0.59485  -0.58858  -0.58690  -0.58284
 Alpha  occ. eigenvalues --   -0.58202  -0.57379  -0.57234  -0.57101  -0.57012
 Alpha  occ. eigenvalues --   -0.56065  -0.56019  -0.55737  -0.55611  -0.55318
 Alpha  occ. eigenvalues --   -0.55244  -0.55111  -0.55063  -0.54345  -0.54206
 Alpha  occ. eigenvalues --   -0.53804  -0.53562  -0.53097  -0.53026  -0.53012
 Alpha  occ. eigenvalues --   -0.52918  -0.52762  -0.52590  -0.52560  -0.52482
 Alpha  occ. eigenvalues --   -0.52282  -0.52215  -0.51710  -0.51616  -0.51542
 Alpha  occ. eigenvalues --   -0.51294  -0.51044  -0.50894  -0.50368  -0.50339
 Alpha  occ. eigenvalues --   -0.49869  -0.49809  -0.49750  -0.49649  -0.49370
 Alpha  occ. eigenvalues --   -0.49215  -0.49067  -0.48960  -0.48905  -0.48789
 Alpha  occ. eigenvalues --   -0.48412  -0.48282  -0.48246  -0.48204  -0.48188
 Alpha  occ. eigenvalues --   -0.48155  -0.47467  -0.47411  -0.47018  -0.46996
 Alpha  occ. eigenvalues --   -0.46584  -0.46517  -0.46442  -0.46228  -0.46138
 Alpha  occ. eigenvalues --   -0.46076  -0.45945  -0.45857  -0.45663  -0.45498
 Alpha  occ. eigenvalues --   -0.45090  -0.44959  -0.44387  -0.44336  -0.44261
 Alpha  occ. eigenvalues --   -0.44247  -0.43998  -0.43952  -0.43890  -0.43795
 Alpha  occ. eigenvalues --   -0.43788  -0.43709  -0.43409  -0.43254  -0.43167
 Alpha  occ. eigenvalues --   -0.43095  -0.42785  -0.42734  -0.42731  -0.42454
 Alpha  occ. eigenvalues --   -0.42437  -0.42278  -0.41845  -0.41740  -0.41506
 Alpha  occ. eigenvalues --   -0.41399  -0.41347  -0.41222  -0.40865  -0.40852
 Alpha  occ. eigenvalues --   -0.40614  -0.40592  -0.40591  -0.40568  -0.40375
 Alpha  occ. eigenvalues --   -0.40311  -0.40127  -0.39874  -0.39315  -0.39242
 Alpha  occ. eigenvalues --   -0.38240  -0.38220  -0.37544  -0.37410  -0.37147
 Alpha  occ. eigenvalues --   -0.37077  -0.37057  -0.36927  -0.36599  -0.36343
 Alpha  occ. eigenvalues --   -0.36079  -0.35837  -0.34118  -0.33977  -0.33669
 Alpha  occ. eigenvalues --   -0.33308  -0.33040  -0.32863  -0.31159  -0.31109
 Alpha  occ. eigenvalues --   -0.30844  -0.30730  -0.29714  -0.29689  -0.29192
 Alpha  occ. eigenvalues --   -0.29159  -0.29052  -0.29008  -0.23906  -0.23770
 Alpha  occ. eigenvalues --   -0.20986  -0.20830
 Alpha virt. eigenvalues --   -0.08654  -0.08477  -0.01559  -0.01459   0.00101
 Alpha virt. eigenvalues --    0.00225   0.02382   0.02511   0.03357   0.03545
 Alpha virt. eigenvalues --    0.04843   0.05030   0.05364   0.05548   0.06284

 Mulliken charges:
               1
     1  Mg   0.841417
     2  C   -0.000596
     3  C   -0.093895
     4  C   -0.046533
     5  C   -0.064670
     6  N   -0.256637
     7  C   -0.051369
     8  C   -0.014654
     9  C   -0.087141
    10  C    0.046914
    11  C    0.105033
    12  C    0.053452
    13  C   -0.071168
    14  H    0.035913
    15  N   -0.432859
    16  C    0.168696
    17  C   -0.177406
    18  C   -0.004511
    19  C    0.148674
    20  C    0.110410
    21  C    0.011805
    22  O   -0.250662
    23  C    0.062633
    24  N   -0.341161
    25  C    0.041040
    26  C   -0.027907
    27  C   -0.023926
    28  C    0.075027
    29  C    0.076413
    30  C    0.035383
    31  C   -0.004549
    32  N   -0.310817
    33  C    0.081251
    34  C   -0.169449
    35  C    0.008506
    36  C    0.084788
    37  C    0.127104
    38  C    0.047577
    39  O   -0.188251
    40  C   -0.006026
    41  C    0.211517
    42  O   -0.251715
    43  O   -0.305875
    44  C    0.157808
    45  H   -0.018333
    46  H   -0.017826
    47  H   -0.042167
    48  H    0.000357
    49  H   -0.004389
    50  H    0.025178
    51  H    0.015976
    52  H    0.015868
    53  H    0.012158
    54  H    0.048157
    55  H    0.016599
    56  H    0.016991
    57  H    0.005632
    58  H    0.025981
    59  H    0.039043
    60  H    0.037082
    61  H    0.034679
    62  H    0.031408
    63  H    0.015656
    64  H    0.009083
    65  H    0.022447
    66  H    0.012542
    67  H    0.004299
    68  H    0.005511
    69  H    0.004635
    70  H    0.007831
    71  H    0.016680
    72  H    0.030535
    73  H    0.048264
    74  H    0.008509
    75  H    0.045429
    76  H    0.034208
    77  H    0.041587
    78  H    0.045459
    79  H    0.055313
    80  Mg   0.837622
    81  C   -0.016680
    82  C   -0.087924
    83  C   -0.045660
    84  C   -0.065042
    85  N   -0.254396
    86  C   -0.050031
    87  C   -0.014926
    88  C   -0.090432
    89  C    0.045501
    90  C    0.114544
    91  C    0.062628
    92  C   -0.077646
    93  H    0.034919
    94  N   -0.423390
    95  C    0.162636
    96  C   -0.174954
    97  C   -0.008060
    98  C    0.151936
    99  C    0.099512
   100  C    0.015382
   101  O   -0.253523
   102  C    0.061275
   103  N   -0.350114
   104  C    0.037346
   105  C   -0.019717
   106  C   -0.034868
   107  C    0.089104
   108  C    0.073750
   109  C    0.034793
   110  C   -0.007630
   111  N   -0.324318
   112  C    0.078664
   113  C   -0.162762
   114  C    0.003168
   115  C    0.096298
   116  C    0.131007
   117  C    0.042205
   118  O   -0.182901
   119  C    0.000424
   120  C    0.212703
   121  O   -0.250326
   122  O   -0.306276
   123  C    0.152165
   124  H   -0.020172
   125  H   -0.015883
   126  H   -0.040347
   127  H   -0.001069
   128  H   -0.004597
   129  H    0.021964
   130  H    0.014329
   131  H    0.015705
   132  H    0.013890
   133  H    0.038170
   134  H    0.020243
   135  H    0.019302
   136  H    0.008424
   137  H    0.025698
   138  H    0.039496
   139  H    0.038032
   140  H    0.036089
   141  H    0.033826
   142  H    0.014226
   143  H    0.012403
   144  H    0.024864
   145  H    0.011469
   146  H    0.005567
   147  H    0.005970
   148  H    0.003578
   149  H    0.010774
   150  H    0.017895
   151  H    0.030403
   152  H    0.048825
   153  H    0.008081
   154  H    0.046277
   155  H    0.034010
   156  H    0.043437
   157  H    0.048456
   158  H    0.054695
 Sum of Mulliken charges =  -0.00000

 Dipole moment (field-independent basis, Debye):
    X=             -1.1913    Y=              1.5833    Z=              6.8859  Tot=              7.1653
 Quadrupole moment (field-independent basis, Debye-Ang):
   XX=           -469.5434   YY=           -484.6139   ZZ=           -504.5863
   XY=            -30.2561   XZ=              4.4192   YZ=             49.7886

 Normal termination of Gaussian 16 at Sat Sep 11 11:39:28 2021.
