 Gaussian 16, Revision A.03,
 Gaussian 16:  ES64L-G16RevA.03 25-Dec-2016

 -----------------------------------
 #p cam-b3lyp/Def2SVP td=(nstates=5)
 -----------------------------------

 --------------------------------
 TDDFT excited states in gaussian
 --------------------------------
 Symbolic Z-matrix:
 Charge =  0 Multiplicity = 1

                         Standard orientation:
 ---------------------------------------------------------------------
 Center     Atomic      Atomic             Coordinates (Angstroms)
 Number     Number       Type             X           Y           Z
 ---------------------------------------------------------------------
      1         12           0       -7.934479   -0.589829    0.062322
      2          6           0       -8.051899    2.984196    0.219718
      3          6           0       -8.791410   -0.324482   -3.229839
      4          6           0       -8.281313   -3.741602    0.010802
      5          6           0       -8.208915   -0.604585    3.536531
      6          7           0       -8.340986    1.162832   -1.227475
      7          6           0       -8.293664    2.480796   -1.060431
      8          6           0       -8.450386    3.278065   -2.389782
      9          6           0       -9.226591    2.182917   -3.250105
     10          6           0       -8.730601    0.929081   -2.551669
     11          6           0      -10.743234    2.257922   -3.106333
     12          6           0       -7.069164    3.638592   -3.033193
     13          6           0       -7.121476    4.687433   -4.147890
     14          1           0       -6.022368    5.632904   -4.271963
     15          7           0       -7.978936   -1.849151   -1.459185
     16          6           0       -8.336882   -1.565895   -2.734695
     17          6           0       -8.204835   -2.832716   -3.485966
     18          6           0       -7.923931   -3.916813   -2.504171
     19          6           0       -8.078114   -3.207840   -1.259597
     20          6           0       -8.295865   -2.917415   -4.978712
     21          6           0       -7.582629   -5.364790   -2.662308
     22          8           0       -7.606420   -6.180614   -1.678215
     23          6           0       -7.302010   -5.827631   -4.033465
     24          7           0       -8.426768   -1.988468    1.531709
     25          6           0       -8.451756   -3.297401    1.257751
     26          6           0       -8.547579   -4.115840    2.511112
     27          6           0       -8.337481   -3.096311    3.721968
     28          6           0       -8.232975   -1.782489    2.908813
     29          6           0       -9.862532   -4.881894    2.711289
     30          6           0       -7.212503   -3.428796    4.734043
     31          6           0       -5.863904   -3.307299    4.060533
     32          7           0       -7.924448    0.899884    1.640834
     33          6           0       -8.075654    0.671914    3.016276
     34          6           0       -8.110630    1.992235    3.671714
     35          6           0       -7.993227    2.902894    2.623495
     36          6           0       -7.917764    2.196878    1.388935
     37          6           0       -8.295494    2.227466    5.062730
     38          6           0       -7.938754    4.308812    2.257046
     39          8           0       -7.866322    5.366345    2.884637
     40          6           0       -8.097169    4.421151    0.676504
     41          6           0       -7.025665    5.351749    0.177329
     42          8           0       -5.820724    5.033594    0.242611
     43          8           0       -7.593043    6.355660   -0.508810
     44          6           0       -6.582693    7.299576   -1.056871
     45          1           0       -9.283928   -0.374829   -4.202892
     46          1           0       -8.295551   -4.832808    0.049582
     47          1           0       -8.207483   -0.532740    4.625700
     48          1           0       -9.052610    4.183143   -2.308640
     49          1           0       -8.910594    2.185855   -4.293110
     50          1           0      -11.035536    2.969890   -2.334592
     51          1           0      -11.060020    1.250744   -2.834798
     52          1           0      -11.213291    2.471176   -4.066722
     53          1           0       -6.702665    2.783067   -3.600483
     54          1           0       -6.359744    3.959217   -2.269486
     55          1           0       -8.078204    5.210375   -4.158532
     56          1           0       -7.085252    4.169375   -5.106276
     57          1           0       -8.672974   -1.991031   -5.410158
     58          1           0       -9.062804   -3.656500   -5.209509
     59          1           0       -7.350006   -3.215523   -5.431276
     60          1           0       -8.171795   -5.637355   -4.662606
     61          1           0       -6.990326   -6.867500   -3.941946
     62          1           0       -6.487947   -5.231978   -4.447528
     63          1           0       -7.766705   -4.874537    2.543385
     64          1           0       -9.231604   -3.004311    4.339021
     65          1           0       -9.728468   -5.956614    2.836625
     66          1           0      -10.511369   -4.665013    1.863196
     67          1           0      -10.471918   -4.533883    3.544928
     68          1           0       -7.306313   -4.457317    5.080873
     69          1           0       -7.217363   -2.781334    5.610980
     70          1           0       -5.748406   -4.273599    3.570884
     71          1           0       -5.080789   -3.149716    4.802900
     72          1           0       -5.875730   -2.545988    3.280307
     73          1           0       -7.579272    3.001176    5.339077
     74          1           0       -8.139365    1.317903    5.642319
     75          1           0       -9.334111    2.557570    5.075421
     76          1           0       -9.097391    4.810205    0.488585
     77          1           0       -6.840470    8.293587   -0.691184
     78          1           0       -6.567957    7.145517   -2.135969
     79          1           0       -5.567469    7.195711   -0.672333
     80         12           0        7.944603   -0.969090    0.114744
     81          6           0        8.314267    2.596840    0.277749
     82          6           0        7.551129   -0.624457   -3.255865
     83          6           0        7.168740   -4.043211   -0.008882
     84          6           0        7.230279   -0.911689    3.525336
     85          7           0        7.952466    0.808239   -1.201794
     86          6           0        8.163668    2.105217   -1.035666
     87          6           0        8.296536    2.909626   -2.356585
     88          6           0        7.480333    1.920758   -3.323460
     89          6           0        7.699259    0.608924   -2.572560
     90          6           0        5.988528    2.208266   -3.357742
     91          6           0        9.788949    3.060688   -2.816895
     92          6           0       10.019143    4.091186   -3.924526
     93          1           0       11.254196    4.870101   -3.904798
     94          7           0        7.918711   -2.226350   -1.420573
     95          6           0        7.772761   -1.914364   -2.725423
     96          6           0        7.800484   -3.194024   -3.450589
     97          6           0        7.809292   -4.298373   -2.453065
     98          6           0        7.607168   -3.549497   -1.228958
     99          6           0        7.895934   -3.279844   -4.946236
    100          6           0        7.960187   -5.783978   -2.581101
    101          8           0        7.698927   -6.573838   -1.606070
    102          6           0        8.332807   -6.293059   -3.909067
    103          7           0        7.087878   -2.263761    1.497567
    104          6           0        6.906949   -3.564140    1.207373
    105          6           0        6.534927   -4.351691    2.440963
    106          6           0        6.740791   -3.348587    3.669373
    107          6           0        7.127578   -2.071712    2.891322
    108          6           0        5.111351   -4.907482    2.471161
    109          6           0        7.671494   -3.824509    4.818266
    110          6           0        9.097262   -3.914416    4.323791
    111          7           0        7.971872    0.514889    1.684816
    112          6           0        7.611195    0.331927    3.037783
    113          6           0        7.682767    1.655412    3.690237
    114          6           0        8.060812    2.527303    2.658069
    115          6           0        8.194410    1.801984    1.443337
    116          6           0        7.370099    1.929805    5.051512
    117          6           0        8.366916    3.898100    2.317593
    118          8           0        8.501903    4.942016    2.954575
    119          6           0        8.421612    4.025392    0.734186
    120          6           0        9.668459    4.784817    0.372040
    121          8           0       10.791463    4.301085    0.598917
    122          8           0        9.332843    5.852354   -0.375005
    123          6           0       10.537193    6.631265   -0.768286
    124          1           0        7.190301   -0.607562   -4.284656
    125          1           0        6.994102   -5.120976    0.028363
    126          1           0        7.117525   -0.826305    4.608234
    127          1           0        7.828128    3.886445   -2.342654
    128          1           0        7.930398    1.874116   -4.311711
    129          1           0        5.705797    2.957159   -2.632922
    130          1           0        5.502366    1.266720   -3.138228
    131          1           0        5.679748    2.477652   -4.371853
    132          1           0       10.095520    2.147554   -3.343154
    133          1           0       10.425003    3.279983   -1.981449
    134          1           0        9.152234    4.748763   -4.062370
    135          1           0       10.108909    3.562877   -4.876807
    136          1           0        7.704976   -2.308017   -5.417910
    137          1           0        7.068136   -3.912887   -5.283669
    138          1           0        8.837099   -3.719147   -5.283724
    139          1           0        7.586431   -5.983736   -4.636881
    140          1           0        8.479861   -7.367066   -3.779611
    141          1           0        9.277782   -5.827055   -4.209877
    142          1           0        7.191835   -5.203298    2.568788
    143          1           0        5.791598   -3.129852    4.180277
    144          1           0        5.074074   -6.005124    2.604859
    145          1           0        4.612733   -4.618804    1.555417
    146          1           0        4.463472   -4.476725    3.232672
    147          1           0        7.390926   -4.830132    5.140999
    148          1           0        7.638958   -3.184534    5.693695
    149          1           0        9.129734   -4.895934    3.841445
    150          1           0        9.795634   -3.860543    5.156504
    151          1           0        9.294421   -3.161216    3.552117
    152          1           0        8.140439    2.594023    5.420123
    153          1           0        7.317460    1.015797    5.639382
    154          1           0        6.390055    2.400266    4.935515
    155          1           0        7.517883    4.546578    0.416015
    156          1           0       10.376207    7.660114   -0.431786
    157          1           0       10.655257    6.469781   -1.856270
    158          1           0       11.472130    6.391431   -0.275512
 ---------------------------------------------------------------------

 SCF Done:  E(RCAM-B3LYP) =  -4069.81168955     A.U. after   19 cycles

 Excitation energies and oscillator strengths:

 Excited State   1:      Singlet-A      1.6698 eV  742.50 nm  f=0.0160  <S**2>=0.000
     309 -> 315        0.10375
     310 -> 316       -0.13774
     311 -> 313        0.41150
     312 -> 314        0.54932
 This state for optimization and/or second-order correction.
 Total Energy, E(TD-HF/TD-DFT) =  -4069.75032454
 Copying the excited state density for this state as the 1-particle RhoCI density.

 Excited State   2:      Singlet-A      1.6853 eV  735.69 nm  f=0.7408  <S**2>=0.000
     309 -> 315        0.14164
     310 -> 316        0.10552
     311 -> 313        0.54850
     312 -> 314       -0.41097

 Excited State   3:      Singlet-A      2.1854 eV  567.34 nm  f=0.0584  <S**2>=0.000
     309 -> 313       -0.13942
     310 -> 314        0.62746
     312 -> 316        0.26616

 Excited State   4:      Singlet-A      2.1929 eV  565.39 nm  f=0.1350  <S**2>=0.000
     309 -> 313        0.62545
     310 -> 314        0.13832
     311 -> 315       -0.27196

 Excited State   5:      Singlet-A      2.7690 eV  447.76 nm  f=0.0000  <S**2>=0.000
     312 -> 313        0.70710

 The electronic state is 1-A.
 Alpha  occ. eigenvalues --  -46.87823 -46.87589 -19.26303 -19.26281 -19.19092
 Alpha  occ. eigenvalues --  -19.19040 -19.18840 -19.18657 -19.18188 -19.17971
 Alpha  occ. eigenvalues --  -14.42478 -14.42427 -14.41475 -14.41287 -14.39429
 Alpha  occ. eigenvalues --  -14.39282 -14.38612 -14.38526 -10.39100 -10.39021
 Alpha  occ. eigenvalues --  -10.35474 -10.35336 -10.34408 -10.34148 -10.31697
 Alpha  occ. eigenvalues --  -10.31694 -10.31432 -10.31236 -10.30957 -10.30938
 Alpha  occ. eigenvalues --  -10.30595 -10.30532 -10.30324 -10.30287 -10.30234
 Alpha  occ. eigenvalues --  -10.30073 -10.29944 -10.29819 -10.29656 -10.29368
 Alpha  occ. eigenvalues --  -10.29330 -10.29281 -10.28782 -10.28654 -10.28607
 Alpha  occ. eigenvalues --  -10.28585 -10.28391 -10.28334 -10.28148 -10.28073
 Alpha  occ. eigenvalues --  -10.27928 -10.27817 -10.27755 -10.27610 -10.27600
 Alpha  occ. eigenvalues --  -10.27525 -10.27517 -10.27472 -10.27447 -10.27429
 Alpha  occ. eigenvalues --  -10.27420 -10.27412 -10.27399 -10.27303 -10.27179
 Alpha  occ. eigenvalues --  -10.26971 -10.26746 -10.26637 -10.26440 -10.26374
 Alpha  occ. eigenvalues --  -10.26263 -10.26209 -10.26074 -10.26045 -10.25949
 Alpha  occ. eigenvalues --  -10.25862 -10.25858 -10.25758 -10.25454 -10.25319
 Alpha  occ. eigenvalues --  -10.24856 -10.24813 -10.24798 -10.24717 -10.24673
 Alpha  occ. eigenvalues --  -10.24618  -3.16566  -3.16339  -1.91448  -1.91221
 Alpha  occ. eigenvalues --   -1.91034  -1.90876  -1.90809  -1.90646  -1.16652
 Alpha  occ. eigenvalues --   -1.16575  -1.08645  -1.08578  -1.07241  -1.06911
 Alpha  occ. eigenvalues --   -1.06877  -1.06662  -1.04608  -1.04424  -1.03787
 Alpha  occ. eigenvalues --   -1.03592  -1.03259  -1.02967  -1.02437  -1.02039
 Alpha  occ. eigenvalues --   -0.91996  -0.91913  -0.89545  -0.89424  -0.89220
 Alpha  occ. eigenvalues --   -0.89085  -0.88311  -0.88150  -0.87892  -0.87715
 Alpha  occ. eigenvalues --   -0.87701  -0.87615  -0.87302  -0.87061  -0.85013
 Alpha  occ. eigenvalues --   -0.84934  -0.83960  -0.83807  -0.82995  -0.82875
 Alpha  occ. eigenvalues --   -0.82677  -0.82589  -0.81609  -0.81527  -0.80622
 Alpha  occ. eigenvalues --   -0.80375  -0.78824  -0.78570  -0.77246  -0.77078
 Alpha  occ. eigenvalues --   -0.76962  -0.76831  -0.75949  -0.75770  -0.74922
 Alpha  occ. eigenvalues --   -0.74731  -0.72799  -0.72626  -0.71697  -0.71509
 Alpha  occ. eigenvalues --   -0.69933  -0.69691  -0.68903  -0.68762  -0.67666
 Alpha  occ. eigenvalues --   -0.67533  -0.67253  -0.67141  -0.65316  -0.65205
 Alpha  occ. eigenvalues --   -0.64878  -0.64700  -0.64647  -0.64586  -0.64294
 Alpha  occ. eigenvalues --   -0.64134  -0.62319  -0.62209  -0.60469  -0.60276
 Alpha  occ. eigenvalues --   -0.59834  -0.59728  -0.59012  -0.58922  -0.58528
 Alpha  occ. eigenvalues --   -0.58355  -0.57606  -0.57479  -0.57333  -0.57167
 Alpha  occ. eigenvalues --   -0.56335  -0.56135  -0.56002  -0.55821  -0.55546
 Alpha  occ. eigenvalues --   -0.55388  -0.55362  -0.55177  -0.54546  -0.54419
 Alpha  occ. eigenvalues --   -0.53927  -0.53847  -0.53324  -0.53250  -0.53160
 Alpha  occ. eigenvalues --   -0.53077  -0.52940  -0.52836  -0.52786  -0.52613
 Alpha  occ. eigenvalues --   -0.52464  -0.52336  -0.51934  -0.51800  -0.51647
 Alpha  occ. eigenvalues --   -0.51597  -0.51220  -0.51130  -0.50603  -0.50422
 Alpha  occ. eigenvalues --   -0.50058  -0.49946  -0.49916  -0.49800  -0.49543
 Alpha  occ. eigenvalues --   -0.49425  -0.49239  -0.49134  -0.49124  -0.49033
 Alpha  occ. eigenvalues --   -0.48617  -0.48488  -0.48485  -0.48469  -0.48304
 Alpha  occ. eigenvalues --   -0.48278  -0.47722  -0.47530  -0.47323  -0.47054
 Alpha  occ. eigenvalues --   -0.46823  -0.46640  -0.46587  -0.46490  -0.46384
 Alpha  occ. eigenvalues --   -0.46202  -0.46185  -0.46011  -0.45843  -0.45747
 Alpha  occ. eigenvalues --   -0.45225  -0.45137  -0.44600  -0.44536  -0.44444
 Alpha  occ. eigenvalues --   -0.44410  -0.44171  -0.44118  -0.44059  -0.44044
 Alpha  occ. eigenvalues --   -0.44013  -0.43876  -0.43517  -0.43485  -0.43414
 Alpha  occ. eigenvalues --   -0.43317  -0.43052  -0.42862  -0.42828  -0.42721
 Alpha  occ. eigenvalues --   -0.42678  -0.42487  -0.42036  -0.41898  -0.41728
 Alpha  occ. eigenvalues --   -0.41596  -0.41565  -0.41395  -0.41167  -0.40919
 Alpha  occ. eigenvalues --   -0.40900  -0.40852  -0.40664  -0.40637  -0.40597
 Alpha  occ. eigenvalues --   -0.40424  -0.40272  -0.40170  -0.39467  -0.39360
 Alpha  occ. eigenvalues --   -0.38495  -0.38281  -0.37783  -0.37594  -0.37346
 Alpha  occ. eigenvalues --   -0.37294  -0.37197  -0.37133  -0.36734  -0.36703
 Alpha  occ. eigenvalues --   -0.36217  -0.36148  -0.34312  -0.34182  -0.33793
 Alpha  occ. eigenvalues --   -0.33791  -0.33212  -0.33104  -0.31370  -0.31216
 Alpha  occ. eigenvalues --   -0.31061  -0.30902  -0.30047  -0.29875  -0.29475
 Alpha  occ. eigenvalues --   -0.29345  -0.29260  -0.29136  -0.24106  -0.23963
 Alpha  occ. eigenvalues --   -0.21154  -0.21046
 Alpha virt. eigenvalues --   -0.08800  -0.08721  -0.01776  -0.01613  -0.00084
 Alpha virt. eigenvalues --    0.00036   0.02179   0.02284   0.03089   0.03291
 Alpha virt. eigenvalues --    0.04688   0.04798   0.05078   0.05236   0.06140

 Mulliken charges:
               1
     1  Mg   0.838664
     2  C   -0.003011
     3  C   -0.094259
     4  C   -0.045836
     5  C   -0.063948
     6  N   -0.256761
     7  C   -0.052487
     8  C   -0.014003
     9  C   -0.086975
    10  C    0.046275
    11  C    0.104811
    12  C    0.053530
    13  C   -0.071689
    14  H    0.035896
    15  N   -0.433141
    16  C    0.168372
    17  C   -0.177252
    18  C   -0.004010
    19  C    0.148676
    20  C    0.110205
    21  C    0.012279
    22  O   -0.249522
    23  C    0.062499
    24  N   -0.341151
    25  C    0.041219
    26  C   -0.028177
    27  C   -0.024016
    28  C    0.074871
    29  C    0.076141
    30  C    0.035120
    31  C   -0.004498
    32  N   -0.310501
    33  C    0.080425
    34  C   -0.169632
    35  C    0.008439
    36  C    0.082986
    37  C    0.127286
    38  C    0.046205
    39  O   -0.188177
    40  C   -0.005344
    41  C    0.212910
    42  O   -0.257111
    43  O   -0.304792
    44  C    0.157637
    45  H   -0.017660
    46  H   -0.016783
    47  H   -0.041411
    48  H    0.001016
    49  H   -0.004189
    50  H    0.025543
    51  H    0.016495
    52  H    0.016630
    53  H    0.010979
    54  H    0.044123
    55  H    0.018010
    56  H    0.017756
    57  H    0.005777
    58  H    0.026862
    59  H    0.039295
    60  H    0.037327
    61  H    0.035748
    62  H    0.031304
    63  H    0.016572
    64  H    0.009540
    65  H    0.023270
    66  H    0.012562
    67  H    0.004804
    68  H    0.006417
    69  H    0.004777
    70  H    0.008814
    71  H    0.017993
    72  H    0.028958
    73  H    0.047753
    74  H    0.009131
    75  H    0.046091
    76  H    0.035202
    77  H    0.043132
    78  H    0.046223
    79  H    0.053789
    80  Mg   0.837979
    81  C   -0.016807
    82  C   -0.087864
    83  C   -0.045507
    84  C   -0.064661
    85  N   -0.254545
    86  C   -0.049641
    87  C   -0.015113
    88  C   -0.090553
    89  C    0.045827
    90  C    0.114385
    91  C    0.062559
    92  C   -0.077766
    93  H    0.034716
    94  N   -0.423462
    95  C    0.162891
    96  C   -0.174807
    97  C   -0.007919
    98  C    0.152074
    99  C    0.099474
   100  C    0.015468
   101  O   -0.253252
   102  C    0.061244
   103  N   -0.350033
   104  C    0.037568
   105  C   -0.019862
   106  C   -0.034858
   107  C    0.089036
   108  C    0.073615
   109  C    0.034715
   110  C   -0.007645
   111  N   -0.324169
   112  C    0.078562
   113  C   -0.162885
   114  C    0.002439
   115  C    0.096211
   116  C    0.131428
   117  C    0.042643
   118  O   -0.187605
   119  C    0.000830
   120  C    0.211201
   121  O   -0.251165
   122  O   -0.305512
   123  C    0.152087
   124  H   -0.019961
   125  H   -0.015652
   126  H   -0.040327
   127  H   -0.000507
   128  H   -0.004635
   129  H    0.022991
   130  H    0.014579
   131  H    0.015886
   132  H    0.013807
   133  H    0.037665
   134  H    0.020801
   135  H    0.019390
   136  H    0.008544
   137  H    0.025820
   138  H    0.039563
   139  H    0.038065
   140  H    0.036233
   141  H    0.033799
   142  H    0.014239
   143  H    0.012672
   144  H    0.024990
   145  H    0.011842
   146  H    0.005864
   147  H    0.006169
   148  H    0.003688
   149  H    0.010847
   150  H    0.017821
   151  H    0.030106
   152  H    0.045934
   153  H    0.008427
   154  H    0.047741
   155  H    0.035511
   156  H    0.043958
   157  H    0.049336
   158  H    0.053477
 Sum of Mulliken charges =  -0.00000

 Dipole moment (field-independent basis, Debye):
    X=             -3.7213    Y=             -2.1588    Z=             -7.8563  Tot=              8.9571
 Quadrupole moment (field-independent basis, Debye-Ang):
   XX=           -511.7540   YY=           -552.4730   ZZ=           -446.8543
   XY=             -2.7184   XZ=            -10.2398   YZ=            -46.4369

 Normal termination of Gaussian 16 at Sat Sep 11 19:15:44 2021.
