 Gaussian 16, Revision A.03,
 Gaussian 16:  ES64L-G16RevA.03 25-Dec-2016

 -----------------------------------
 #p cam-b3lyp/Def2SVP td=(nstates=5)
 -----------------------------------

 --------------------------------
 TDDFT excited states in gaussian
 --------------------------------
 Symbolic Z-matrix:
 Charge =  0 Multiplicity = 1

                         Standard orientation:
 ---------------------------------------------------------------------
 Center     Atomic      Atomic             Coordinates (Angstroms)
 Number     Number       Type             X           Y           Z
 ---------------------------------------------------------------------
      1         12           0        6.462478    0.935384    0.340841
      2          6           0        7.176901   -2.405508   -0.726989
      3          6           0        7.228597    1.952194   -2.824949
      4          6           0        6.279529    3.927851    1.374422
      5          6           0        6.859592   -0.184412    3.617122
      6          7           0        7.105865   -0.179956   -1.459914
      7          6           0        7.284066   -1.464238   -1.753230
      8          6           0        7.521352   -1.724178   -3.270959
      9          6           0        8.072621   -0.287798   -3.689186
     10          6           0        7.401820    0.551672   -2.616227
     11          6           0        9.584975   -0.150360   -3.546361
     12          6           0        6.196126   -2.072150   -4.028864
     13          6           0        6.380231   -2.655372   -5.432898
     14          1           0        5.449345   -3.673416   -5.895916
     15          7           0        6.240843    2.624843   -0.658886
     16          6           0        6.593160    2.856187   -1.946379
     17          6           0        6.224972    4.261290   -2.223515
     18          6           0        5.804814    4.883729   -0.937385
     19          6           0        6.120614    3.831059   -0.005971
     20          6           0        6.245148    4.861893   -3.595601
     21          6           0        5.222411    6.219785   -0.599902
     22          8           0        5.147100    6.644560    0.603621
     23          6           0        4.818140    7.066366   -1.736963
     24          7           0        6.770204    1.813657    2.209417
     25          6           0        6.567520    3.122122    2.398682
     26          6           0        6.572765    3.470027    3.857748
     27          6           0        6.579849    2.080022    4.643618
     28          6           0        6.664581    1.122772    3.429220
     29          6           0        7.748945    4.332590    4.335866
     30          6           0        5.453705    1.854386    5.683478
     31          6           0        4.119858    1.743320    4.979481
     32          7           0        6.758374   -0.980824    1.316361
     33          6           0        6.920682   -1.211431    2.690097
     34          6           0        7.198525   -2.649861    2.856799
     35          6           0        7.194934   -3.156399    1.558626
     36          6           0        6.957572   -2.096594    0.637342
     37          6           0        7.471416   -3.308707    4.088012
     38          6           0        7.360850   -4.342121    0.733767
     39          8           0        7.488222   -5.546030    0.961521
     40          6           0        7.476852   -3.882677   -0.786523
     41          6           0        6.556760   -4.754934   -1.596404
     42          8           0        5.319008   -4.685814   -1.453026
     43          8           0        7.256910   -5.355276   -2.571044
     44          6           0        6.397474   -6.212948   -3.430068
     45          1           0        7.669431    2.412220   -3.711505
     46          1           0        6.113990    4.926835    1.783158
     47          1           0        6.910577   -0.620976    4.616254
     48          1           0        8.267962   -2.487730   -3.490015
     49          1           0        7.722947    0.010381   -4.677386
     50          1           0       10.019806   -1.021962   -3.057329
     51          1           0        9.740170    0.742835   -2.940877
     52          1           0       10.047871    0.057656   -4.511365
     53          1           0        5.671962   -1.149638   -4.278434
     54          1           0        5.578600   -2.747757   -3.435954
     55          1           0        7.409384   -2.974387   -5.600177
     56          1           0        6.222979   -1.856659   -6.157832
     57          1           0        6.754404    4.214732   -4.308614
     58          1           0        6.869747    5.753463   -3.543749
     59          1           0        5.246786    5.131977   -3.940071
     60          1           0        5.683447    7.250548   -2.374043
     61          1           0        4.341899    7.944995   -1.303309
     62          1           0        4.099344    6.518548   -2.347026
     63          1           0        5.678604    4.029498    4.129580
     64          1           0        7.499151    1.936086    5.211807
     65          1           0        7.443215    5.261928    4.817078
     66          1           0        8.392796    4.529255    3.479087
     67          1           0        8.438174    3.830209    5.014095
     68          1           0        5.388428    2.704175    6.362111
     69          1           0        5.598489    0.958298    6.287063
     70          1           0        3.827552    2.784287    4.846149
     71          1           0        3.401871    1.213408    5.606298
     72          1           0        4.228801    1.305767    3.986926
     73          1           0        6.904233   -4.239236    4.068280
     74          1           0        7.188222   -2.690166    4.939370
     75          1           0        8.550146   -3.443398    4.010196
     76          1           0        8.520069   -4.010270   -1.073821
     77          1           0        6.829978   -7.213480   -3.419568
     78          1           0        6.317292   -5.706452   -4.392065
     79          1           0        5.394088   -6.418550   -3.055524
     80         12           0       -6.629347   -1.013009    0.210405
     81          6           0       -6.892112    2.247466   -1.265847
     82          6           0       -6.005918    0.545468    3.179760
     83          6           0       -5.947957   -3.855173    1.445413
     84          6           0       -6.137396   -2.274951   -3.000699
     85          7           0       -6.493269    1.125349    0.759195
     86          6           0       -6.672358    2.275456    0.127120
     87          6           0       -6.692455    3.521607    1.052473
     88          6           0       -5.847721    2.923145    2.280125
     89          6           0       -6.157887    1.439777    2.090167
     90          6           0       -4.348249    3.120397    2.131750
     91          6           0       -8.145952    3.915435    1.493210
     92          6           0       -8.269647    5.296413    2.140771
     93          1           0       -9.477240    6.077804    1.888550
     94          7           0       -6.544521   -1.603968    2.103062
     95          6           0       -6.303694   -0.834982    3.185618
     96          6           0       -6.325896   -1.746828    4.339828
     97          6           0       -6.435793   -3.141898    3.833439
     98          6           0       -6.289539   -2.917651    2.409219
     99          6           0       -6.326394   -1.261508    5.760349
    100          6           0       -6.626503   -4.461055    4.518760
    101          8           0       -6.455304   -5.571358    3.901725
    102          6           0       -6.928188   -4.415106    5.956941
    103          7           0       -5.907358   -2.775835   -0.622374
    104          6           0       -5.750496   -3.881025    0.127213
    105          6           0       -5.485626   -5.091995   -0.735213
    106          6           0       -5.738229   -4.611649   -2.239548
    107          6           0       -6.031544   -3.117294   -1.982156
    108          6           0       -4.085972   -5.695825   -0.622304
    109          6           0       -6.756919   -5.431056   -3.078320
    110          6           0       -8.149588   -5.251179   -2.518398
    111          7           0       -6.710399   -0.225084   -1.799740
    112          6           0       -6.444862   -0.920389   -2.999793
    113          6           0       -6.515520    0.064679   -4.098470
    114          6           0       -6.796777    1.278707   -3.453855
    115          6           0       -6.874535    1.068997   -2.050477
    116          6           0       -6.283466   -0.207707   -5.476174
    117          6           0       -7.035066    2.691880   -3.640525
    118          8           0       -7.177102    3.427404   -4.616524
    119          6           0       -6.982227    3.405097   -2.221043
    120          6           0       -8.177339    4.311945   -2.112094
    121          8           0       -9.327951    3.840770   -2.085709
    122          8           0       -7.759012    5.561324   -1.839293
    123          6           0       -8.909063    6.495532   -1.710921
    124          1           0       -5.578422    0.926229    4.107742
    125          1           0       -5.811435   -4.876434    1.808535
    126          1           0       -6.092744   -2.607214   -4.040071
    127          1           0       -6.194280    4.395032    0.649089
    128          1           0       -6.233679    3.274343    3.233574
    129          1           0       -4.089044    3.527039    1.165517
    130          1           0       -3.908465    2.139987    2.259948
    131          1           0       -3.965382    3.732256    2.953551
    132          1           0       -8.447247    3.283762    2.338774
    133          1           0       -8.827613    3.840745    0.668352
    134          1           0       -7.374569    5.909262    1.978870
    135          1           0       -8.314353    5.168514    3.225053
    136          1           0       -6.073419   -0.195829    5.821425
    137          1           0       -5.499484   -1.766669    6.271131
    138          1           0       -7.257398   -1.490370    6.283330
    139          1           0       -6.126249   -3.897362    6.477794
    140          1           0       -7.118388   -5.449758    6.248829
    141          1           0       -7.835805   -3.819389    6.105160
    142          1           0       -6.176944   -5.892215   -0.501054
    143          1           0       -4.817729   -4.652292   -2.840267
    144          1           0       -4.093383   -6.764039   -0.334303
    145          1           0       -3.519541   -5.113308    0.092105
    146          1           0       -3.475382   -5.617440   -1.520208
    147          1           0       -6.530997   -6.498137   -3.011557
    148          1           0       -6.760618   -5.167886   -4.130794
    149          1           0       -8.182613   -5.977606   -1.700899
    150          1           0       -8.898628   -5.474573   -3.275417
    151          1           0       -8.271304   -4.254412   -2.078763
    152          1           0       -7.054083    0.311512   -6.030300
    153          1           0       -6.299165   -1.276671   -5.678245
    154          1           0       -5.283098    0.217527   -5.593261
    155          1           0       -6.043142    3.957105   -2.166525
    156          1           0       -8.736815    7.313290   -2.417511
    157          1           0       -8.961166    6.759531   -0.637912
    158          1           0       -9.881473    6.140372   -2.031435
 ---------------------------------------------------------------------

 SCF Done:  E(RCAM-B3LYP) =  -4069.81184293     A.U. after   19 cycles

 Excitation energies and oscillator strengths:

 Excited State   1:      Singlet-A      1.6682 eV  743.21 nm  f=0.0976  <S**2>=0.000
     309 -> 315        0.10363
     310 -> 316        0.13749
     311 -> 313        0.41270
     312 -> 314        0.54857
 This state for optimization and/or second-order correction.
 Total Energy, E(TD-HF/TD-DFT) =  -4069.75053660
 Copying the excited state density for this state as the 1-particle RhoCI density.

 Excited State   2:      Singlet-A      1.6863 eV  735.25 nm  f=0.6416  <S**2>=0.000
     309 -> 315        0.14153
     310 -> 316       -0.10600
     311 -> 313        0.54757
     312 -> 314       -0.41200

 Excited State   3:      Singlet-A      2.1851 eV  567.42 nm  f=0.0609  <S**2>=0.000
     309 -> 313        0.17328
     310 -> 314        0.61929
     312 -> 316       -0.26205

 Excited State   4:      Singlet-A      2.1935 eV  565.25 nm  f=0.1316  <S**2>=0.000
     309 -> 313        0.61685
     310 -> 314       -0.17191
     311 -> 315       -0.26851

 Excited State   5:      Singlet-A      2.6511 eV  467.68 nm  f=0.0000  <S**2>=0.000
     312 -> 313        0.70710

 The electronic state is 1-A.
 Alpha  occ. eigenvalues --  -46.87854 -46.87555 -19.26327 -19.26299 -19.19104
 Alpha  occ. eigenvalues --  -19.19065 -19.18870 -19.18604 -19.18215 -19.17980
 Alpha  occ. eigenvalues --  -14.42504 -14.42393 -14.41512 -14.41247 -14.39459
 Alpha  occ. eigenvalues --  -14.39247 -14.38643 -14.38500 -10.39125 -10.39032
 Alpha  occ. eigenvalues --  -10.35502 -10.35281 -10.34436 -10.34157 -10.31720
 Alpha  occ. eigenvalues --  -10.31717 -10.31455 -10.31214 -10.30957 -10.30920
 Alpha  occ. eigenvalues --  -10.30623 -10.30567 -10.30296 -10.30272 -10.30268
 Alpha  occ. eigenvalues --  -10.30021 -10.29988 -10.29779 -10.29684 -10.29328
 Alpha  occ. eigenvalues --  -10.29309 -10.29306 -10.28789 -10.28629 -10.28587
 Alpha  occ. eigenvalues --  -10.28568 -10.28416 -10.28305 -10.28155 -10.28044
 Alpha  occ. eigenvalues --  -10.27906 -10.27844 -10.27778 -10.27636 -10.27592
 Alpha  occ. eigenvalues --  -10.27566 -10.27538 -10.27508 -10.27457 -10.27384
 Alpha  occ. eigenvalues --  -10.27380 -10.27373 -10.27368 -10.27219 -10.27205
 Alpha  occ. eigenvalues --  -10.26978 -10.26741 -10.26616 -10.26446 -10.26309
 Alpha  occ. eigenvalues --  -10.26306 -10.26268 -10.26083 -10.26023 -10.25914
 Alpha  occ. eigenvalues --  -10.25897 -10.25828 -10.25791 -10.25518 -10.25173
 Alpha  occ. eigenvalues --  -10.24884 -10.24850 -10.24836 -10.24781 -10.24628
 Alpha  occ. eigenvalues --  -10.24575  -3.16597  -3.16304  -1.91479  -1.91187
 Alpha  occ. eigenvalues --   -1.91065  -1.90907  -1.90775  -1.90612  -1.16676
 Alpha  occ. eigenvalues --   -1.16592  -1.08673  -1.08591  -1.07272  -1.06889
 Alpha  occ. eigenvalues --   -1.06855  -1.06687  -1.04633  -1.04394  -1.03820
 Alpha  occ. eigenvalues --   -1.03557  -1.03291  -1.02930  -1.02469  -1.02006
 Alpha  occ. eigenvalues --   -0.92024  -0.91894  -0.89599  -0.89383  -0.89230
 Alpha  occ. eigenvalues --   -0.89056  -0.88366  -0.88092  -0.87923  -0.87726
 Alpha  occ. eigenvalues --   -0.87709  -0.87581  -0.87320  -0.87020  -0.85028
 Alpha  occ. eigenvalues --   -0.84904  -0.84024  -0.83750  -0.83022  -0.82821
 Alpha  occ. eigenvalues --   -0.82697  -0.82556  -0.81636  -0.81519  -0.80648
 Alpha  occ. eigenvalues --   -0.80353  -0.78845  -0.78540  -0.77279  -0.77047
 Alpha  occ. eigenvalues --   -0.76987  -0.76800  -0.75970  -0.75750  -0.74970
 Alpha  occ. eigenvalues --   -0.74667  -0.72831  -0.72600  -0.71728  -0.71466
 Alpha  occ. eigenvalues --   -0.70005  -0.69635  -0.68921  -0.68733  -0.67695
 Alpha  occ. eigenvalues --   -0.67502  -0.67262  -0.67110  -0.65335  -0.65181
 Alpha  occ. eigenvalues --   -0.64911  -0.64680  -0.64673  -0.64561  -0.64344
 Alpha  occ. eigenvalues --   -0.64087  -0.62351  -0.62200  -0.60497  -0.60231
 Alpha  occ. eigenvalues --   -0.59850  -0.59702  -0.59046  -0.58889  -0.58560
 Alpha  occ. eigenvalues --   -0.58327  -0.57634  -0.57481  -0.57372  -0.57129
 Alpha  occ. eigenvalues --   -0.56360  -0.56114  -0.56025  -0.55811  -0.55571
 Alpha  occ. eigenvalues --   -0.55412  -0.55364  -0.55140  -0.54591  -0.54386
 Alpha  occ. eigenvalues --   -0.53938  -0.53819  -0.53355  -0.53267  -0.53129
 Alpha  occ. eigenvalues --   -0.53050  -0.52971  -0.52814  -0.52800  -0.52569
 Alpha  occ. eigenvalues --   -0.52539  -0.52291  -0.51968  -0.51812  -0.51658
 Alpha  occ. eigenvalues --   -0.51569  -0.51255  -0.51113  -0.50615  -0.50370
 Alpha  occ. eigenvalues --   -0.50111  -0.49966  -0.49876  -0.49737  -0.49561
 Alpha  occ. eigenvalues --   -0.49391  -0.49263  -0.49140  -0.49114  -0.49014
 Alpha  occ. eigenvalues --   -0.48644  -0.48529  -0.48495  -0.48472  -0.48256
 Alpha  occ. eigenvalues --   -0.48231  -0.47748  -0.47495  -0.47349  -0.47008
 Alpha  occ. eigenvalues --   -0.46860  -0.46606  -0.46599  -0.46458  -0.46418
 Alpha  occ. eigenvalues --   -0.46223  -0.46169  -0.45979  -0.45873  -0.45741
 Alpha  occ. eigenvalues --   -0.45276  -0.45067  -0.44630  -0.44562  -0.44427
 Alpha  occ. eigenvalues --   -0.44380  -0.44213  -0.44135  -0.44067  -0.44034
 Alpha  occ. eigenvalues --   -0.43973  -0.43848  -0.43547  -0.43473  -0.43442
 Alpha  occ. eigenvalues --   -0.43284  -0.43084  -0.42858  -0.42804  -0.42770
 Alpha  occ. eigenvalues --   -0.42723  -0.42436  -0.42084  -0.41862  -0.41759
 Alpha  occ. eigenvalues --   -0.41582  -0.41575  -0.41361  -0.41195  -0.40929
 Alpha  occ. eigenvalues --   -0.40879  -0.40875  -0.40646  -0.40622  -0.40597
 Alpha  occ. eigenvalues --   -0.40372  -0.40273  -0.40139  -0.39547  -0.39306
 Alpha  occ. eigenvalues --   -0.38545  -0.38221  -0.37793  -0.37566  -0.37392
 Alpha  occ. eigenvalues --   -0.37310  -0.37154  -0.37104  -0.36769  -0.36698
 Alpha  occ. eigenvalues --   -0.36253  -0.36109  -0.34343  -0.34151  -0.33818
 Alpha  occ. eigenvalues --   -0.33796  -0.33243  -0.33073  -0.31401  -0.31162
 Alpha  occ. eigenvalues --   -0.31092  -0.30868  -0.30075  -0.29886  -0.29501
 Alpha  occ. eigenvalues --   -0.29374  -0.29228  -0.29119  -0.24137  -0.23932
 Alpha  occ. eigenvalues --   -0.21184  -0.21013
 Alpha virt. eigenvalues --   -0.08828  -0.08691  -0.01809  -0.01574  -0.00108
 Alpha virt. eigenvalues --    0.00072   0.02146   0.02296   0.03052   0.03321
 Alpha virt. eigenvalues --    0.04667   0.04832   0.05053   0.05227   0.06136

 Mulliken charges:
               1
     1  Mg   0.838569
     2  C   -0.002903
     3  C   -0.093810
     4  C   -0.046100
     5  C   -0.064099
     6  N   -0.256769
     7  C   -0.052440
     8  C   -0.014028
     9  C   -0.087040
    10  C    0.046295
    11  C    0.104761
    12  C    0.053401
    13  C   -0.071848
    14  H    0.036017
    15  N   -0.433182
    16  C    0.168390
    17  C   -0.176884
    18  C   -0.004012
    19  C    0.148671
    20  C    0.110056
    21  C    0.012136
    22  O   -0.250053
    23  C    0.062462
    24  N   -0.341068
    25  C    0.041240
    26  C   -0.028139
    27  C   -0.023884
    28  C    0.074648
    29  C    0.076164
    30  C    0.035241
    31  C   -0.004388
    32  N   -0.310468
    33  C    0.080303
    34  C   -0.169766
    35  C    0.008438
    36  C    0.082932
    37  C    0.127325
    38  C    0.046157
    39  O   -0.188280
    40  C   -0.005363
    41  C    0.212972
    42  O   -0.257207
    43  O   -0.304734
    44  C    0.157699
    45  H   -0.017313
    46  H   -0.017071
    47  H   -0.041685
    48  H    0.001026
    49  H   -0.003774
    50  H    0.025501
    51  H    0.016435
    52  H    0.016880
    53  H    0.011354
    54  H    0.043975
    55  H    0.017962
    56  H    0.018224
    57  H    0.006110
    58  H    0.026962
    59  H    0.040106
    60  H    0.037597
    61  H    0.035563
    62  H    0.031898
    63  H    0.016021
    64  H    0.009564
    65  H    0.023012
    66  H    0.012817
    67  H    0.004813
    68  H    0.006032
    69  H    0.004781
    70  H    0.008180
    71  H    0.017255
    72  H    0.029388
    73  H    0.047677
    74  H    0.008877
    75  H    0.046093
    76  H    0.035278
    77  H    0.043064
    78  H    0.046458
    79  H    0.053531
    80  Mg   0.838028
    81  C   -0.017006
    82  C   -0.087819
    83  C   -0.045062
    84  C   -0.064601
    85  N   -0.254605
    86  C   -0.049919
    87  C   -0.015083
    88  C   -0.090524
    89  C    0.045888
    90  C    0.114356
    91  C    0.062541
    92  C   -0.077787
    93  H    0.034508
    94  N   -0.423597
    95  C    0.163165
    96  C   -0.174452
    97  C   -0.007471
    98  C    0.152220
    99  C    0.099314
   100  C    0.015732
   101  O   -0.252691
   102  C    0.061191
   103  N   -0.349991
   104  C    0.037950
   105  C   -0.020146
   106  C   -0.034613
   107  C    0.088884
   108  C    0.073109
   109  C    0.034709
   110  C   -0.007615
   111  N   -0.323987
   112  C    0.078334
   113  C   -0.163381
   114  C    0.001945
   115  C    0.096201
   116  C    0.131564
   117  C    0.042018
   118  O   -0.188723
   119  C    0.001029
   120  C    0.211163
   121  O   -0.251077
   122  O   -0.305674
   123  C    0.152129
   124  H   -0.019659
   125  H   -0.015015
   126  H   -0.040736
   127  H   -0.000811
   128  H   -0.004497
   129  H    0.022378
   130  H    0.014881
   131  H    0.016465
   132  H    0.013874
   133  H    0.037519
   134  H    0.020837
   135  H    0.019567
   136  H    0.008635
   137  H    0.026362
   138  H    0.039631
   139  H    0.038348
   140  H    0.036465
   141  H    0.033612
   142  H    0.014193
   143  H    0.012755
   144  H    0.025426
   145  H    0.013146
   146  H    0.006717
   147  H    0.006410
   148  H    0.003215
   149  H    0.011002
   150  H    0.017525
   151  H    0.029960
   152  H    0.045589
   153  H    0.008414
   154  H    0.046379
   155  H    0.034664
   156  H    0.043559
   157  H    0.049578
   158  H    0.053457
 Sum of Mulliken charges =  -0.00000

 Dipole moment (field-independent basis, Debye):
    X=              3.6261    Y=              3.3278    Z=              0.8271  Tot=              4.9907
 Quadrupole moment (field-independent basis, Debye-Ang):
   XX=           -521.6280   YY=           -536.7463   ZZ=           -460.8252
   XY=             18.3842   XZ=            -57.2821   YZ=             33.5306

 Normal termination of Gaussian 16 at Sat Sep  4 08:51:37 2021.
