 Gaussian 16, Revision A.03,
 Gaussian 16:  ES64L-G16RevA.03 25-Dec-2016

 -----------------------------------
 #p cam-b3lyp/Def2SVP td=(nstates=5)
 -----------------------------------

 --------------------------------
 TDDFT excited states in gaussian
 --------------------------------
 Symbolic Z-matrix:
 Charge =  0 Multiplicity = 1

                         Standard orientation:
 ---------------------------------------------------------------------
 Center     Atomic      Atomic             Coordinates (Angstroms)
 Number     Number       Type             X           Y           Z
 ---------------------------------------------------------------------
      1         12           0      -15.764994   -0.794837    0.067152
      2          6           0      -15.971953    2.771617    0.290295
      3          6           0      -16.637578   -0.491123   -3.217574
      4          6           0      -16.032476   -3.952892   -0.041306
      5          6           0      -16.029213   -0.879954    3.541141
      6          7           0      -16.219137    0.970269   -1.189352
      7          6           0      -16.204557    2.285737   -0.998294
      8          6           0      -16.385042    3.102941   -2.312440
      9          6           0      -17.135830    2.004448   -3.190864
     10          6           0      -16.606457    0.750982   -2.516689
     11          6           0      -18.653471    2.038519   -3.042182
     12          6           0      -15.015151    3.509896   -2.952375
     13          6           0      -15.096995    4.577264   -4.047538
     14          1           0      -14.022402    5.552277   -4.156842
     15          7           0      -15.781990   -2.026884   -1.477070
     16          6           0      -16.150537   -1.729506   -2.746331
     17          6           0      -15.988735   -2.978662   -3.521000
     18          6           0      -15.677859   -4.073072   -2.559899
     19          6           0      -15.846354   -3.391062   -1.302183
     20          6           0      -16.081794   -3.038357   -5.014830
     21          6           0      -15.300640   -5.508847   -2.745346
     22          8           0      -15.301111   -6.342846   -1.776317
     23          6           0      -15.012304   -5.939343   -4.125410
     24          7           0      -16.217770   -2.232052    1.511811
     25          6           0      -16.210551   -3.535978    1.213970
     26          6           0      -16.282209   -4.379326    2.452344
     27          6           0      -16.094457   -3.377101    3.681184
     28          6           0      -16.025360   -2.046430    2.892000
     29          6           0      -17.576882   -5.181846    2.641534
     30          6           0      -14.958624   -3.699519    4.684353
     31          6           0      -13.615409   -3.531750    4.010019
     32          7           0      -15.788055    0.665581    1.672671
     33          6           0      -15.929607    0.408789    3.044055
     34          6           0      -15.995986    1.715617    3.723660
     35          6           0      -15.904502    2.647939    2.692034
     36          6           0      -15.814748    1.966715    1.444569
     37          6           0      -16.182809    1.920667    5.119183
     38          6           0      -15.886487    4.061241    2.351285
     39          8           0      -15.838952    5.108628    2.997979
     40          6           0      -16.052118    4.198391    0.773443
     41          6           0      -15.005800    5.164691    0.288892
     42          8           0      -13.793049    4.875904    0.345504
     43          8           0      -15.600208    6.166328   -0.377399
     44          6           0      -14.615497    7.145289   -0.910440
     45          1           0      -17.131402   -0.536105   -4.190227
     46          1           0      -16.019116   -5.044636   -0.022496
     47          1           0      -16.026532   -0.827997    4.631438
     48          1           0      -17.009641    3.990901   -2.213311
     49          1           0      -16.822937    2.034405   -4.234378
     50          1           0      -18.961445    2.728672   -2.256839
     51          1           0      -18.944025    1.018877   -2.788407
     52          1           0      -19.131445    2.257345   -3.997395
     53          1           0      -14.628815    2.674394   -3.536106
     54          1           0      -14.311890    3.834321   -2.184588
     55          1           0      -16.066616    5.076004   -4.046349
     56          1           0      -15.050425    4.077873   -5.015339
     57          1           0      -16.483327   -2.114060   -5.428339
     58          1           0      -16.830520   -3.792222   -5.257332
     59          1           0      -15.130002   -3.304188   -5.475000
     60          1           0      -15.888369   -5.759619   -4.748915
     61          1           0      -14.674272   -6.972513   -4.053695
     62          1           0      -14.214668   -5.315876   -4.530397
     63          1           0      -15.482386   -5.118539    2.468875
     64          1           0      -16.988877   -3.318977    4.301917
     65          1           0      -17.415440   -6.254950    2.746838
     66          1           0      -18.233356   -4.965955    1.799083
     67          1           0      -18.192498   -4.864604    3.482838
     68          1           0      -15.025524   -4.736241    5.012495
     69          1           0      -14.977328   -3.068507    5.573018
     70          1           0      -13.476985   -4.485725    3.502474
     71          1           0      -12.834430   -3.368039    4.753310
     72          1           0      -13.648598   -2.756859    3.243906
     73          1           0      -15.485529    2.707029    5.407982
     74          1           0      -16.002194    1.004902    5.681638
     75          1           0      -17.229372    2.224171    5.140360
     76          1           0      -17.062347    4.565448    0.595034
     77          1           0      -14.897200    8.125636   -0.525994
     78          1           0      -14.599916    7.011383   -1.992212
     79          1           0      -13.596902    7.060071   -0.530253
     80         12           0       15.993188   -0.753505    0.089486
     81          6           0       15.470920    2.792118    0.276180
     82          6           0       15.418778   -0.510929   -3.263990
     83          6           0       16.001342   -3.923752   -0.040600
     84          6           0       15.396545   -0.882005    3.520703
     85          7           0       15.517364    0.972578   -1.209146
     86          6           0       15.405141    2.281032   -1.036789
     87          6           0       15.291750    3.095788   -2.353181
     88          6           0       14.716118    1.937005   -3.304360
     89          6           0       15.277826    0.719263   -2.573429
     90          6           0       13.199326    1.844875   -3.290260
     91          6           0       16.684405    3.613832   -2.857329
     92          6           0       16.615942    4.671354   -3.961284
     93          1           0       17.618909    5.732691   -3.971616
     94          7           0       16.231139   -1.974792   -1.456611
     95          6           0       15.970602   -1.706332   -2.753269
     96          6           0       16.291958   -2.937566   -3.491480
     97          6           0       16.606607   -4.007015   -2.505593
     98          6           0       16.264173   -3.334230   -1.268592
     99          6           0       16.357801   -2.994078   -4.990112
    100          6           0       17.117471   -5.408286   -2.652773
    101          8           0       17.091847   -6.240179   -1.678030
    102          6           0       17.562108   -5.806235   -3.996433
    103          7           0       15.529466   -2.223129    1.485023
    104          6           0       15.667882   -3.527114    1.187731
    105          6           0       15.542734   -4.384797    2.424294
    106          6           0       15.532302   -3.364385    3.655656
    107          6           0       15.564835   -2.029933    2.878744
    108          6           0       14.303454   -5.276935    2.492469
    109          6           0       16.588324   -3.596342    4.770858
    110          6           0       17.975174   -3.328201    4.232232
    111          7           0       15.701402    0.687657    1.672511
    112          6           0       15.440940    0.418200    3.033992
    113          6           0       15.202510    1.716686    3.696933
    114          6           0       15.319005    2.657173    2.662326
    115          6           0       15.589548    1.990149    1.437014
    116          6           0       14.875246    1.902149    5.069754
    117          6           0       15.264092    4.061694    2.326163
    118          8           0       15.155980    5.105178    2.968954
    119          6           0       15.234755    4.201645    0.743145
    120          6           0       16.241752    5.247773    0.350597
    121          8           0       17.456371    5.057806    0.538311
    122          8           0       15.627850    6.199890   -0.375334
    123          6           0       16.587863    7.254378   -0.797513
    124          1           0       15.032303   -0.582222   -4.281061
    125          1           0       16.101067   -5.011188   -0.008644
    126          1           0       15.300849   -0.829421    4.607328
    127          1           0       14.596174    3.925551   -2.315363
    128          1           0       15.131788    2.005568   -4.306306
    129          1           0       12.762862    2.498637   -2.549824
    130          1           0       12.969458    0.811637   -3.065273
    131          1           0       12.801033    2.031060   -4.291774
    132          1           0       17.191083    2.806540   -3.401648
    133          1           0       17.272503    3.982679   -2.039573
    134          1           0       15.608956    5.093169   -4.066133
    135          1           0       16.803541    4.183770   -4.921018
    136          1           0       15.916521   -2.099262   -5.446170
    137          1           0       15.702729   -3.812306   -5.308332
    138          1           0       17.367261   -3.185090   -5.360473
    139          1           0       16.739398   -5.690666   -4.698044
    140          1           0       17.975281   -6.810275   -3.882092
    141          1           0       18.351655   -5.119469   -4.321356
    142          1           0       16.394269   -5.046716    2.523632
    143          1           0       14.575383   -3.389343    4.197415
    144          1           0       14.544181   -6.349671    2.616450
    145          1           0       13.719722   -5.119437    1.595261
    146          1           0       13.593631   -5.022152    3.277608
    147          1           0       16.576706   -4.640764    5.092102
    148          1           0       16.425940   -2.986226    5.653124
    149          1           0       18.234884   -4.269932    3.739500
    150          1           0       18.664594   -3.104101    5.043725
    151          1           0       17.954349   -2.548148    3.462344
    152          1           0       15.467946    2.736236    5.421187
    153          1           0       15.070051    1.002588    5.649942
    154          1           0       13.805894    2.114556    4.988363
    155          1           0       14.220224    4.482549    0.457855
    156          1           0       16.187317    8.210309   -0.446161
    157          1           0       16.707435    7.129409   -1.890138
    158          1           0       17.568351    7.253420   -0.335892
 ---------------------------------------------------------------------

 SCF Done:  E(RCAM-B3LYP) =  -4069.81176359     A.U. after   19 cycles

 Excitation energies and oscillator strengths:

 Excited State   1:      Singlet-A      1.6753 eV  740.07 nm  f=0.2118  <S**2>=0.000
     310 -> 316        0.16848
     311 -> 314       -0.16422
     312 -> 313        0.66611
     310 <- 316        0.10157
 This state for optimization and/or second-order correction.
 Total Energy, E(TD-HF/TD-DFT) =  -4069.75019730
 Copying the excited state density for this state as the 1-particle RhoCI density.

 Excited State   2:      Singlet-A      1.6801 eV  737.95 nm  f=0.5656  <S**2>=0.000
     309 -> 315        0.17050
     311 -> 314        0.66574
     312 -> 313        0.16417
     309 <- 315        0.10208

 Excited State   3:      Singlet-A      2.1861 eV  567.16 nm  f=0.0950  <S**2>=0.000
     310 -> 313        0.64209
     312 -> 316       -0.27293

 Excited State   4:      Singlet-A      2.1925 eV  565.49 nm  f=0.1051  <S**2>=0.000
     309 -> 314        0.64031
     311 -> 315       -0.27813

 Excited State   5:      Singlet-A      3.0645 eV  404.58 nm  f=0.0000  <S**2>=0.000
     311 -> 313        0.70711

 The electronic state is 1-A.
 Alpha  occ. eigenvalues --  -46.87791 -46.87660 -19.26347 -19.26277 -19.19159
 Alpha  occ. eigenvalues --  -19.19013 -19.18811 -19.18715 -19.18163 -19.18049
 Alpha  occ. eigenvalues --  -14.42497 -14.42445 -14.41444 -14.41359 -14.39398
 Alpha  occ. eigenvalues --  -14.39352 -14.38599 -14.38581 -10.39089 -10.39073
 Alpha  occ. eigenvalues --  -10.35445 -10.35393 -10.34383 -10.34226 -10.31753
 Alpha  occ. eigenvalues --  -10.31672 -10.31400 -10.31308 -10.31023 -10.30904
 Alpha  occ. eigenvalues --  -10.30564 -10.30502 -10.30397 -10.30360 -10.30202
 Alpha  occ. eigenvalues --  -10.30141 -10.29915 -10.29894 -10.29625 -10.29436
 Alpha  occ. eigenvalues --  -10.29400 -10.29249 -10.28744 -10.28718 -10.28654
 Alpha  occ. eigenvalues --  -10.28534 -10.28404 -10.28360 -10.28140 -10.28112
 Alpha  occ. eigenvalues --  -10.28000 -10.27788 -10.27722 -10.27669 -10.27579
 Alpha  occ. eigenvalues --  -10.27517 -10.27495 -10.27483 -10.27478 -10.27469
 Alpha  occ. eigenvalues --  -10.27465 -10.27444 -10.27398 -10.27375 -10.27152
 Alpha  occ. eigenvalues --  -10.27048 -10.26700 -10.26693 -10.26417 -10.26408
 Alpha  occ. eigenvalues --  -10.26230 -10.26178 -10.26137 -10.26024 -10.26014
 Alpha  occ. eigenvalues --  -10.25934 -10.25847 -10.25836 -10.25430 -10.25397
 Alpha  occ. eigenvalues --  -10.24872 -10.24827 -10.24782 -10.24731 -10.24690
 Alpha  occ. eigenvalues --  -10.24681  -3.16534  -3.16410  -1.91416  -1.91292
 Alpha  occ. eigenvalues --   -1.91002  -1.90881  -1.90844  -1.90718  -1.16641
 Alpha  occ. eigenvalues --   -1.16626  -1.08656  -1.08621  -1.07212  -1.06968
 Alpha  occ. eigenvalues --   -1.06943  -1.06635  -1.04576  -1.04495  -1.03755
 Alpha  occ. eigenvalues --   -1.03663  -1.03229  -1.03038  -1.02406  -1.02111
 Alpha  occ. eigenvalues --   -0.91986  -0.91967  -0.89514  -0.89494  -0.89183
 Alpha  occ. eigenvalues --   -0.89151  -0.88281  -0.88220  -0.87864  -0.87792
 Alpha  occ. eigenvalues --   -0.87684  -0.87668  -0.87270  -0.87121  -0.84999
 Alpha  occ. eigenvalues --   -0.84977  -0.83931  -0.83876  -0.82963  -0.82932
 Alpha  occ. eigenvalues --   -0.82652  -0.82644  -0.81595  -0.81580  -0.80591
 Alpha  occ. eigenvalues --   -0.80442  -0.78792  -0.78636  -0.77213  -0.77144
 Alpha  occ. eigenvalues --   -0.76929  -0.76898  -0.75918  -0.75838  -0.74893
 Alpha  occ. eigenvalues --   -0.74802  -0.72769  -0.72698  -0.71667  -0.71580
 Alpha  occ. eigenvalues --   -0.69901  -0.69757  -0.68868  -0.68827  -0.67636
 Alpha  occ. eigenvalues --   -0.67601  -0.67215  -0.67200  -0.65281  -0.65271
 Alpha  occ. eigenvalues --   -0.64848  -0.64770  -0.64653  -0.64615  -0.64264
 Alpha  occ. eigenvalues --   -0.64203  -0.62291  -0.62277  -0.60437  -0.60340
 Alpha  occ. eigenvalues --   -0.59799  -0.59796  -0.58992  -0.58982  -0.58498
 Alpha  occ. eigenvalues --   -0.58425  -0.57578  -0.57553  -0.57303  -0.57236
 Alpha  occ. eigenvalues --   -0.56305  -0.56204  -0.55972  -0.55885  -0.55515
 Alpha  occ. eigenvalues --   -0.55452  -0.55334  -0.55247  -0.54517  -0.54487
 Alpha  occ. eigenvalues --   -0.53912  -0.53890  -0.53294  -0.53227  -0.53217
 Alpha  occ. eigenvalues --   -0.53141  -0.52909  -0.52901  -0.52752  -0.52669
 Alpha  occ. eigenvalues --   -0.52432  -0.52401  -0.51908  -0.51883  -0.51658
 Alpha  occ. eigenvalues --   -0.51612  -0.51200  -0.51190  -0.50569  -0.50476
 Alpha  occ. eigenvalues --   -0.50026  -0.49980  -0.49914  -0.49867  -0.49510
 Alpha  occ. eigenvalues --   -0.49488  -0.49209  -0.49202  -0.49103  -0.49091
 Alpha  occ. eigenvalues --   -0.48587  -0.48557  -0.48456  -0.48440  -0.48375
 Alpha  occ. eigenvalues --   -0.48339  -0.47690  -0.47594  -0.47292  -0.47118
 Alpha  occ. eigenvalues --   -0.46792  -0.46709  -0.46554  -0.46550  -0.46354
 Alpha  occ. eigenvalues --   -0.46270  -0.46157  -0.46085  -0.45820  -0.45816
 Alpha  occ. eigenvalues --   -0.45208  -0.45196  -0.44572  -0.44513  -0.44502
 Alpha  occ. eigenvalues --   -0.44476  -0.44139  -0.44127  -0.44083  -0.44078
 Alpha  occ. eigenvalues --   -0.44014  -0.43939  -0.43552  -0.43489  -0.43385
 Alpha  occ. eigenvalues --   -0.43381  -0.43022  -0.42929  -0.42900  -0.42693
 Alpha  occ. eigenvalues --   -0.42649  -0.42553  -0.42004  -0.41964  -0.41698
 Alpha  occ. eigenvalues --   -0.41668  -0.41529  -0.41458  -0.41136  -0.40989
 Alpha  occ. eigenvalues --   -0.40864  -0.40819  -0.40723  -0.40698  -0.40566
 Alpha  occ. eigenvalues --   -0.40493  -0.40230  -0.40227  -0.39435  -0.39425
 Alpha  occ. eigenvalues --   -0.38464  -0.38350  -0.37743  -0.37654  -0.37315
 Alpha  occ. eigenvalues --   -0.37265  -0.37258  -0.37199  -0.36769  -0.36707
 Alpha  occ. eigenvalues --   -0.36216  -0.36187  -0.34281  -0.34253  -0.33860
 Alpha  occ. eigenvalues --   -0.33764  -0.33181  -0.33175  -0.31341  -0.31274
 Alpha  occ. eigenvalues --   -0.31030  -0.30972  -0.30022  -0.29953  -0.29444
 Alpha  occ. eigenvalues --   -0.29327  -0.29316  -0.29211  -0.24075  -0.24036
 Alpha  occ. eigenvalues --   -0.21122  -0.21117
 Alpha virt. eigenvalues --   -0.08792  -0.08769  -0.01745  -0.01683  -0.00053
 Alpha virt. eigenvalues --   -0.00029   0.02206   0.02208   0.03129   0.03227
 Alpha virt. eigenvalues --    0.04723   0.04730   0.05105   0.05167   0.06182

 Mulliken charges:
               1
     1  Mg   0.838779
     2  C   -0.002971
     3  C   -0.094127
     4  C   -0.045876
     5  C   -0.063960
     6  N   -0.256779
     7  C   -0.052458
     8  C   -0.014021
     9  C   -0.087001
    10  C    0.046325
    11  C    0.104813
    12  C    0.053472
    13  C   -0.071794
    14  H    0.036130
    15  N   -0.433142
    16  C    0.168421
    17  C   -0.177175
    18  C   -0.004012
    19  C    0.148712
    20  C    0.110184
    21  C    0.012272
    22  O   -0.249632
    23  C    0.062483
    24  N   -0.341177
    25  C    0.041258
    26  C   -0.028179
    27  C   -0.023982
    28  C    0.074868
    29  C    0.076166
    30  C    0.035118
    31  C   -0.004503
    32  N   -0.310472
    33  C    0.080419
    34  C   -0.169686
    35  C    0.008360
    36  C    0.082972
    37  C    0.127306
    38  C    0.046140
    39  O   -0.188403
    40  C   -0.005320
    41  C    0.212868
    42  O   -0.257093
    43  O   -0.304801
    44  C    0.157690
    45  H   -0.017620
    46  H   -0.016845
    47  H   -0.041474
    48  H    0.000945
    49  H   -0.004048
    50  H    0.025480
    51  H    0.016445
    52  H    0.016647
    53  H    0.011191
    54  H    0.044134
    55  H    0.017873
    56  H    0.017928
    57  H    0.005864
    58  H    0.026811
    59  H    0.039523
    60  H    0.037339
    61  H    0.035632
    62  H    0.031485
    63  H    0.016551
    64  H    0.009466
    65  H    0.023206
    66  H    0.012541
    67  H    0.004758
    68  H    0.006366
    69  H    0.004750
    70  H    0.008770
    71  H    0.018167
    72  H    0.028978
    73  H    0.047604
    74  H    0.009124
    75  H    0.046014
    76  H    0.035151
    77  H    0.042964
    78  H    0.046382
    79  H    0.053707
    80  Mg   0.837874
    81  C   -0.016841
    82  C   -0.087788
    83  C   -0.045506
    84  C   -0.064882
    85  N   -0.254567
    86  C   -0.049832
    87  C   -0.015082
    88  C   -0.090517
    89  C    0.045759
    90  C    0.114376
    91  C    0.062524
    92  C   -0.077899
    93  H    0.034902
    94  N   -0.423498
    95  C    0.162909
    96  C   -0.174621
    97  C   -0.007819
    98  C    0.152116
    99  C    0.099360
   100  C    0.015564
   101  O   -0.253179
   102  C    0.061203
   103  N   -0.350040
   104  C    0.037500
   105  C   -0.019823
   106  C   -0.034842
   107  C    0.088924
   108  C    0.073652
   109  C    0.034734
   110  C   -0.007677
   111  N   -0.324122
   112  C    0.078457
   113  C   -0.163113
   114  C    0.002259
   115  C    0.096218
   116  C    0.131491
   117  C    0.042403
   118  O   -0.187806
   119  C    0.000914
   120  C    0.211271
   121  O   -0.251033
   122  O   -0.305621
   123  C    0.152033
   124  H   -0.019671
   125  H   -0.015570
   126  H   -0.040417
   127  H   -0.000621
   128  H   -0.004339
   129  H    0.022506
   130  H    0.014433
   131  H    0.016275
   132  H    0.013906
   133  H    0.037683
   134  H    0.020804
   135  H    0.019576
   136  H    0.008755
   137  H    0.026134
   138  H    0.039783
   139  H    0.038244
   140  H    0.036390
   141  H    0.033891
   142  H    0.014396
   143  H    0.012463
   144  H    0.025138
   145  H    0.011647
   146  H    0.005717
   147  H    0.006273
   148  H    0.003677
   149  H    0.010925
   150  H    0.017940
   151  H    0.030088
   152  H    0.046025
   153  H    0.008524
   154  H    0.047019
   155  H    0.035076
   156  H    0.043946
   157  H    0.049476
   158  H    0.053575
 Sum of Mulliken charges =  -0.00000

 Dipole moment (field-independent basis, Debye):
    X=             -3.5094    Y=             -2.5714    Z=             -7.9372  Tot=              9.0514
 Quadrupole moment (field-independent basis, Debye-Ang):
   XX=           -500.6626   YY=           -551.7377   ZZ=           -447.5271
   XY=             -1.9567   XZ=             -2.7662   YZ=            -49.0550

 Normal termination of Gaussian 16 at Sun Sep 12 19:45:41 2021.
