 Gaussian 16, Revision A.03,
 Gaussian 16:  ES64L-G16RevA.03 25-Dec-2016

 -----------------------------------
 #p cam-b3lyp/Def2SVP td=(nstates=5)
 -----------------------------------

 --------------------------------
 TDDFT excited states in gaussian
 --------------------------------
 Symbolic Z-matrix:
 Charge =  0 Multiplicity = 1

                         Standard orientation:
 ---------------------------------------------------------------------
 Center     Atomic      Atomic             Coordinates (Angstroms)
 Number     Number       Type             X           Y           Z
 ---------------------------------------------------------------------
      1         12           0        4.377056    0.596305    1.365640
      2          6           0        5.286312   -2.350803   -0.450956
      3          6           0        6.018053    2.395709   -1.024410
      4          6           0        3.979844    3.165461    3.181758
      5          6           0        3.819742   -1.456071    4.126584
      6          7           0        5.472071   -0.013981   -0.458953
      7          6           0        5.696344   -1.170467   -1.074917
      8          6           0        6.341602   -1.005332   -2.483373
      9          6           0        7.019483    0.423866   -2.283701
     10          6           0        6.094958    0.984371   -1.217394
     11          6           0        8.434686    0.353424   -1.719130
     12          6           0        5.272887   -0.977700   -3.627407
     13          6           0        5.828181   -1.147374   -5.044522
     14          1           0        5.040903   -1.884185   -6.021584
     15          7           0        4.480688    2.515817    0.910022
     16          6           0        5.183124    3.069927   -0.107244
     17          6           0        4.938219    4.525985   -0.026014
     18          6           0        4.190050    4.791960    1.233983
     19          6           0        4.210056    3.488188    1.846484
     20          6           0        5.353590    5.491047   -1.093662
     21          6           0        3.566550    6.027759    1.801593
     22          8           0        3.168092    6.092948    3.014670
     23          6           0        3.514361    7.204062    0.914673
     24          7           0        4.170985    0.860773    3.426035
     25          6           0        3.952761    2.072866    3.947754
     26          6           0        3.558670    1.982691    5.392226
     27          6           0        3.315359    0.432530    5.688121
     28          6           0        3.714034   -0.137256    4.304404
     29          6           0        4.573774    2.541223    6.399012
     30          6           0        1.939176    0.037148    6.279909
     31          6           0        0.852429    0.275604    5.255597
     32          7           0        4.346419   -1.539872    1.748853
     33          6           0        4.114028   -2.172612    2.978612
     34          6           0        4.302248   -3.618982    2.762616
     35          6           0        4.649528   -3.726339    1.417359
     36          6           0        4.702162   -2.427000    0.836635
     37          6           0        4.206230   -4.629869    3.759272
     38          6           0        5.012429   -4.634465    0.341502
     39          8           0        5.044386   -5.859329    0.214308
     40          6           0        5.557984   -3.771146   -0.880332
     41          6           0        4.881043   -4.270344   -2.127673
     42          8           0        3.654268   -4.114915   -2.295689
     43          8           0        5.811654   -4.634737   -3.023063
     44          6           0        5.206978   -5.112304   -4.295246
     45          1           0        6.698759    3.042475   -1.581434
     46          1           0        3.729186    4.015820    3.819330
     47          1           0        3.580348   -2.165018    4.921277
     48          1           0        7.102480   -1.747828   -2.724598
     49          1           0        6.965983    1.029575   -3.188122
     50          1           0        8.696369   -0.663072   -1.425569
     51          1           0        8.434735    1.012434   -0.850684
     52          1           0        9.152837    0.780645   -2.419501
     53          1           0        4.859797    0.027653   -3.709154
     54          1           0        4.499628   -1.726255   -3.451167
     55          1           0        6.855785   -1.511652   -5.028971
     56          1           0        5.897156   -0.161600   -5.504621
     57          1           0        6.026928    5.026864   -1.813172
     58          1           0        5.958650    6.258467   -0.611296
     59          1           0        4.497165    5.953058   -1.585001
     60          1           0        4.526878    7.471460    0.611595
     61          1           0        2.955777    7.965581    1.457742
     62          1           0        2.982184    6.934701    0.001885
     63          1           0        2.636869    2.531369    5.581067
     64          1           0        4.036304    0.034429    6.402563
     65          1           0        4.166760    3.319241    7.045334
     66          1           0        5.435221    2.907285    5.841161
     67          1           0        5.035161    1.794624    7.044868
     68          1           0        1.706190    0.657091    7.144973
     69          1           0        1.889902   -1.004985    6.595792
     70          1           0        0.632163    1.335632    5.376657
     71          1           0       -0.023490   -0.333444    5.481513
     72          1           0        1.224061    0.133866    4.240567
     73          1           0        3.646468   -5.449702    3.309262
     74          1           0        3.710710   -4.256737    4.655282
     75          1           0        5.260590   -4.849775    3.926076
     76          1           0        6.636823   -3.920136   -0.912439
     77          1           0        5.596998   -6.113272   -4.480130
     78          1           0        5.409543   -4.344423   -5.042060
     79          1           0        4.134628   -5.309775   -4.274975
     80         12           0       -4.166896    0.306513   -1.420850
     81          6           0       -5.997562   -1.693176    0.930527
     82          6           0       -6.239947    2.890944   -0.609813
     83          6           0       -2.872931    1.960314   -3.799502
     84          6           0       -3.024839   -2.662127   -2.845138
     85          7           0       -5.861515    0.456470   -0.007320
     86          6           0       -6.427099   -0.350751    0.877465
     87          6           0       -7.458628    0.338927    1.810128
     88          6           0       -7.848655    1.576418    0.863882
     89          6           0       -6.559954    1.677803    0.050468
     90          6           0       -8.991847    1.268573   -0.088846
     91          6           0       -6.815728    0.825452    3.156231
     92          6           0       -7.818879    1.227773    4.239546
     93          1           0       -7.488324    0.945531    5.633652
     94          7           0       -4.162398    2.259475   -1.773654
     95          6           0       -5.068275    3.165182   -1.348952
     96          6           0       -4.628043    4.459591   -1.891948
     97          6           0       -3.480388    4.218082   -2.808063
     98          6           0       -3.473890    2.769428   -2.846226
     99          6           0       -5.231636    5.767227   -1.468651
    100          6           0       -2.551545    5.138743   -3.540075
    101          8           0       -1.776518    4.714650   -4.468669
    102          6           0       -2.643031    6.566719   -3.202401
    103          7           0       -3.273631   -0.261092   -3.210330
    104          6           0       -2.746032    0.655335   -4.040833
    105          6           0       -1.919390    0.000343   -5.121589
    106          6           0       -1.802907   -1.538051   -4.700444
    107          6           0       -2.696316   -1.523892   -3.440673
    108          6           0       -2.480787    0.098360   -6.539896
    109          6           0       -0.371353   -2.129601   -4.584758
    110          6           0        0.357526   -1.493693   -3.422971
    111          7           0       -4.290243   -1.796686   -0.941895
    112          6           0       -3.762873   -2.873675   -1.687583
    113          6           0       -4.200806   -4.118629   -1.023704
    114          6           0       -4.977871   -3.676385    0.057543
    115          6           0       -5.037860   -2.256564    0.055126
    116          6           0       -3.913867   -5.441484   -1.463970
    117          6           0       -5.769815   -4.088094    1.194203
    118          8           0       -6.006440   -5.162705    1.744619
    119          6           0       -6.569706   -2.826161    1.736513
    120          6           0       -6.402759   -2.777370    3.230598
    121          8           0       -5.285094   -2.570602    3.735273
    122          8           0       -7.617277   -2.765505    3.809528
    123          6           0       -7.504132   -2.706326    5.291254
    124          1           0       -6.973490    3.697561   -0.597366
    125          1           0       -2.318412    2.484703   -4.581168
    126          1           0       -2.629698   -3.626686   -3.170972
    127          1           0       -8.339053   -0.252898    2.030069
    128          1           0       -8.006106    2.482422    1.443296
    129          1           0       -9.276007    0.227336   -0.054063
    130          1           0       -8.631177    1.529582   -1.075177
    131          1           0       -9.836970    1.934164    0.108900
    132          1           0       -6.322435    1.791577    2.988821
    133          1           0       -6.140873    0.087687    3.544683
    134          1           0       -8.834745    0.884888    4.008447
    135          1           0       -7.899731    2.317435    4.250195
    136          1           0       -6.164224    5.617891   -0.910635
    137          1           0       -5.541700    6.286775   -2.381776
    138          1           0       -4.527246    6.399629   -0.924071
    139          1           0       -3.654853    6.918085   -3.390057
    140          1           0       -1.840936    7.051396   -3.762420
    141          1           0       -2.463219    6.684361   -2.127950
    142          1           0       -0.925878    0.429751   -5.162262
    143          1           0       -2.296709   -2.198305   -5.428492
    144          1           0       -1.780312    0.569578   -7.254986
    145          1           0       -3.411791    0.648164   -6.501249
    146          1           0       -2.789462   -0.847963   -6.980805
    147          1           0        0.208742   -1.895396   -5.480745
    148          1           0       -0.357901   -3.207787   -4.465109
    149          1           0        0.737733   -0.561222   -3.850787
    150          1           0        1.170415   -2.133013   -3.084566
    151          1           0       -0.339044   -1.227769   -2.619399
    152          1           0       -3.644370   -6.010793   -0.584343
    153          1           0       -3.116175   -5.450024   -2.203829
    154          1           0       -4.879035   -5.716312   -1.897777
    155          1           0       -7.613406   -2.949838    1.445025
    156          1           0       -8.064829   -3.557969    5.688759
    157          1           0       -7.852536   -1.696121    5.577361
    158          1           0       -6.526105   -2.875357    5.726381
 ---------------------------------------------------------------------

 SCF Done:  E(RCAM-B3LYP) =  -4069.81359688     A.U. after   19 cycles

 Excitation energies and oscillator strengths:

 Excited State   1:      Singlet-A      1.6458 eV  753.33 nm  f=0.0041  <S**2>=0.000
     309 -> 315       -0.11289
     310 -> 316        0.12214
     311 -> 313       -0.46487
     312 -> 314        0.50682
 This state for optimization and/or second-order correction.
 Total Energy, E(TD-HF/TD-DFT) =  -4069.75311415
 Copying the excited state density for this state as the 1-particle RhoCI density.

 Excited State   2:      Singlet-A      1.7021 eV  728.43 nm  f=0.6989  <S**2>=0.000
     309 -> 315        0.13369
     310 -> 316        0.12168
     311 -> 313        0.50426
     312 -> 314        0.46258

 Excited State   3:      Singlet-A      2.1809 eV  568.50 nm  f=0.0318  <S**2>=0.000
     309 -> 313        0.27095
     310 -> 314        0.58477
     311 -> 315       -0.11206
     312 -> 316       -0.24409

 Excited State   4:      Singlet-A      2.1949 eV  564.88 nm  f=0.1496  <S**2>=0.000
     309 -> 313        0.58069
     310 -> 314       -0.26732
     311 -> 315       -0.25459
     312 -> 316        0.11895

 Excited State   5:      Singlet-A      2.4524 eV  505.55 nm  f=0.0000  <S**2>=0.000
     312 -> 313        0.70699

 The electronic state is 1-A.
 Alpha  occ. eigenvalues --  -46.87645 -46.87420 -19.26427 -19.26221 -19.19244
 Alpha  occ. eigenvalues --  -19.19020 -19.18701 -19.18588 -19.18081 -19.17847
 Alpha  occ. eigenvalues --  -14.42310 -14.42268 -14.41295 -14.41097 -14.39254
 Alpha  occ. eigenvalues --  -14.39123 -14.38438 -14.38353 -10.39248 -10.38944
 Alpha  occ. eigenvalues --  -10.35336 -10.35273 -10.34310 -10.34025 -10.31825
 Alpha  occ. eigenvalues --  -10.31658 -10.31273 -10.31070 -10.30829 -10.30799
 Alpha  occ. eigenvalues --  -10.30421 -10.30359 -10.30151 -10.30106 -10.30035
 Alpha  occ. eigenvalues --  -10.29869 -10.29764 -10.29620 -10.29483 -10.29206
 Alpha  occ. eigenvalues --  -10.29163 -10.29096 -10.28689 -10.28566 -10.28550
 Alpha  occ. eigenvalues --  -10.28535 -10.28237 -10.28193 -10.28024 -10.27957
 Alpha  occ. eigenvalues --  -10.27772 -10.27645 -10.27580 -10.27439 -10.27438
 Alpha  occ. eigenvalues --  -10.27305 -10.27292 -10.27290 -10.27288 -10.27269
 Alpha  occ. eigenvalues --  -10.27261 -10.27245 -10.27134 -10.27123 -10.27072
 Alpha  occ. eigenvalues --  -10.26865 -10.26701 -10.26545 -10.26365 -10.26314
 Alpha  occ. eigenvalues --  -10.26143 -10.25888 -10.25859 -10.25843 -10.25633
 Alpha  occ. eigenvalues --  -10.25630 -10.25515 -10.25508 -10.25286 -10.25184
 Alpha  occ. eigenvalues --  -10.24694 -10.24645 -10.24643 -10.24454 -10.24305
 Alpha  occ. eigenvalues --  -10.23827  -3.16388  -3.16170  -1.91269  -1.91052
 Alpha  occ. eigenvalues --   -1.90856  -1.90698  -1.90640  -1.90477  -1.16778
 Alpha  occ. eigenvalues --   -1.16511  -1.08556  -1.08458  -1.07106  -1.06850
 Alpha  occ. eigenvalues --   -1.06815  -1.06802  -1.04449  -1.04272  -1.03611
 Alpha  occ. eigenvalues --   -1.03423  -1.03083  -1.02784  -1.02262  -1.01867
 Alpha  occ. eigenvalues --   -0.91870  -0.91765  -0.89334  -0.89163  -0.89103
 Alpha  occ. eigenvalues --   -0.88952  -0.88104  -0.87869  -0.87708  -0.87540
 Alpha  occ. eigenvalues --   -0.87531  -0.87446  -0.87129  -0.86936  -0.84896
 Alpha  occ. eigenvalues --   -0.84804  -0.83753  -0.83495  -0.82825  -0.82738
 Alpha  occ. eigenvalues --   -0.82565  -0.82433  -0.81550  -0.81389  -0.80503
 Alpha  occ. eigenvalues --   -0.80234  -0.78647  -0.78414  -0.77078  -0.76909
 Alpha  occ. eigenvalues --   -0.76854  -0.76632  -0.75842  -0.75631  -0.74748
 Alpha  occ. eigenvalues --   -0.74510  -0.72620  -0.72437  -0.71552  -0.71357
 Alpha  occ. eigenvalues --   -0.69673  -0.69286  -0.68775  -0.68616  -0.67525
 Alpha  occ. eigenvalues --   -0.67385  -0.67145  -0.67035  -0.65203  -0.65073
 Alpha  occ. eigenvalues --   -0.64759  -0.64526  -0.64512  -0.64425  -0.64093
 Alpha  occ. eigenvalues --   -0.63850  -0.62283  -0.62067  -0.60293  -0.60123
 Alpha  occ. eigenvalues --   -0.59699  -0.59594  -0.58861  -0.58749  -0.58391
 Alpha  occ. eigenvalues --   -0.58186  -0.57568  -0.57359  -0.57175  -0.56977
 Alpha  occ. eigenvalues --   -0.56206  -0.55983  -0.55973  -0.55709  -0.55414
 Alpha  occ. eigenvalues --   -0.55279  -0.55232  -0.54961  -0.54453  -0.54167
 Alpha  occ. eigenvalues --   -0.53822  -0.53729  -0.53166  -0.53137  -0.53018
 Alpha  occ. eigenvalues --   -0.52922  -0.52868  -0.52692  -0.52647  -0.52524
 Alpha  occ. eigenvalues --   -0.52190  -0.51857  -0.51751  -0.51588  -0.51537
 Alpha  occ. eigenvalues --   -0.51486  -0.51077  -0.50927  -0.50424  -0.50303
 Alpha  occ. eigenvalues --   -0.49862  -0.49787  -0.49775  -0.49509  -0.49419
 Alpha  occ. eigenvalues --   -0.49306  -0.49126  -0.49014  -0.49006  -0.48885
 Alpha  occ. eigenvalues --   -0.48532  -0.48366  -0.48357  -0.48312  -0.48186
 Alpha  occ. eigenvalues --   -0.48096  -0.47582  -0.47373  -0.47177  -0.46910
 Alpha  occ. eigenvalues --   -0.46653  -0.46482  -0.46451  -0.46344  -0.46229
 Alpha  occ. eigenvalues --   -0.46040  -0.46002  -0.45829  -0.45744  -0.45589
 Alpha  occ. eigenvalues --   -0.45040  -0.44901  -0.44495  -0.44381  -0.44334
 Alpha  occ. eigenvalues --   -0.44225  -0.44032  -0.43963  -0.43944  -0.43908
 Alpha  occ. eigenvalues --   -0.43769  -0.43713  -0.43444  -0.43299  -0.43261
 Alpha  occ. eigenvalues --   -0.43161  -0.42910  -0.42760  -0.42733  -0.42665
 Alpha  occ. eigenvalues --   -0.42457  -0.42210  -0.41842  -0.41592  -0.41572
 Alpha  occ. eigenvalues --   -0.41437  -0.41436  -0.41171  -0.41024  -0.40773
 Alpha  occ. eigenvalues --   -0.40759  -0.40715  -0.40586  -0.40462  -0.40391
 Alpha  occ. eigenvalues --   -0.40187  -0.40104  -0.40072  -0.39189  -0.38909
 Alpha  occ. eigenvalues --   -0.38303  -0.38033  -0.37697  -0.37470  -0.37174
 Alpha  occ. eigenvalues --   -0.37153  -0.37005  -0.36943  -0.36779  -0.36589
 Alpha  occ. eigenvalues --   -0.36105  -0.35936  -0.34153  -0.34013  -0.33905
 Alpha  occ. eigenvalues --   -0.33703  -0.33056  -0.32932  -0.31233  -0.31147
 Alpha  occ. eigenvalues --   -0.30910  -0.30743  -0.29947  -0.29750  -0.29303
 Alpha  occ. eigenvalues --   -0.29175  -0.29116  -0.28973  -0.23942  -0.23794
 Alpha  occ. eigenvalues --   -0.20976  -0.20873
 Alpha virt. eigenvalues --   -0.08630  -0.08562  -0.01603  -0.01446   0.00065
 Alpha virt. eigenvalues --    0.00149   0.02321   0.02439   0.02899   0.03861
 Alpha virt. eigenvalues --    0.04804   0.04877   0.04953   0.05319   0.06138

 Mulliken charges:
               1
     1  Mg   0.839378
     2  C   -0.004625
     3  C   -0.093535
     4  C   -0.045868
     5  C   -0.062743
     6  N   -0.256844
     7  C   -0.052739
     8  C   -0.014066
     9  C   -0.087113
    10  C    0.046436
    11  C    0.104848
    12  C    0.051268
    13  C   -0.071341
    14  H    0.033253
    15  N   -0.433120
    16  C    0.168929
    17  C   -0.176488
    18  C   -0.003969
    19  C    0.148759
    20  C    0.110016
    21  C    0.012036
    22  O   -0.250315
    23  C    0.062214
    24  N   -0.341223
    25  C    0.041465
    26  C   -0.027961
    27  C   -0.024156
    28  C    0.075074
    29  C    0.076366
    30  C    0.034893
    31  C   -0.005115
    32  N   -0.310665
    33  C    0.080814
    34  C   -0.168276
    35  C    0.008084
    36  C    0.083634
    37  C    0.127136
    38  C    0.045845
    39  O   -0.188865
    40  C   -0.005551
    41  C    0.213758
    42  O   -0.257751
    43  O   -0.303782
    44  C    0.157702
    45  H   -0.017823
    46  H   -0.017175
    47  H   -0.040405
    48  H    0.000461
    49  H   -0.003808
    50  H    0.025233
    51  H    0.016656
    52  H    0.016516
    53  H    0.013055
    54  H    0.044841
    55  H    0.018240
    56  H    0.019055
    57  H    0.005977
    58  H    0.026112
    59  H    0.041260
    60  H    0.037466
    61  H    0.034279
    62  H    0.032335
    63  H    0.016450
    64  H    0.009121
    65  H    0.022695
    66  H    0.012120
    67  H    0.004666
    68  H    0.005521
    69  H    0.005896
    70  H    0.006916
    71  H    0.023941
    72  H    0.028655
    73  H    0.048471
    74  H    0.010536
    75  H    0.045404
    76  H    0.035399
    77  H    0.043833
    78  H    0.046828
    79  H    0.051688
    80  Mg   0.837823
    81  C   -0.017490
    82  C   -0.088102
    83  C   -0.045945
    84  C   -0.062738
    85  N   -0.254615
    86  C   -0.049782
    87  C   -0.015151
    88  C   -0.090427
    89  C    0.045512
    90  C    0.114545
    91  C    0.062582
    92  C   -0.077497
    93  H    0.033890
    94  N   -0.423253
    95  C    0.162627
    96  C   -0.174996
    97  C   -0.008482
    98  C    0.151862
    99  C    0.099428
   100  C    0.014556
   101  O   -0.255000
   102  C    0.061442
   103  N   -0.350493
   104  C    0.037848
   105  C   -0.018939
   106  C   -0.034836
   107  C    0.089919
   108  C    0.074292
   109  C    0.034883
   110  C   -0.017914
   111  N   -0.324482
   112  C    0.079413
   113  C   -0.160989
   114  C    0.001820
   115  C    0.096832
   116  C    0.131085
   117  C    0.042586
   118  O   -0.188013
   119  C    0.000789
   120  C    0.211310
   121  O   -0.251490
   122  O   -0.305549
   123  C    0.152327
   124  H   -0.020469
   125  H   -0.016822
   126  H   -0.037716
   127  H   -0.001021
   128  H   -0.004721
   129  H    0.022170
   130  H    0.014364
   131  H    0.015684
   132  H    0.014242
   133  H    0.037290
   134  H    0.020629
   135  H    0.019579
   136  H    0.008533
   137  H    0.025134
   138  H    0.039402
   139  H    0.038487
   140  H    0.033817
   141  H    0.033897
   142  H    0.013451
   143  H    0.011090
   144  H    0.023227
   145  H    0.010790
   146  H    0.005215
   147  H    0.002090
   148  H    0.007909
   149  H    0.003604
   150  H    0.041700
   151  H    0.025862
   152  H    0.047209
   153  H    0.011731
   154  H    0.045821
   155  H    0.034586
   156  H    0.043677
   157  H    0.049301
   158  H    0.052860
 Sum of Mulliken charges =  -0.00000

 Dipole moment (field-independent basis, Debye):
    X=              0.3836    Y=              6.6055    Z=             -2.0692  Tot=              6.9326
 Quadrupole moment (field-independent basis, Debye-Ang):
   XX=           -456.8345   YY=           -538.0393   ZZ=           -480.7600
   XY=            -15.4146   XZ=            -22.4913   YZ=              9.8180

 Normal termination of Gaussian 16 at Thu Sep  9 16:28:24 2021.
