 Gaussian 16, Revision A.03,
 Gaussian 16:  ES64L-G16RevA.03 25-Dec-2016

 -----------------------------------
 #p cam-b3lyp/Def2SVP td=(nstates=5)
 -----------------------------------

 --------------------------------
 TDDFT excited states in gaussian
 --------------------------------
 Symbolic Z-matrix:
 Charge =  0 Multiplicity = 1

                         Standard orientation:
 ---------------------------------------------------------------------
 Center     Atomic      Atomic             Coordinates (Angstroms)
 Number     Number       Type             X           Y           Z
 ---------------------------------------------------------------------
      1         12           0        5.038512   -1.332973    0.018698
      2          6           0        6.097589    1.987628   -0.796270
      3          6           0        6.170747   -0.756989    3.185613
      4          6           0        4.530943   -4.400738    0.641444
      5          6           0        5.047195   -2.015985   -3.398769
      6          7           0        5.991859    0.432285    0.954454
      7          6           0        6.287468    1.663251    0.548859
      8          6           0        6.747706    2.600839    1.704923
      9          6           0        7.262143    1.497347    2.734319
     10          6           0        6.399213    0.329540    2.289907
     11          6           0        8.728924    1.124237    2.544988
     12          6           0        5.563826    3.433677    2.302032
     13          6           0        5.975655    4.601408    3.203229
     14          1           0        5.182017    5.820729    3.175999
     15          7           0        4.853726   -2.276443    1.744551
     16          6           0        5.365667   -1.889807    2.937747
     17          6           0        4.953649   -2.923051    3.912082
     18          6           0        4.322363   -4.038205    3.153132
     19          6           0        4.570533   -3.622862    1.796194
     20          6           0        5.126262   -2.773474    5.392481
     21          6           0        3.617915   -5.286155    3.582674
     22          8           0        3.351073   -6.232273    2.765221
     23          6           0        3.323372   -5.412148    5.021566
     24          7           0        5.030539   -3.042697   -1.178974
     25          6           0        4.723618   -4.240693   -0.669475
     26          6           0        4.505822   -5.255179   -1.752674
     27          6           0        4.489668   -4.439628   -3.125397
     28          6           0        4.800051   -3.029413   -2.565731
     29          6           0        5.549402   -6.377522   -1.838116
     30          6           0        3.246665   -4.615687   -4.033343
     31          6           0        2.032254   -4.012782   -3.363410
     32          7           0        5.313985   -0.190877   -1.806343
     33          6           0        5.298790   -0.683119   -3.119408
     34          6           0        5.638808    0.443930   -4.007224
     35          6           0        5.845759    1.516575   -3.142093
     36          6           0        5.673287    1.080544   -1.797317
     37          6           0        5.778936    0.377768   -5.421586
     38          6           0        6.196611    2.923780   -3.039466
     39          8           0        6.365040    3.836774   -3.849136
     40          6           0        6.493101    3.256048   -1.510571
     41          6           0        5.749100    4.517710   -1.167089
     42          8           0        4.501524    4.538966   -1.145485
     43          8           0        6.612761    5.427317   -0.690385
     44          6           0        5.934612    6.693005   -0.302696
     45          1           0        6.700734   -0.774702    4.139941
     46          1           0        4.249436   -5.443250    0.803805
     47          1           0        4.986375   -2.133599   -4.482245
     48          1           0        7.562924    3.276345    1.445045
     49          1           0        7.034705    1.765600    3.765839
     50          1           0        9.144753    1.584935    1.649017
     51          1           0        8.743779    0.037769    2.456334
     52          1           0        9.307048    1.359861    3.438873
     53          1           0        5.023477    2.822833    3.025187
     54          1           0        4.913001    3.802727    1.508587
     55          1           0        7.035691    4.833144    3.095856
     56          1           0        5.871287    4.285125    4.241147
     57          1           0        5.767952   -1.928040    5.637469
     58          1           0        5.681718   -3.645154    5.737955
     59          1           0        4.170378   -2.716509    5.913414
     60          1           0        4.255433   -5.365370    5.585147
     61          1           0        2.738690   -6.324966    5.130016
     62          1           0        2.730803   -4.552982    5.337230
     63          1           0        3.550000   -5.762203   -1.627147
     64          1           0        5.328738   -4.705283   -3.768875
     65          1           0        5.123582   -7.378200   -1.760495
     66          1           0        6.292143   -6.207088   -1.059285
     67          1           0        6.167868   -6.359288   -2.735102
     68          1           0        3.036145   -5.673519   -4.187024
     69          1           0        3.361459   -4.154445   -5.014327
     70          1           0        1.697756   -4.811068   -2.701834
     71          1           0        1.268485   -3.773894   -4.104220
     72          1           0        2.303978   -3.162875   -2.737063
     73          1           0        5.278192    1.260388   -5.819338
     74          1           0        5.343351   -0.538173   -5.820235
     75          1           0        6.864290    0.400504   -5.518254
     76          1           0        7.571859    3.379402   -1.420086
     77          1           0        6.422183    7.499308   -0.850770
     78          1           0        5.957143    6.735622    0.786378
     79          1           0        4.903651    6.809935   -0.638530
     80         12           0       -5.204697    1.347248    0.258518
     81          6           0       -5.915908   -2.143169   -0.177684
     82          6           0       -4.354884    1.433764   -3.043744
     83          6           0       -4.143700    4.303055    0.711182
     84          6           0       -5.005563    0.736348    3.683835
     85          7           0       -5.180795   -0.217405   -1.304669
     86          6           0       -5.530724   -1.493259   -1.368761
     87          6           0       -5.541123   -2.086056   -2.803348
     88          6           0       -4.505945   -1.069163   -3.491245
     89          6           0       -4.712619    0.141445   -2.583293
     90          6           0       -3.057448   -1.513232   -3.372867
     91          6           0       -6.957553   -2.004589   -3.473499
     92          6           0       -7.115549   -2.838733   -4.746691
     93          1           0       -8.405647   -3.470539   -5.009231
     94          7           0       -4.840471    2.795301   -1.048783
     95          6           0       -4.533956    2.653796   -2.355422
     96          6           0       -4.339112    4.017044   -2.872892
     97          6           0       -4.393729    4.965769   -1.727607
     98          6           0       -4.441709    4.035936   -0.617117
     99          6           0       -4.206395    4.320389   -4.337060
    100          6           0       -4.388980    6.462200   -1.644849
    101          8           0       -4.202770    7.074570   -0.534367
    102          6           0       -4.515474    7.189513   -2.916267
    103          7           0       -4.445870    2.333315    1.924104
    104          6           0       -4.107300    3.633164    1.863240
    105          6           0       -3.850056    4.194926    3.241149
    106          6           0       -4.323593    3.059713    4.263225
    107          6           0       -4.706432    1.954652    3.254423
    108          6           0       -2.401785    4.579259    3.543121
    109          6           0       -5.365462    3.471544    5.339128
    110          6           0       -6.689387    3.787464    4.681256
    111          7           0       -5.595921   -0.328584    1.564877
    112          6           0       -5.422123   -0.377096    2.965422
    113          6           0       -5.708098   -1.762293    3.391896
    114          6           0       -6.008421   -2.434429    2.197523
    115          6           0       -5.896447   -1.536694    1.101602
    116          6           0       -5.624254   -2.256641    4.724079
    117          6           0       -6.384337   -3.701809    1.613469
    118          8           0       -6.705189   -4.802705    2.059362
    119          6           0       -6.217950   -3.600469    0.035993
    120          6           0       -7.461993   -4.158614   -0.599100
    121          8           0       -8.557598   -3.589298   -0.450268
    122          8           0       -7.118779   -5.142358   -1.450461
    123          6           0       -8.318168   -5.720060   -2.113454
    124          1           0       -3.850360    1.520269   -4.006479
    125          1           0       -3.879444    5.338960    0.936013
    126          1           0       -5.060762    0.488976    4.746112
    127          1           0       -5.170293   -3.101281   -2.878055
    128          1           0       -4.800373   -0.835575   -4.511112
    129          1           0       -2.952932   -2.382526   -2.740778
    130          1           0       -2.525353   -0.671410   -2.949486
    131          1           0       -2.629236   -1.671424   -4.366823
    132          1           0       -7.099733   -0.998684   -3.889060
    133          1           0       -7.726295   -2.265969   -2.772536
    134          1           0       -6.301014   -3.563018   -4.868668
    135          1           0       -7.016681   -2.176278   -5.610054
    136          1           0       -4.037318    3.408570   -4.923056
    137          1           0       -3.284182    4.898215   -4.461586
    138          1           0       -5.044279    4.904352   -4.723861
    139          1           0       -3.701737    6.903481   -3.578447
    140          1           0       -4.581944    8.244653   -2.643996
    141          1           0       -5.444528    6.877977   -3.406595
    142          1           0       -4.438679    5.088171    3.410694
    143          1           0       -3.483194    2.667744    4.854773
    144          1           0       -2.285155    5.636565    3.847410
    145          1           0       -1.802706    4.367275    2.667508
    146          1           0       -1.914101    3.977289    4.307974
    147          1           0       -5.045185    4.384912    5.846403
    148          1           0       -5.519576    2.716282    6.102556
    149          1           0       -6.561806    4.824056    4.355220
    150          1           0       -7.504119    3.696176    5.396740
    151          1           0       -6.838905    3.175726    3.783989
    152          1           0       -6.497269   -2.875867    4.881895
    153          1           0       -5.575634   -1.444990    5.447012
    154          1           0       -4.684515   -2.812426    4.667092
    155          1           0       -5.328384   -4.169532   -0.236814
    156          1           0       -8.302089   -6.797204   -1.920627
    157          1           0       -8.260553   -5.396515   -3.169742
    158          1           0       -9.289544   -5.448694   -1.716926
 ---------------------------------------------------------------------

 SCF Done:  E(RCAM-B3LYP) =  -4069.81173682     A.U. after   19 cycles

 Excitation energies and oscillator strengths:

 Excited State   1:      Singlet-A      1.6583 eV  747.64 nm  f=0.0276  <S**2>=0.000
     309 -> 315        0.11336
     310 -> 316        0.12624
     311 -> 313        0.45761
     312 -> 314        0.51244
 This state for optimization and/or second-order correction.
 Total Energy, E(TD-HF/TD-DFT) =  -4069.75079419
 Copying the excited state density for this state as the 1-particle RhoCI density.

 Excited State   2:      Singlet-A      1.6964 eV  730.86 nm  f=0.6893  <S**2>=0.000
     309 -> 315        0.13409
     310 -> 316       -0.11932
     311 -> 313        0.51067
     312 -> 314       -0.45612

 Excited State   3:      Singlet-A      2.1849 eV  567.47 nm  f=0.0250  <S**2>=0.000
     309 -> 313        0.28982
     310 -> 314        0.57476
     311 -> 315       -0.12147
     312 -> 316       -0.24241

 Excited State   4:      Singlet-A      2.1950 eV  564.85 nm  f=0.1584  <S**2>=0.000
     309 -> 313        0.57148
     310 -> 314       -0.28696
     311 -> 315       -0.25039
     312 -> 316        0.12652

 Excited State   5:      Singlet-A      2.4850 eV  498.92 nm  f=0.0000  <S**2>=0.000
     312 -> 313        0.70709

 The electronic state is 1-A.
 Alpha  occ. eigenvalues --  -46.87879 -46.87493 -19.26331 -19.26231 -19.19076
 Alpha  occ. eigenvalues --  -19.19035 -19.18849 -19.18515 -19.18255 -19.17893
 Alpha  occ. eigenvalues --  -14.42529 -14.42330 -14.41536 -14.41198 -14.39480
 Alpha  occ. eigenvalues --  -14.39176 -14.38674 -14.38436 -10.39137 -10.38962
 Alpha  occ. eigenvalues --  -10.35479 -10.35189 -10.34474 -10.34073 -10.31707
 Alpha  occ. eigenvalues --  -10.31655 -10.31490 -10.31150 -10.30975 -10.30844
 Alpha  occ. eigenvalues --  -10.30660 -10.30592 -10.30292 -10.30235 -10.30199
 Alpha  occ. eigenvalues --  -10.30014 -10.29975 -10.29746 -10.29713 -10.29332
 Alpha  occ. eigenvalues --  -10.29256 -10.29232 -10.28809 -10.28577 -10.28569
 Alpha  occ. eigenvalues --  -10.28546 -10.28440 -10.28227 -10.28182 -10.27984
 Alpha  occ. eigenvalues --  -10.27877 -10.27828 -10.27807 -10.27658 -10.27617
 Alpha  occ. eigenvalues --  -10.27546 -10.27538 -10.27492 -10.27480 -10.27406
 Alpha  occ. eigenvalues --  -10.27318 -10.27285 -10.27250 -10.27230 -10.27223
 Alpha  occ. eigenvalues --  -10.26897 -10.26756 -10.26562 -10.26411 -10.26349
 Alpha  occ. eigenvalues --  -10.26295 -10.26190 -10.26116 -10.26059 -10.25976
 Alpha  occ. eigenvalues --  -10.25856 -10.25784 -10.25744 -10.25513 -10.25265
 Alpha  occ. eigenvalues --  -10.24918 -10.24896 -10.24867 -10.24705 -10.24649
 Alpha  occ. eigenvalues --  -10.24521  -3.16622  -3.16242  -1.91504  -1.91125
 Alpha  occ. eigenvalues --   -1.91090  -1.90932  -1.90713  -1.90550  -1.16682
 Alpha  occ. eigenvalues --   -1.16523  -1.08713  -1.08505  -1.07246  -1.06819
 Alpha  occ. eigenvalues --   -1.06764  -1.06699  -1.04659  -1.04327  -1.03844
 Alpha  occ. eigenvalues --   -1.03496  -1.03318  -1.02875  -1.02495  -1.01945
 Alpha  occ. eigenvalues --   -0.92051  -0.91825  -0.89628  -0.89355  -0.89254
 Alpha  occ. eigenvalues --   -0.88999  -0.88389  -0.88086  -0.87969  -0.87752
 Alpha  occ. eigenvalues --   -0.87647  -0.87523  -0.87334  -0.86919  -0.85048
 Alpha  occ. eigenvalues --   -0.84846  -0.84049  -0.83750  -0.83023  -0.82746
 Alpha  occ. eigenvalues --   -0.82710  -0.82487  -0.81654  -0.81457  -0.80666
 Alpha  occ. eigenvalues --   -0.80287  -0.78871  -0.78454  -0.77307  -0.77008
 Alpha  occ. eigenvalues --   -0.76991  -0.76761  -0.75993  -0.75684  -0.74988
 Alpha  occ. eigenvalues --   -0.74662  -0.72864  -0.72542  -0.71750  -0.71425
 Alpha  occ. eigenvalues --   -0.70038  -0.69642  -0.68941  -0.68672  -0.67715
 Alpha  occ. eigenvalues --   -0.67441  -0.67274  -0.67040  -0.65358  -0.65121
 Alpha  occ. eigenvalues --   -0.64934  -0.64699  -0.64618  -0.64506  -0.64370
 Alpha  occ. eigenvalues --   -0.64067  -0.62365  -0.62143  -0.60513  -0.60160
 Alpha  occ. eigenvalues --   -0.59876  -0.59639  -0.59071  -0.58837  -0.58585
 Alpha  occ. eigenvalues --   -0.58270  -0.57659  -0.57409  -0.57391  -0.57081
 Alpha  occ. eigenvalues --   -0.56389  -0.56044  -0.56035  -0.55746  -0.55584
 Alpha  occ. eigenvalues --   -0.55434  -0.55284  -0.55117  -0.54611  -0.54362
 Alpha  occ. eigenvalues --   -0.53959  -0.53761  -0.53378  -0.53279  -0.53073
 Alpha  occ. eigenvalues --   -0.52990  -0.52978  -0.52809  -0.52755  -0.52574
 Alpha  occ. eigenvalues --   -0.52468  -0.52294  -0.52025  -0.51757  -0.51675
 Alpha  occ. eigenvalues --   -0.51495  -0.51285  -0.51056  -0.50621  -0.50273
 Alpha  occ. eigenvalues --   -0.50137  -0.49975  -0.49812  -0.49716  -0.49573
 Alpha  occ. eigenvalues --   -0.49315  -0.49288  -0.49165  -0.49036  -0.48955
 Alpha  occ. eigenvalues --   -0.48668  -0.48547  -0.48496  -0.48409  -0.48239
 Alpha  occ. eigenvalues --   -0.48152  -0.47767  -0.47431  -0.47367  -0.46945
 Alpha  occ. eigenvalues --   -0.46889  -0.46617  -0.46563  -0.46445  -0.46401
 Alpha  occ. eigenvalues --   -0.46250  -0.46109  -0.45945  -0.45907  -0.45690
 Alpha  occ. eigenvalues --   -0.45295  -0.45061  -0.44663  -0.44574  -0.44371
 Alpha  occ. eigenvalues --   -0.44324  -0.44238  -0.44156  -0.44082  -0.43975
 Alpha  occ. eigenvalues --   -0.43926  -0.43762  -0.43570  -0.43463  -0.43422
 Alpha  occ. eigenvalues --   -0.43234  -0.43111  -0.42795  -0.42793  -0.42756
 Alpha  occ. eigenvalues --   -0.42734  -0.42410  -0.42114  -0.41834  -0.41785
 Alpha  occ. eigenvalues --   -0.41602  -0.41515  -0.41314  -0.41216  -0.40953
 Alpha  occ. eigenvalues --   -0.40863  -0.40833  -0.40669  -0.40573  -0.40524
 Alpha  occ. eigenvalues --   -0.40360  -0.40286  -0.40076  -0.39582  -0.39314
 Alpha  occ. eigenvalues --   -0.38565  -0.38217  -0.37810  -0.37514  -0.37416
 Alpha  occ. eigenvalues --   -0.37331  -0.37124  -0.37040  -0.36783  -0.36646
 Alpha  occ. eigenvalues --   -0.36271  -0.36078  -0.34370  -0.34093  -0.33831
 Alpha  occ. eigenvalues --   -0.33728  -0.33268  -0.33011  -0.31380  -0.31112
 Alpha  occ. eigenvalues --   -0.31077  -0.30806  -0.30115  -0.29801  -0.29523
 Alpha  occ. eigenvalues --   -0.29408  -0.29143  -0.29043  -0.24163  -0.23870
 Alpha  occ. eigenvalues --   -0.21212  -0.20949
 Alpha virt. eigenvalues --   -0.08853  -0.08618  -0.01829  -0.01516  -0.00118
 Alpha virt. eigenvalues --    0.00159   0.02114   0.02364   0.03014   0.03381
 Alpha virt. eigenvalues --    0.04645   0.04885   0.05038   0.05297   0.06126

 Mulliken charges:
               1
     1  Mg   0.838590
     2  C   -0.002774
     3  C   -0.094091
     4  C   -0.045770
     5  C   -0.064426
     6  N   -0.256775
     7  C   -0.052510
     8  C   -0.013995
     9  C   -0.087023
    10  C    0.046464
    11  C    0.104764
    12  C    0.053468
    13  C   -0.072083
    14  H    0.036809
    15  N   -0.433264
    16  C    0.168622
    17  C   -0.176962
    18  C   -0.003653
    19  C    0.148894
    20  C    0.110161
    21  C    0.012755
    22  O   -0.248903
    23  C    0.062303
    24  N   -0.341049
    25  C    0.041199
    26  C   -0.028394
    27  C   -0.023761
    28  C    0.074551
    29  C    0.076033
    30  C    0.035271
    31  C   -0.004639
    32  N   -0.310277
    33  C    0.079983
    34  C   -0.170657
    35  C    0.008221
    36  C    0.082661
    37  C    0.127536
    38  C    0.045748
    39  O   -0.188817
    40  C   -0.005154
    41  C    0.212727
    42  O   -0.257046
    43  O   -0.304847
    44  C    0.157519
    45  H   -0.017316
    46  H   -0.016394
    47  H   -0.042195
    48  H    0.001054
    49  H   -0.003919
    50  H    0.025547
    51  H    0.016468
    52  H    0.016880
    53  H    0.010947
    54  H    0.044367
    55  H    0.017931
    56  H    0.017813
    57  H    0.005899
    58  H    0.027236
    59  H    0.039759
    60  H    0.037250
    61  H    0.036801
    62  H    0.031531
    63  H    0.016798
    64  H    0.009549
    65  H    0.023649
    66  H    0.012831
    67  H    0.004744
    68  H    0.006649
    69  H    0.004007
    70  H    0.009647
    71  H    0.015542
    72  H    0.029243
    73  H    0.046591
    74  H    0.008373
    75  H    0.046267
    76  H    0.035267
    77  H    0.042952
    78  H    0.046632
    79  H    0.054165
    80  Mg   0.838050
    81  C   -0.016745
    82  C   -0.087071
    83  C   -0.044333
    84  C   -0.065342
    85  N   -0.254531
    86  C   -0.050057
    87  C   -0.015044
    88  C   -0.090595
    89  C    0.045643
    90  C    0.113901
    91  C    0.062577
    92  C   -0.077625
    93  H    0.034418
    94  N   -0.423903
    95  C    0.163065
    96  C   -0.172687
    97  C   -0.006963
    98  C    0.152555
    99  C    0.098540
   100  C    0.016445
   101  O   -0.253299
   102  C    0.060955
   103  N   -0.349941
   104  C    0.037784
   105  C   -0.019949
   106  C   -0.034375
   107  C    0.088693
   108  C    0.073400
   109  C    0.034920
   110  C   -0.007555
   111  N   -0.323943
   112  C    0.078151
   113  C   -0.163748
   114  C    0.002237
   115  C    0.095864
   116  C    0.131499
   117  C    0.042218
   118  O   -0.188455
   119  C    0.000903
   120  C    0.211160
   121  O   -0.251255
   122  O   -0.305565
   123  C    0.152156
   124  H   -0.018559
   125  H   -0.015359
   126  H   -0.041568
   127  H   -0.000974
   128  H   -0.004549
   129  H    0.022646
   130  H    0.016173
   131  H    0.015419
   132  H    0.013906
   133  H    0.037529
   134  H    0.020427
   135  H    0.019519
   136  H    0.008898
   137  H    0.028969
   138  H    0.039324
   139  H    0.039922
   140  H    0.036023
   141  H    0.033262
   142  H    0.014057
   143  H    0.011224
   144  H    0.024435
   145  H    0.014346
   146  H    0.004153
   147  H    0.005556
   148  H    0.002952
   149  H    0.010878
   150  H    0.017442
   151  H    0.030516
   152  H    0.045603
   153  H    0.007689
   154  H    0.046324
   155  H    0.035301
   156  H    0.043686
   157  H    0.049324
   158  H    0.053372
 Sum of Mulliken charges =  -0.00000

 Dipole moment (field-independent basis, Debye):
    X=              4.3371    Y=              0.2890    Z=              0.4157  Tot=              4.3666
 Quadrupole moment (field-independent basis, Debye-Ang):
   XX=           -524.7316   YY=           -543.8225   ZZ=           -451.2131
   XY=            -20.3625   XZ=             54.5548   YZ=             37.9234

 Normal termination of Gaussian 16 at Sat Sep  4 02:05:03 2021.
