 Gaussian 16, Revision A.03,
 Gaussian 16:  ES64L-G16RevA.03 25-Dec-2016

 -----------------------------------
 #p cam-b3lyp/Def2SVP td=(nstates=5)
 -----------------------------------

 --------------------------------
 TDDFT excited states in gaussian
 --------------------------------
 Symbolic Z-matrix:
 Charge =  0 Multiplicity = 1

                         Standard orientation:
 ---------------------------------------------------------------------
 Center     Atomic      Atomic             Coordinates (Angstroms)
 Number     Number       Type             X           Y           Z
 ---------------------------------------------------------------------
      1         12           0        8.155837    0.368248    0.160215
      2          6           0        8.226514   -3.057358   -0.875370
      3          6           0        9.024558    1.196801   -3.033824
      4          6           0        8.543444    3.354062    1.155856
      5          6           0        8.414305   -0.772509    3.443130
      6          7           0        8.545736   -0.863555   -1.637362
      7          6           0        8.480680   -2.161658   -1.916411
      8          6           0        8.633298   -2.475592   -3.434807
      9          6           0        9.427520   -1.168007   -3.883618
     10          6           0        8.944471   -0.209683   -2.809279
     11          6           0       10.942388   -1.307149   -3.772639
     12          6           0        7.250552   -2.583680   -4.161486
     13          6           0        7.294536   -3.204636   -5.560712
     14          1           0        6.183937   -4.040485   -5.991149
     15          7           0        8.223563    2.059767   -0.858131
     16          6           0        8.583752    2.210182   -2.155407
     17          6           0        8.471511    3.656030   -2.444554
     18          6           0        8.200028    4.357402   -1.159070
     19          6           0        8.339293    3.274126   -0.219658
     20          6           0        8.570554    4.229204   -3.824921
     21          6           0        7.878130    5.780531   -0.828588
     22          8           0        7.907849    6.223876    0.370218
     23          6           0        7.609861    6.675263   -1.968995
     24          7           0        8.659259    1.194264    2.010053
     25          6           0        8.702364    2.519571    2.185232
     26          6           0        8.802892    2.875194    3.638973
     27          6           0        8.574070    1.515082    4.443639
     28          6           0        8.456439    0.546386    3.241116
     29          6           0       10.126652    3.513610    4.081799
     30          6           0        7.448777    1.508876    5.508579
     31          6           0        6.101867    1.635821    4.832696
     32          7           0        8.119304   -1.559985    1.156020
     33          6           0        8.267043   -1.802631    2.529327
     34          6           0        8.281978   -3.265876    2.710317
     35          6           0        8.157732   -3.776167    1.419577
     36          6           0        8.097096   -2.700074    0.488642
     37          6           0        8.457338   -3.951141    3.944859
     38          6           0        8.086871   -4.980417    0.608024
     39          8           0        7.997920   -6.185046    0.849791
     40          6           0        8.251163   -4.564974   -0.920453
     41          6           0        7.170099   -5.262906   -1.699877
     42          8           0        5.969064   -4.967887   -1.533015
     43          8           0        7.727689   -5.990492   -2.679802
     44          6           0        6.707830   -6.685631   -3.509755
     45          1           0        9.522196    1.559911   -3.935184
     46          1           0        8.571545    4.370502    1.553974
     47          1           0        8.406891   -1.201086    4.446983
     48          1           0        9.223439   -3.364594   -3.658038
     49          1           0        9.116357   -0.820932   -4.868727
     50          1           0       11.221915   -2.238502   -3.280331
     51          1           0       11.270847   -0.451230   -3.182715
     52          1           0       11.414115   -1.196617   -4.749385
     53          1           0        6.897733   -1.583604   -4.413337
     54          1           0        6.533525   -3.129460   -3.547221
     55          1           0        8.244492   -3.707563   -5.743897
     56          1           0        7.269432   -2.397896   -6.293338
     57          1           0        8.937708    3.492989   -4.538875
     58          1           0        9.348005    4.992446   -3.797729
     59          1           0        7.630722    4.673315   -4.153270
     60          1           0        8.480037    6.692269   -2.625542
     61          1           0        7.311165    7.630257   -1.538163
     62          1           0        6.790130    6.261611   -2.557113
     63          1           0        8.031707    3.590968    3.920696
     64          1           0        9.464059    1.211637    4.995467
     65          1           0       10.005852    4.487852    4.556105
     66          1           0       10.776576    3.581073    3.209825
     67          1           0       10.727632    2.900782    4.753128
     68          1           0        7.554206    2.363038    6.176590
     69          1           0        7.441232    0.607462    6.121480
     70          1           0        6.001091    2.711251    4.690832
     71          1           0        5.313350    1.251938    5.480837
     72          1           0        6.107516    1.175883    3.844308
     73          1           0        7.729942   -4.762834    3.949179
     74          1           0        8.310240   -3.282896    4.793042
     75          1           0        9.491551   -4.280988    3.847589
     76          1           0        9.247157   -4.883453   -1.226539
     77          1           0        6.951091   -7.748086   -3.494017
     78          1           0        6.700089   -6.182606   -4.476870
     79          1           0        5.692251   -6.701139   -3.112642
     80         12           0       -7.718296    0.929538    0.339861
     81          6           0       -9.801281   -1.984742    0.122495
     82          6           0       -9.131707    1.974556   -2.583291
     83          6           0       -5.586181    3.278111    0.263982
     84          6           0       -5.703272   -0.846705    2.560296
     85          7           0       -9.257373    0.024872   -0.965930
     86          6           0      -10.022199   -1.055315   -0.915197
     87          6           0      -11.137393   -1.105029   -1.993813
     88          6           0      -10.460377   -0.139993   -3.084336
     89          6           0       -9.585200    0.700694   -2.156991
     90          6           0       -9.555211   -0.874927   -4.058967
     91          6           0      -12.497599   -0.519944   -1.474657
     92          6           0      -13.706859   -0.817461   -2.363994
     93          1           0      -14.999209   -1.052203   -1.725871
     94          7           0       -7.722698    2.635825   -0.673620
     95          6           0       -8.369110    2.893844   -1.829844
     96          6           0       -8.036368    4.284615   -2.175109
     97          6           0       -7.009296    4.773298   -1.215407
     98          6           0       -6.711163    3.547825   -0.501680
     99          6           0       -8.731208    5.039540   -3.270863
    100          6           0       -6.387804    6.117912   -0.987399
    101          8           0       -5.343296    6.262081   -0.258665
    102          6           0       -6.982321    7.247200   -1.717282
    103          7           0       -5.794779    1.112965    1.107174
    104          6           0       -5.105638    2.260335    0.978487
    105          6           0       -3.866581    2.252181    1.841655
    106          6           0       -3.994712    0.952682    2.764938
    107          6           0       -5.299208    0.360136    2.188231
    108          6           0       -2.534502    2.214872    1.092946
    109          6           0       -3.895867    1.167542    4.300103
    110          6           0       -5.095736    1.945374    4.790687
    111          7           0       -7.819454   -0.980216    1.345165
    112          6           0       -6.855450   -1.539955    2.212032
    113          6           0       -7.315487   -2.901621    2.553612
    114          6           0       -8.513133   -3.049280    1.837837
    115          6           0       -8.770257   -1.870947    1.086244
    116          6           0       -6.624723   -3.829440    3.383138
    117          6           0       -9.612860   -3.938048    1.538853
    118          8           0       -9.977268   -5.038443    1.951246
    119          6           0      -10.430778   -3.336367    0.316002
    120          6           0      -11.892771   -3.384675    0.666363
    121          8           0      -12.342162   -2.696307    1.599533
    122          8           0      -12.552784   -4.063519   -0.289626
    123          6           0      -14.008526   -4.129056    0.007635
    124          1           0       -9.343161    2.284683   -3.607005
    125          1           0       -4.872522    4.099760    0.359144
    126          1           0       -5.181118   -1.427589    3.323572
    127          1           0      -11.312059   -2.084871   -2.421809
    128          1           0      -11.203159    0.482842   -3.575959
    129          1           0       -9.423336   -1.910748   -3.783616
    130          1           0       -8.607848   -0.352617   -4.031640
    131          1           0       -9.931357   -0.763644   -5.079977
    132          1           0      -12.470378    0.574421   -1.554471
    133          1           0      -12.696129   -0.848497   -0.473018
    134          1           0      -13.493847   -1.601736   -3.100530
    135          1           0      -13.919037    0.067613   -2.968675
    136          1           0       -9.320860    4.370081   -3.909257
    137          1           0       -7.951790    5.430371   -3.933905
    138          1           0       -9.326815    5.874258   -2.895144
    139          1           0       -6.936336    7.050924   -2.785845
    140          1           0       -6.460614    8.135656   -1.356237
    141          1           0       -8.044107    7.313299   -1.454853
    142          1           0       -3.830203    3.130555    2.474292
    143          1           0       -3.198534    0.223445    2.554822
    144          1           0       -1.865785    3.058090    1.349610
    145          1           0       -2.740156    2.202325    0.030835
    146          1           0       -1.954871    1.303106    1.226820
    147          1           0       -3.016056    1.768646    4.542503
    148          1           0       -3.818569    0.242500    4.861622
    149          1           0       -4.815412    2.983809    4.590292
    150          1           0       -5.252627    1.777108    5.854229
    151          1           0       -5.983374    1.721324    4.187727
    152          1           0       -7.365347   -4.279459    4.030782
    153          1           0       -5.838332   -3.342035    3.955675
    154          1           0       -6.221324   -4.506087    2.625053
    155          1           0      -10.199958   -3.941176   -0.561788
    156          1           0      -14.287007   -5.187412    0.008971
    157          1           0      -14.496446   -3.480748   -0.744282
    158          1           0      -14.332523   -3.823863    0.995733
 ---------------------------------------------------------------------

 SCF Done:  E(RCAM-B3LYP) =  -4069.81178237     A.U. after   19 cycles

 Excitation energies and oscillator strengths:

 Excited State   1:      Singlet-A      1.6696 eV  742.61 nm  f=0.0187  <S**2>=0.000
     309 -> 315       -0.10224
     310 -> 316       -0.13884
     311 -> 313       -0.40568
     312 -> 314        0.55365
 This state for optimization and/or second-order correction.
 Total Energy, E(TD-HF/TD-DFT) =  -4069.75042669
 Copying the excited state density for this state as the 1-particle RhoCI density.

 Excited State   2:      Singlet-A      1.6855 eV  735.61 nm  f=0.7373  <S**2>=0.000
     309 -> 315        0.14281
     310 -> 316       -0.10411
     311 -> 313        0.55282
     312 -> 314        0.40515

 Excited State   3:      Singlet-A      2.1855 eV  567.30 nm  f=0.0874  <S**2>=0.000
     310 -> 314        0.63647
     312 -> 316        0.27017

 Excited State   4:      Singlet-A      2.1931 eV  565.34 nm  f=0.1113  <S**2>=0.000
     309 -> 313        0.63454
     311 -> 315       -0.27584

 Excited State   5:      Singlet-A      2.7687 eV  447.80 nm  f=0.0000  <S**2>=0.000
     312 -> 313        0.70701

 The electronic state is 1-A.
 Alpha  occ. eigenvalues --  -46.87812 -46.87583 -19.26296 -19.26291 -19.19100
 Alpha  occ. eigenvalues --  -19.19035 -19.18812 -19.18653 -19.18180 -19.17976
 Alpha  occ. eigenvalues --  -14.42464 -14.42423 -14.41464 -14.41277 -14.39415
 Alpha  occ. eigenvalues --  -14.39277 -14.38602 -14.38522 -10.39094 -10.39028
 Alpha  occ. eigenvalues --  -10.35445 -10.35332 -10.34401 -10.34154 -10.31705
 Alpha  occ. eigenvalues --  -10.31689 -10.31420 -10.31234 -10.30956 -10.30920
 Alpha  occ. eigenvalues --  -10.30585 -10.30521 -10.30318 -10.30283 -10.30220
 Alpha  occ. eigenvalues --  -10.30058 -10.29936 -10.29806 -10.29642 -10.29361
 Alpha  occ. eigenvalues --  -10.29325 -10.29265 -10.28762 -10.28660 -10.28610
 Alpha  occ. eigenvalues --  -10.28553 -10.28377 -10.28332 -10.28129 -10.28080
 Alpha  occ. eigenvalues --  -10.27924 -10.27804 -10.27740 -10.27597 -10.27594
 Alpha  occ. eigenvalues --  -10.27520 -10.27484 -10.27465 -10.27417 -10.27415
 Alpha  occ. eigenvalues --  -10.27411 -10.27409 -10.27394 -10.27272 -10.27170
 Alpha  occ. eigenvalues --  -10.26980 -10.26720 -10.26640 -10.26394 -10.26371
 Alpha  occ. eigenvalues --  -10.26244 -10.26215 -10.26036 -10.26035 -10.25968
 Alpha  occ. eigenvalues --  -10.25858 -10.25848 -10.25744 -10.25445 -10.25274
 Alpha  occ. eigenvalues --  -10.24845 -10.24800 -10.24795 -10.24734 -10.24643
 Alpha  occ. eigenvalues --  -10.24610  -3.16555  -3.16333  -1.91436  -1.91216
 Alpha  occ. eigenvalues --   -1.91023  -1.90865  -1.90804  -1.90641  -1.16645
 Alpha  occ. eigenvalues --   -1.16585  -1.08638  -1.08584  -1.07212  -1.06906
 Alpha  occ. eigenvalues --   -1.06884  -1.06657  -1.04594  -1.04422  -1.03774
 Alpha  occ. eigenvalues --   -1.03586  -1.03247  -1.02958  -1.02425  -1.02033
 Alpha  occ. eigenvalues --   -0.91985  -0.91912  -0.89538  -0.89408  -0.89201
 Alpha  occ. eigenvalues --   -0.89088  -0.88304  -0.88128  -0.87883  -0.87708
 Alpha  occ. eigenvalues --   -0.87686  -0.87609  -0.87279  -0.87057  -0.84994
 Alpha  occ. eigenvalues --   -0.84934  -0.83956  -0.83784  -0.82970  -0.82867
 Alpha  occ. eigenvalues --   -0.82658  -0.82588  -0.81598  -0.81527  -0.80607
 Alpha  occ. eigenvalues --   -0.80373  -0.78806  -0.78564  -0.77233  -0.77072
 Alpha  occ. eigenvalues --   -0.76949  -0.76825  -0.75935  -0.75772  -0.74913
 Alpha  occ. eigenvalues --   -0.74712  -0.72788  -0.72619  -0.71685  -0.71502
 Alpha  occ. eigenvalues --   -0.69932  -0.69664  -0.68884  -0.68761  -0.67652
 Alpha  occ. eigenvalues --   -0.67527  -0.67229  -0.67141  -0.65300  -0.65206
 Alpha  occ. eigenvalues --   -0.64868  -0.64694  -0.64635  -0.64583  -0.64287
 Alpha  occ. eigenvalues --   -0.64116  -0.62311  -0.62208  -0.60450  -0.60267
 Alpha  occ. eigenvalues --   -0.59817  -0.59729  -0.59001  -0.58914  -0.58517
 Alpha  occ. eigenvalues --   -0.58349  -0.57597  -0.57483  -0.57321  -0.57157
 Alpha  occ. eigenvalues --   -0.56320  -0.56130  -0.55990  -0.55823  -0.55527
 Alpha  occ. eigenvalues --   -0.55387  -0.55356  -0.55162  -0.54540  -0.54407
 Alpha  occ. eigenvalues --   -0.53908  -0.53850  -0.53309  -0.53230  -0.53153
 Alpha  occ. eigenvalues --   -0.53075  -0.52928  -0.52834  -0.52760  -0.52612
 Alpha  occ. eigenvalues --   -0.52464  -0.52310  -0.51929  -0.51791  -0.51626
 Alpha  occ. eigenvalues --   -0.51598  -0.51211  -0.51125  -0.50572  -0.50416
 Alpha  occ. eigenvalues --   -0.50049  -0.49924  -0.49913  -0.49780  -0.49522
 Alpha  occ. eigenvalues --   -0.49424  -0.49224  -0.49135  -0.49107  -0.49034
 Alpha  occ. eigenvalues --   -0.48605  -0.48488  -0.48473  -0.48449  -0.48284
 Alpha  occ. eigenvalues --   -0.48275  -0.47706  -0.47525  -0.47306  -0.47044
 Alpha  occ. eigenvalues --   -0.46813  -0.46630  -0.46567  -0.46490  -0.46373
 Alpha  occ. eigenvalues --   -0.46192  -0.46177  -0.45999  -0.45835  -0.45744
 Alpha  occ. eigenvalues --   -0.45216  -0.45118  -0.44590  -0.44516  -0.44444
 Alpha  occ. eigenvalues --   -0.44404  -0.44160  -0.44100  -0.44059  -0.44027
 Alpha  occ. eigenvalues --   -0.44001  -0.43875  -0.43508  -0.43482  -0.43399
 Alpha  occ. eigenvalues --   -0.43312  -0.43040  -0.42864  -0.42824  -0.42713
 Alpha  occ. eigenvalues --   -0.42675  -0.42469  -0.42029  -0.41886  -0.41717
 Alpha  occ. eigenvalues --   -0.41594  -0.41547  -0.41390  -0.41153  -0.40914
 Alpha  occ. eigenvalues --   -0.40884  -0.40825  -0.40661  -0.40632  -0.40589
 Alpha  occ. eigenvalues --   -0.40405  -0.40246  -0.40172  -0.39469  -0.39332
 Alpha  occ. eigenvalues --   -0.38486  -0.38261  -0.37762  -0.37592  -0.37337
 Alpha  occ. eigenvalues --   -0.37276  -0.37182  -0.37131  -0.36728  -0.36703
 Alpha  occ. eigenvalues --   -0.36208  -0.36137  -0.34300  -0.34176  -0.33798
 Alpha  occ. eigenvalues --   -0.33785  -0.33200  -0.33098  -0.31343  -0.31211
 Alpha  occ. eigenvalues --   -0.31048  -0.30897  -0.30040  -0.29881  -0.29459
 Alpha  occ. eigenvalues --   -0.29334  -0.29256  -0.29133  -0.24095  -0.23958
 Alpha  occ. eigenvalues --   -0.21141  -0.21040
 Alpha virt. eigenvalues --   -0.08786  -0.08717  -0.01762  -0.01606  -0.00064
 Alpha virt. eigenvalues --    0.00037   0.02188   0.02286   0.03094   0.03297
 Alpha virt. eigenvalues --    0.04704   0.04801   0.05084   0.05228   0.06164

 Mulliken charges:
               1
     1  Mg   0.838504
     2  C   -0.003020
     3  C   -0.094081
     4  C   -0.045876
     5  C   -0.064053
     6  N   -0.256783
     7  C   -0.052526
     8  C   -0.014001
     9  C   -0.087007
    10  C    0.046327
    11  C    0.104799
    12  C    0.053476
    13  C   -0.071802
    14  H    0.036086
    15  N   -0.433195
    16  C    0.168436
    17  C   -0.177076
    18  C   -0.003890
    19  C    0.148714
    20  C    0.110170
    21  C    0.012422
    22  O   -0.249470
    23  C    0.062398
    24  N   -0.341106
    25  C    0.041189
    26  C   -0.028208
    27  C   -0.023959
    28  C    0.074702
    29  C    0.076139
    30  C    0.035184
    31  C   -0.004522
    32  N   -0.310425
    33  C    0.080240
    34  C   -0.169883
    35  C    0.008356
    36  C    0.082815
    37  C    0.127349
    38  C    0.046032
    39  O   -0.188388
    40  C   -0.005281
    41  C    0.212921
    42  O   -0.257289
    43  O   -0.304754
    44  C    0.157667
    45  H   -0.017538
    46  H   -0.016715
    47  H   -0.041560
    48  H    0.000978
    49  H   -0.004020
    50  H    0.025512
    51  H    0.016474
    52  H    0.016696
    53  H    0.011178
    54  H    0.044032
    55  H    0.017928
    56  H    0.017946
    57  H    0.005842
    58  H    0.026905
    59  H    0.039729
    60  H    0.037270
    61  H    0.035977
    62  H    0.031698
    63  H    0.016584
    64  H    0.009548
    65  H    0.023334
    66  H    0.012612
    67  H    0.004793
    68  H    0.006492
    69  H    0.004695
    70  H    0.008939
    71  H    0.017557
    72  H    0.028844
    73  H    0.047484
    74  H    0.009009
    75  H    0.046104
    76  H    0.035218
    77  H    0.043062
    78  H    0.046391
    79  H    0.053669
    80  Mg   0.837793
    81  C   -0.016910
    82  C   -0.087960
    83  C   -0.045554
    84  C   -0.064438
    85  N   -0.254557
    86  C   -0.049809
    87  C   -0.015117
    88  C   -0.090488
    89  C    0.045761
    90  C    0.114423
    91  C    0.062571
    92  C   -0.077804
    93  H    0.034750
    94  N   -0.423433
    95  C    0.162870
    96  C   -0.174866
    97  C   -0.007943
    98  C    0.152062
    99  C    0.099478
   100  C    0.015411
   101  O   -0.253201
   102  C    0.061240
   103  N   -0.350018
   104  C    0.037571
   105  C   -0.019926
   106  C   -0.034980
   107  C    0.088907
   108  C    0.073354
   109  C    0.034688
   110  C   -0.007668
   111  N   -0.324149
   112  C    0.078447
   113  C   -0.162864
   114  C    0.002267
   115  C    0.096269
   116  C    0.131522
   117  C    0.042493
   118  O   -0.187799
   119  C    0.000875
   120  C    0.211244
   121  O   -0.251089
   122  O   -0.305625
   123  C    0.152074
   124  H   -0.019977
   125  H   -0.015578
   126  H   -0.039907
   127  H   -0.000697
   128  H   -0.004530
   129  H    0.022536
   130  H    0.014449
   131  H    0.015992
   132  H    0.013870
   133  H    0.037679
   134  H    0.020737
   135  H    0.019470
   136  H    0.008589
   137  H    0.025780
   138  H    0.039583
   139  H    0.037998
   140  H    0.036223
   141  H    0.033845
   142  H    0.014269
   143  H    0.013451
   144  H    0.025173
   145  H    0.011406
   146  H    0.006798
   147  H    0.006372
   148  H    0.003903
   149  H    0.010828
   150  H    0.017766
   151  H    0.029935
   152  H    0.045896
   153  H    0.008833
   154  H    0.047590
   155  H    0.035062
   156  H    0.043869
   157  H    0.049385
   158  H    0.053531
 Sum of Mulliken charges =  -0.00000

 Dipole moment (field-independent basis, Debye):
    X=              2.0124    Y=              4.4431    Z=             -7.2256  Tot=              8.7179
 Quadrupole moment (field-independent basis, Debye-Ang):
   XX=           -465.3738   YY=           -562.0237   ZZ=           -454.2930
   XY=            -15.6009   XZ=             29.6927   YZ=              2.0117

 Normal termination of Gaussian 16 at Sun Sep 12 07:17:58 2021.
