 Gaussian 16, Revision A.03,
 Gaussian 16:  ES64L-G16RevA.03 25-Dec-2016

 -----------------------------------
 #p cam-b3lyp/Def2SVP td=(nstates=5)
 -----------------------------------

 --------------------------------
 TDDFT excited states in gaussian
 --------------------------------
 Symbolic Z-matrix:
 Charge =  0 Multiplicity = 1

                         Standard orientation:
 ---------------------------------------------------------------------
 Center     Atomic      Atomic             Coordinates (Angstroms)
 Number     Number       Type             X           Y           Z
 ---------------------------------------------------------------------
      1         12           0        6.285979   -1.080637    0.385791
      2          6           0        6.764868    2.125929   -1.131054
      3          6           0        7.094175    0.373475    3.364959
      4          6           0        6.313548   -3.980252    1.669570
      5          6           0        6.632240   -2.471018   -2.791095
      6          7           0        6.838489    0.995142    0.921069
      7          6           0        6.927287    2.142748    0.256023
      8          6           0        7.134594    3.378748    1.181605
      9          6           0        7.778273    2.644331    2.441885
     10          6           0        7.174092    1.263987    2.253368
     11          6           0        9.297527    2.529540    2.369818
     12          6           0        5.783006    4.076270    1.553634
     13          6           0        5.916322    5.468128    2.178384
     14          1           0        4.915241    6.476014    1.863189
     15          7           0        6.171072   -1.646438    2.275107
     16          6           0        6.528110   -0.919748    3.361262
     17          6           0        6.253452   -1.777714    4.533924
     18          6           0        5.886353   -3.130893    4.031689
     19          6           0        6.137658   -2.978618    2.621356
     20          6           0        6.303380   -1.281382    5.946338
     21          6           0        5.398127   -4.368521    4.715825
     22          8           0        5.361088   -5.502186    4.125904
     23          6           0        5.043034   -4.235108    6.140308
     24          7           0        6.666912   -2.977309   -0.398529
     25          6           0        6.554504   -4.073095    0.360156
     26          6           0        6.594648   -5.320140   -0.472435
     27          6           0        6.514039   -4.839274   -1.992968
     28          6           0        6.524448   -3.308711   -1.757306
     29          6           0        7.830079   -6.211290   -0.283826
     30          6           0        5.383411   -5.443952   -2.862717
     31          6           0        4.039636   -4.956661   -2.368839
     32          7           0        6.459480   -0.328649   -1.642868
     33          6           0        6.616603   -1.086397   -2.812400
     34          6           0        6.798010   -0.133860   -3.923179
     35          6           0        6.750069    1.119640   -3.316314
     36          6           0        6.577582    0.959554   -1.911709
     37          6           0        7.035437   -0.475701   -5.283770
     38          6           0        6.829102    2.556393   -3.524522
     39          8           0        6.876694    3.287810   -4.514601
     40          6           0        6.963945    3.261975   -2.103325
     41          6           0        5.980758    4.400062   -2.065799
     42          8           0        4.751655    4.184182   -2.074063
     43          8           0        6.631132    5.540402   -1.787985
     44          6           0        5.709061    6.704610   -1.706990
     45          1           0        7.558101    0.665040    4.309260
     46          1           0        6.219028   -4.997317    2.055684
     47          1           0        6.661462   -2.829417   -3.821701
     48          1           0        7.826219    4.126536    0.793159
     49          1           0        7.441797    3.080022    3.382459
     50          1           0        9.676347    2.857190    1.401799
     51          1           0        9.517398    1.473397    2.527018
     52          1           0        9.765839    3.059810    3.199442
     53          1           0        5.320373    3.543536    2.384433
     54          1           0        5.125945    4.132396    0.685046
     55          1           0        6.920252    5.871405    2.042730
     56          1           0        5.807673    5.369505    3.258509
     57          1           0        6.762189   -0.295385    6.008369
     58          1           0        6.987124   -1.933773    6.489097
     59          1           0        5.322860   -1.298882    6.422369
     60          1           0        5.913784   -3.888605    6.697334
     61          1           0        4.630601   -5.198230    6.438880
     62          1           0        4.284143   -3.459019    6.243837
     63          1           0        5.742448   -5.962849   -0.255395
     64          1           0        7.425950   -5.070542   -2.543975
     65          1           0        7.591557   -7.234489    0.007510
     66          1           0        8.479008   -5.736486    0.451527
     67          1           0        8.489113   -6.268215   -1.149765
     68          1           0        5.380962   -6.530255   -2.779729
     69          1           0        5.472097   -5.192276   -3.919621
     70          1           0        3.817231   -5.642353   -1.552020
     71          1           0        3.292447   -5.035550   -3.159217
     72          1           0        4.111019   -3.955426   -1.943494
     73          1           0        6.406597    0.186430   -5.878842
     74          1           0        6.801318   -1.522583   -5.475684
     75          1           0        8.101972   -0.265257   -5.361693
     76          1           0        7.993888    3.607882   -2.021547
     77          1           0        6.073107    7.452053   -2.411995
     78          1           0        5.655721    6.985044   -0.654889
     79          1           0        4.697048    6.544899   -2.080704
     80         12           0       -6.905767   -0.269750   -0.318373
     81          6           0       -4.373431    2.256843   -0.030881
     82          6           0       -8.765955    1.555633    1.882138
     83          6           0       -8.956765   -2.687756   -0.199718
     84          6           0       -4.441688   -2.402307   -1.553790
     85          7           0       -6.512651    1.642622    0.721120
     86          6           0       -5.541927    2.543618    0.705200
     87          6           0       -5.873249    3.859421    1.459159
     88          6           0       -6.990408    3.287677    2.461123
     89          6           0       -7.484713    2.106919    1.627968
     90          6           0       -6.414584    2.748065    3.759805
     91          6           0       -6.462907    4.960364    0.509294
     92          6           0       -6.520262    6.365912    1.111693
     93          1           0       -6.283024    7.509230    0.234752
     94          7           0       -8.794431   -0.323166    0.288798
     95          6           0       -9.389885    0.508225    1.169425
     96          6           0      -10.777840    0.036496    1.292832
     97          6           0      -10.908135   -1.240144    0.539222
     98          6           0       -9.522761   -1.482590    0.189873
     99          6           0      -11.843681    0.820411    2.001973
    100          6           0      -12.083221   -2.106844    0.201284
    101          8           0      -11.934229   -3.293943   -0.258505
    102          6           0      -13.412072   -1.559973    0.512038
    103          7           0       -6.689242   -2.317609   -0.604269
    104          6           0       -7.751666   -3.139757   -0.547188
    105          6           0       -7.402331   -4.518511   -1.054530
    106          6           0       -5.942211   -4.384199   -1.692960
    107          6           0       -5.650750   -2.906888   -1.349453
    108          6           0       -7.399068   -5.631715   -0.007081
    109          6           0       -5.772641   -4.847981   -3.165653
    110          6           0       -6.537569   -3.926523   -4.088260
    111          7           0       -4.834261   -0.079824   -0.902198
    112          6           0       -3.981890   -1.104833   -1.367924
    113          6           0       -2.636845   -0.514539   -1.525477
    114          6           0       -2.796131    0.817702   -1.115306
    115          6           0       -4.140558    1.036588   -0.710215
    116          6           0       -1.468107   -1.208510   -1.948062
    117          6           0       -2.130176    2.085838   -0.922827
    118          8           0       -1.009884    2.526149   -1.177371
    119          6           0       -3.091918    3.040784   -0.092459
    120          6           0       -3.121782    4.379544   -0.777551
    121          8           0       -3.612683    4.497104   -1.914122
    122          8           0       -2.766931    5.333091    0.102907
    123          6           0       -2.792155    6.680174   -0.526828
    124          1           0       -9.332486    1.931134    2.734746
    125          1           0       -9.648817   -3.529106   -0.281436
    126          1           0       -3.641981   -2.976118   -2.026958
    127          1           0       -5.048910    4.280134    2.022409
    128          1           0       -7.789972    4.007945    2.613691
    129          1           0       -5.334951    2.730024    3.745036
    130          1           0       -6.808374    1.745300    3.861974
    131          1           0       -6.806613    3.313856    4.609812
    132          1           0       -7.534981    4.773260    0.366489
    133          1           0       -5.928742    4.987244   -0.420521
    134          1           0       -5.915796    6.448720    2.023131
    135          1           0       -7.541741    6.557379    1.449235
    136          1           0      -11.414447    1.635689    2.597365
    137          1           0      -12.293620    0.150737    2.742879
    138          1           0      -12.624746    1.176013    1.326571
    139          1           0      -13.472465   -1.340021    1.575257
    140          1           0      -14.126196   -2.285246    0.117217
    141          1           0      -13.529494   -0.605905   -0.013872
    142          1           0       -8.095078   -4.834085   -1.824992
    143          1           0       -5.201488   -4.986017   -1.146157
    144          1           0       -8.078340   -6.468423   -0.257260
    145          1           0       -7.662750   -5.200911    0.949695
    146          1           0       -6.423886   -6.070145    0.197843
    147          1           0       -6.198569   -5.845310   -3.300049
    148          1           0       -4.737642   -4.893742   -3.487628
    149          1           0       -7.556723   -4.321899   -4.042516
    150          1           0       -6.138744   -3.979281   -5.099296
    151          1           0       -6.562307   -2.904722   -3.692093
    152          1           0       -0.960476   -0.563178   -2.652593
    153          1           0       -1.715818   -2.169155   -2.394778
    154          1           0       -0.951787   -1.321771   -0.991056
    155          1           0       -2.692362    3.107922    0.920177
    156          1           0       -1.801046    7.120283   -0.379585
    157          1           0       -3.650461    7.207582   -0.069770
    158          1           0       -2.886489    6.727536   -1.605396
 ---------------------------------------------------------------------

 SCF Done:  E(RCAM-B3LYP) =  -4069.81042851     A.U. after   19 cycles

 Excitation energies and oscillator strengths:

 Excited State   1:      Singlet-A      1.6699 eV  742.48 nm  f=0.2713  <S**2>=0.000
     309 -> 315        0.13594
     310 -> 316       -0.10608
     311 -> 313        0.54159
     312 -> 314       -0.42154
 This state for optimization and/or second-order correction.
 Total Energy, E(TD-HF/TD-DFT) =  -4069.74906204
 Copying the excited state density for this state as the 1-particle RhoCI density.

 Excited State   2:      Singlet-A      1.6855 eV  735.61 nm  f=0.5095  <S**2>=0.000
     309 -> 315        0.10791
     310 -> 316        0.13905
     311 -> 313        0.42110
     312 -> 314        0.54080

 Excited State   3:      Singlet-A      2.1848 eV  567.47 nm  f=0.0099  <S**2>=0.000
     309 -> 313        0.54199
     310 -> 314       -0.34636
     311 -> 315       -0.22955
     312 -> 316        0.14629

 Excited State   4:      Singlet-A      2.1923 eV  565.54 nm  f=0.1758  <S**2>=0.000
     309 -> 313        0.34441
     310 -> 314        0.53950
     311 -> 315       -0.14954
     312 -> 316       -0.23511

 Excited State   5:      Singlet-A      2.6276 eV  471.85 nm  f=0.0000  <S**2>=0.000
     312 -> 313        0.70649

 The electronic state is 1-A.
 Alpha  occ. eigenvalues --  -46.87525 -46.87523 -19.26159 -19.25869 -19.18954
 Alpha  occ. eigenvalues --  -19.18614 -19.18592 -19.18540 -19.17862 -19.17784
 Alpha  occ. eigenvalues --  -14.42369 -14.42181 -14.41224 -14.41200 -14.39214
 Alpha  occ. eigenvalues --  -14.39143 -14.38450 -14.38306 -10.38891 -10.38622
 Alpha  occ. eigenvalues --  -10.35272 -10.35252 -10.34076 -10.33970 -10.31584
 Alpha  occ. eigenvalues --  -10.31294 -10.31166 -10.31124 -10.30899 -10.30636
 Alpha  occ. eigenvalues --  -10.30294 -10.30248 -10.30247 -10.30204 -10.30023
 Alpha  occ. eigenvalues --  -10.29988 -10.29749 -10.29674 -10.29373 -10.29306
 Alpha  occ. eigenvalues --  -10.29249 -10.29011 -10.28612 -10.28567 -10.28451
 Alpha  occ. eigenvalues --  -10.28257 -10.28227 -10.28088 -10.28037 -10.27846
 Alpha  occ. eigenvalues --  -10.27837 -10.27539 -10.27531 -10.27471 -10.27405
 Alpha  occ. eigenvalues --  -10.27355 -10.27343 -10.27334 -10.27326 -10.27320
 Alpha  occ. eigenvalues --  -10.27276 -10.27270 -10.27260 -10.27124 -10.26860
 Alpha  occ. eigenvalues --  -10.26824 -10.26585 -10.26342 -10.26316 -10.26250
 Alpha  occ. eigenvalues --  -10.26050 -10.26033 -10.25997 -10.25950 -10.25800
 Alpha  occ. eigenvalues --  -10.25778 -10.25635 -10.25591 -10.25293 -10.25275
 Alpha  occ. eigenvalues --  -10.24705 -10.24623 -10.24577 -10.24558 -10.24550
 Alpha  occ. eigenvalues --  -10.24540  -3.16274  -3.16267  -1.91156  -1.91148
 Alpha  occ. eigenvalues --   -1.90745  -1.90735  -1.90581  -1.90577  -1.16448
 Alpha  occ. eigenvalues --   -1.16209  -1.08389  -1.08307  -1.07020  -1.06847
 Alpha  occ. eigenvalues --   -1.06736  -1.06178  -1.04362  -1.04309  -1.03526
 Alpha  occ. eigenvalues --   -1.03508  -1.02972  -1.02898  -1.02150  -1.01969
 Alpha  occ. eigenvalues --   -0.91828  -0.91682  -0.89362  -0.89305  -0.89042
 Alpha  occ. eigenvalues --   -0.88904  -0.88096  -0.88078  -0.87621  -0.87606
 Alpha  occ. eigenvalues --   -0.87552  -0.87409  -0.87046  -0.86991  -0.84880
 Alpha  occ. eigenvalues --   -0.84705  -0.83750  -0.83736  -0.82813  -0.82771
 Alpha  occ. eigenvalues --   -0.82530  -0.82382  -0.81435  -0.81274  -0.80317
 Alpha  occ. eigenvalues --   -0.80296  -0.78556  -0.78493  -0.77019  -0.76980
 Alpha  occ. eigenvalues --   -0.76769  -0.76660  -0.75702  -0.75641  -0.74678
 Alpha  occ. eigenvalues --   -0.74675  -0.72552  -0.72522  -0.71449  -0.71419
 Alpha  occ. eigenvalues --   -0.69730  -0.69641  -0.68702  -0.68607  -0.67454
 Alpha  occ. eigenvalues --   -0.67383  -0.67082  -0.66938  -0.65142  -0.65000
 Alpha  occ. eigenvalues --   -0.64631  -0.64583  -0.64514  -0.64349  -0.64073
 Alpha  occ. eigenvalues --   -0.64045  -0.62114  -0.61968  -0.60216  -0.60207
 Alpha  occ. eigenvalues --   -0.59672  -0.59528  -0.58849  -0.58727  -0.58274
 Alpha  occ. eigenvalues --   -0.58237  -0.57367  -0.57264  -0.57092  -0.57042
 Alpha  occ. eigenvalues --   -0.56055  -0.56054  -0.55730  -0.55638  -0.55310
 Alpha  occ. eigenvalues --   -0.55278  -0.55102  -0.55092  -0.54338  -0.54232
 Alpha  occ. eigenvalues --   -0.53798  -0.53607  -0.53089  -0.53061  -0.53004
 Alpha  occ. eigenvalues --   -0.52955  -0.52756  -0.52620  -0.52554  -0.52519
 Alpha  occ. eigenvalues --   -0.52277  -0.52244  -0.51693  -0.51645  -0.51535
 Alpha  occ. eigenvalues --   -0.51336  -0.51031  -0.50927  -0.50375  -0.50362
 Alpha  occ. eigenvalues --   -0.49863  -0.49841  -0.49742  -0.49687  -0.49362
 Alpha  occ. eigenvalues --   -0.49253  -0.49059  -0.48947  -0.48938  -0.48826
 Alpha  occ. eigenvalues --   -0.48403  -0.48313  -0.48238  -0.48237  -0.48185
 Alpha  occ. eigenvalues --   -0.48174  -0.47459  -0.47446  -0.47052  -0.46988
 Alpha  occ. eigenvalues --   -0.46576  -0.46553  -0.46436  -0.46271  -0.46130
 Alpha  occ. eigenvalues --   -0.46111  -0.45935  -0.45887  -0.45651  -0.45526
 Alpha  occ. eigenvalues --   -0.45082  -0.44990  -0.44380  -0.44324  -0.44294
 Alpha  occ. eigenvalues --   -0.44281  -0.43988  -0.43944  -0.43924  -0.43828
 Alpha  occ. eigenvalues --   -0.43782  -0.43740  -0.43401  -0.43246  -0.43195
 Alpha  occ. eigenvalues --   -0.43134  -0.42777  -0.42766  -0.42724  -0.42487
 Alpha  occ. eigenvalues --   -0.42430  -0.42296  -0.41839  -0.41774  -0.41492
 Alpha  occ. eigenvalues --   -0.41433  -0.41341  -0.41263  -0.40888  -0.40856
 Alpha  occ. eigenvalues --   -0.40628  -0.40607  -0.40605  -0.40586  -0.40368
 Alpha  occ. eigenvalues --   -0.40346  -0.40122  -0.39927  -0.39311  -0.39274
 Alpha  occ. eigenvalues --   -0.38256  -0.38234  -0.37539  -0.37455  -0.37140
 Alpha  occ. eigenvalues --   -0.37093  -0.37069  -0.36972  -0.36594  -0.36370
 Alpha  occ. eigenvalues --   -0.36073  -0.35865  -0.34109  -0.34017  -0.33667
 Alpha  occ. eigenvalues --   -0.33332  -0.33031  -0.32899  -0.31152  -0.31143
 Alpha  occ. eigenvalues --   -0.30835  -0.30768  -0.29716  -0.29687  -0.29199
 Alpha  occ. eigenvalues --   -0.29182  -0.29045  -0.29038  -0.23897  -0.23811
 Alpha  occ. eigenvalues --   -0.20977  -0.20870
 Alpha virt. eigenvalues --   -0.08644  -0.08516  -0.01551  -0.01500   0.00110
 Alpha virt. eigenvalues --    0.00187   0.02398   0.02478   0.03361   0.03464
 Alpha virt. eigenvalues --    0.04849   0.04988   0.05369   0.05525   0.06287

 Mulliken charges:
               1
     1  Mg   0.840506
     2  C   -0.000850
     3  C   -0.094031
     4  C   -0.046462
     5  C   -0.064583
     6  N   -0.256627
     7  C   -0.051678
     8  C   -0.014449
     9  C   -0.087045
    10  C    0.046608
    11  C    0.105006
    12  C    0.053398
    13  C   -0.071339
    14  H    0.036287
    15  N   -0.432888
    16  C    0.168434
    17  C   -0.177498
    18  C   -0.004530
    19  C    0.148586
    20  C    0.110389
    21  C    0.011815
    22  O   -0.250540
    23  C    0.062653
    24  N   -0.341137
    25  C    0.040982
    26  C   -0.027915
    27  C   -0.023955
    28  C    0.075007
    29  C    0.076382
    30  C    0.035359
    31  C   -0.004503
    32  N   -0.310880
    33  C    0.081263
    34  C   -0.169290
    35  C    0.008686
    36  C    0.084714
    37  C    0.127050
    38  C    0.047773
    39  O   -0.187945
    40  C   -0.006002
    41  C    0.211541
    42  O   -0.251573
    43  O   -0.305928
    44  C    0.157623
    45  H   -0.018263
    46  H   -0.017716
    47  H   -0.042026
    48  H    0.000556
    49  H   -0.004438
    50  H    0.025262
    51  H    0.016036
    52  H    0.015952
    53  H    0.011509
    54  H    0.047779
    55  H    0.016849
    56  H    0.016936
    57  H    0.005610
    58  H    0.026099
    59  H    0.038908
    60  H    0.037126
    61  H    0.034802
    62  H    0.031278
    63  H    0.015735
    64  H    0.009169
    65  H    0.022535
    66  H    0.012554
    67  H    0.004365
    68  H    0.005622
    69  H    0.004696
    70  H    0.007940
    71  H    0.016779
    72  H    0.030287
    73  H    0.048483
    74  H    0.008559
    75  H    0.045505
    76  H    0.034272
    77  H    0.041689
    78  H    0.045372
    79  H    0.055747
    80  Mg   0.837508
    81  C   -0.016742
    82  C   -0.087937
    83  C   -0.045649
    84  C   -0.065082
    85  N   -0.254390
    86  C   -0.050047
    87  C   -0.014881
    88  C   -0.090435
    89  C    0.045455
    90  C    0.114543
    91  C    0.062614
    92  C   -0.077613
    93  H    0.034865
    94  N   -0.423375
    95  C    0.162591
    96  C   -0.174993
    97  C   -0.008100
    98  C    0.151887
    99  C    0.099523
   100  C    0.015345
   101  O   -0.253551
   102  C    0.061285
   103  N   -0.350087
   104  C    0.037282
   105  C   -0.019693
   106  C   -0.034880
   107  C    0.089150
   108  C    0.073750
   109  C    0.034796
   110  C   -0.007614
   111  N   -0.324321
   112  C    0.078691
   113  C   -0.163086
   114  C    0.003319
   115  C    0.096182
   116  C    0.131570
   117  C    0.041982
   118  O   -0.181986
   119  C    0.000562
   120  C    0.212568
   121  O   -0.250703
   122  O   -0.306058
   123  C    0.152179
   124  H   -0.020217
   125  H   -0.015915
   126  H   -0.040378
   127  H   -0.001020
   128  H   -0.004641
   129  H    0.021998
   130  H    0.014320
   131  H    0.015634
   132  H    0.013871
   133  H    0.038093
   134  H    0.020268
   135  H    0.019280
   136  H    0.008391
   137  H    0.025659
   138  H    0.039447
   139  H    0.038021
   140  H    0.036055
   141  H    0.033799
   142  H    0.014191
   143  H    0.012402
   144  H    0.024837
   145  H    0.011482
   146  H    0.005579
   147  H    0.005962
   148  H    0.003559
   149  H    0.010775
   150  H    0.017859
   151  H    0.030372
   152  H    0.048811
   153  H    0.007791
   154  H    0.046503
   155  H    0.034312
   156  H    0.043711
   157  H    0.048454
   158  H    0.054330
 Sum of Mulliken charges =  -0.00000

 Dipole moment (field-independent basis, Debye):
    X=             -0.8499    Y=              1.2126    Z=              7.2277  Tot=              7.3778
 Quadrupole moment (field-independent basis, Debye-Ang):
   XX=           -473.1106   YY=           -490.2886   ZZ=           -499.6664
   XY=            -29.2838   XZ=              2.6448   YZ=             53.3258

 Normal termination of Gaussian 16 at Sat Sep 11 12:00:35 2021.
