 Gaussian 16, Revision A.03,
 Gaussian 16:  ES64L-G16RevA.03 25-Dec-2016

 -----------------------------------
 #p cam-b3lyp/Def2SVP td=(nstates=5)
 -----------------------------------

 --------------------------------
 TDDFT excited states in gaussian
 --------------------------------
 Symbolic Z-matrix:
 Charge =  0 Multiplicity = 1

                         Standard orientation:
 ---------------------------------------------------------------------
 Center     Atomic      Atomic             Coordinates (Angstroms)
 Number     Number       Type             X           Y           Z
 ---------------------------------------------------------------------
      1         12           0       -4.005338    0.409798    0.013930
      2          6           0       -3.157424    3.884459    0.155294
      3          6           0       -4.709892    0.869034   -3.292998
      4          6           0       -5.188037   -2.532282   -0.030929
      5          6           0       -4.325319    0.498211    3.483145
      6          7           0       -3.905139    2.196461   -1.289313
      7          6           0       -3.506827    3.454266   -1.126695
      8          6           0       -3.423036    4.253276   -2.461587
      9          6           0       -4.452787    3.400703   -3.330338
     10          6           0       -4.323566    2.065408   -2.618851
     11          6           0       -5.895051    3.882756   -3.212014
     12          6           0       -1.986331    4.222995   -3.083435
     13          6           0       -1.737398    5.237904   -4.202964
     14          1           0       -0.422408    5.851213   -4.312526
     15          7           0       -4.364908   -0.803489   -1.503138
     16          6           0       -4.614217   -0.444804   -2.785510
     17          6           0       -4.817331   -1.706511   -3.529499
     18          6           0       -4.853681   -2.818059   -2.538926
     19          6           0       -4.829590   -2.083514   -1.299877
     20          6           0       -4.905572   -1.775871   -5.023203
     21          6           0       -4.912973   -4.305701   -2.685687
     22          8           0       -5.170433   -5.076792   -1.698921
     23          6           0       -4.747097   -4.838337   -4.050174
     24          7           0       -4.878221   -0.792297    1.480449
     25          6           0       -5.251002   -2.048307    1.211266
     26          6           0       -5.582535   -2.800285    2.466078
     27          6           0       -5.123479   -1.865108    3.676228
     28          6           0       -4.656620   -0.634790    2.859754
     29          6           0       -7.058131   -3.182034    2.647451
     30          6           0       -4.144958   -2.480040    4.708107
     31          6           0       -2.803643   -2.731961    4.056564
     32          7           0       -3.617668    1.854694    1.586517
     33          6           0       -3.845196    1.687258    2.960151
     34          6           0       -3.532767    2.973538    3.609719
     35          6           0       -3.158653    3.810202    2.560015
     36          6           0       -3.257896    3.099797    1.329663
     37          6           0       -3.668088    3.261353    4.996545
     38          6           0       -2.721802    5.146375    2.188990
     39          8           0       -2.376367    6.150426    2.813529
     40          6           0       -2.820510    5.284191    0.605611
     41          6           0       -1.530521    5.887518    0.120601
     42          8           0       -0.457039    5.257025    0.207092
     43          8           0       -1.796027    7.001476   -0.578789
     44          6           0       -0.560604    7.633702   -1.113743
     45          1           0       -5.183200    0.945220   -4.273873
     46          1           0       -5.496440   -3.578938    0.011903
     47          1           0       -4.320801    0.576001    4.571897
     48          1           0       -3.760162    5.287781   -2.393997
     49          1           0       -4.132191    3.309781   -4.367967
     50          1           0       -5.996099    4.653496   -2.448030
     51          1           0       -6.475590    3.000456   -2.941805
     52          1           0       -6.275871    4.206838   -4.180892
     53          1           0       -1.855580    3.295708   -3.641203
     54          1           0       -1.228205    4.346913   -2.309345
     55          1           0       -2.517498    5.999177   -4.231516
     56          1           0       -1.827875    4.721351   -5.158572
     57          1           0       -5.012563   -0.785734   -5.464480
     58          1           0       -5.839809   -2.282862   -5.263768
     59          1           0       -4.068436   -2.321528   -5.458856
     60          1           0       -5.523933   -4.425946   -4.694385
     61          1           0       -4.728626   -5.922936   -3.949412
     62          1           0       -3.796538   -4.487489   -4.453031
     63          1           0       -5.035627   -3.741026    2.514272
     64          1           0       -5.968803   -1.530511    4.278014
     65          1           0       -7.220584   -4.252058    2.779218
     66          1           0       -7.611790   -2.805362    1.787875
     67          1           0       -7.563513   -2.675833    3.469501
     68          1           0       -4.517673   -3.442349    5.057379
     69          1           0       -3.988189   -1.847996    5.582289
     70          1           0       -2.945589   -3.697653    3.572702
     71          1           0       -2.018186   -2.785082    4.811181
     72          1           0       -2.598208   -2.002086    3.273260
     73          1           0       -2.774031    3.815728    5.281676
     74          1           0       -3.771547    2.348178    5.582215
     75          1           0       -4.579362    3.859183    4.990725
     76          1           0       -3.675938    5.926788    0.399613
     77          1           0       -0.546340    8.663391   -0.756292
     78          1           0       -0.571864    7.472468   -2.191834
     79          1           0        0.383208    7.263318   -0.712028
     80         12           0        3.592267   -1.912275    0.169411
     81          6           0        4.906914    1.423392    0.324493
     82          6           0        3.356501   -1.502215   -3.208580
     83          6           0        2.018471   -4.664576    0.045042
     84          6           0        2.869135   -1.636383    3.567446
     85          7           0        4.098501   -0.213724   -1.153799
     86          6           0        4.648967    0.979709   -0.989299
     87          6           0        5.013395    1.707638   -2.310990
     88          6           0        3.975364    0.967308   -3.287358
     89          6           0        3.821393   -0.348754   -2.527778
     90          6           0        2.616944    1.645836   -3.347487
     91          6           0        6.497977    1.447199   -2.747097
     92          6           0        7.013880    2.368385   -3.854807
     93          1           0        8.412732    2.785863   -3.817680
     94          7           0        3.251335   -3.128692   -1.361166
     95          6           0        3.214333   -2.799703   -2.669472
     96          6           0        2.906918   -4.045449   -3.389039
     97          6           0        2.602880   -5.103057   -2.387168
     98          6           0        2.591868   -4.317345   -1.169529
     99          6           0        2.997983   -4.166160   -4.882548
    100          6           0        2.349660   -6.575383   -2.506840
    101          8           0        1.870677   -7.257571   -1.533166
    102          6           0        2.591015   -7.176979   -3.826436
    103          7           0        2.397790   -2.916774    1.542931
    104          6           0        1.877405   -4.122663    1.254898
    105          6           0        1.288545   -4.770642    2.485242
    106          6           0        1.738837   -3.849997    3.712939
    107          6           0        2.467017   -2.731025    2.936386
    108          6           0       -0.232435   -4.922048    2.494032
    109          6           0        2.489596   -4.549582    4.878960
    110          6           0        3.845568   -5.024396    4.408537
    111          7           0        3.995122   -0.477625    1.733876
    112          6           0        3.578359   -0.545456    3.081382
    113          6           0        3.994278    0.715140    3.729720
    114          6           0        4.608669    1.444376    2.700536
    115          6           0        4.559905    0.699883    1.491047
    116          6           0        3.746893    1.074849    5.084543
    117          6           0        5.277953    2.679137    2.359794
    118          8           0        5.679813    3.653305    2.994807
    119          6           0        5.388520    2.773916    0.777016
    120          6           0        6.799164    3.166295    0.432596
    121          8           0        7.746713    2.399757    0.679957
    122          8           0        6.774874    4.278575   -0.324103
    123          6           0        8.150315    4.700917   -0.700427
    124          1           0        3.028952   -1.397210   -4.243273
    125          1           0        1.559267   -5.655085    0.083628
    126          1           0        2.767435   -1.514844    4.647988
    127          1           0        4.825455    2.774619   -2.308666
    128          1           0        4.410868    0.792964   -4.267819
    129          1           0        2.535763    2.449169   -2.630404
    130          1           0        1.891780    0.871937   -3.132351
    131          1           0        2.407341    1.980068   -4.367622
    132          1           0        6.554887    0.480921   -3.264606
    133          1           0        7.157079    1.493898   -1.902094
    134          1           0        6.358446    3.234059   -4.009584
    135          1           0        6.972103    1.827586   -4.803383
    136          1           0        3.083072   -3.182746   -5.361144
    137          1           0        2.035308   -4.555513   -5.231160
    138          1           0        3.790817   -4.845575   -5.202659
    139          1           0        1.966560   -6.684021   -4.567723
    140          1           0        2.441200   -8.249782   -3.690336
    141          1           0        3.630994   -6.985318   -4.113377
    142          1           0        1.689626   -5.766665    2.627285
    143          1           0        0.876228   -3.379395    4.207179
    144          1           0       -0.566171   -5.967911    2.631412
    145          1           0       -0.621096   -4.517277    1.569029
    146          1           0       -0.751503   -4.326388    3.243003
    147          1           0        1.943587   -5.439720    5.200954
    148          1           0        2.617722   -3.917304    5.751205
    149          1           0        3.619468   -5.982312    3.930661
    150          1           0        4.520128   -5.153810    5.252490
    151          1           0        4.249912   -4.358576    3.637284
    152          1           0        4.662186    1.509969    5.463247
    153          1           0        3.441095    0.213710    5.675051
    154          1           0        2.931766    1.790996    4.950471
    155          1           0        4.663568    3.516677    0.441866
    156          1           0        8.267602    5.737835   -0.370691
    157          1           0        8.236678    4.504613   -1.785669
    158          1           0        8.978559    4.222117   -0.191295
 ---------------------------------------------------------------------

 SCF Done:  E(RCAM-B3LYP) =  -4069.81082202     A.U. after   19 cycles

 Excitation energies and oscillator strengths:

 Excited State   1:      Singlet-A      1.6380 eV  756.91 nm  f=0.0012  <S**2>=0.000
     309 -> 315       -0.11247
     310 -> 316        0.11978
     311 -> 313       -0.46893
     312 -> 314        0.50378
 This state for optimization and/or second-order correction.
 Total Energy, E(TD-HF/TD-DFT) =  -4069.75062553
 Copying the excited state density for this state as the 1-particle RhoCI density.

 Excited State   2:      Singlet-A      1.7117 eV  724.33 nm  f=0.6777  <S**2>=0.000
     309 -> 315        0.13478
     310 -> 316        0.12439
     311 -> 313        0.50042
     312 -> 314        0.46580

 Excited State   3:      Singlet-A      2.1777 eV  569.34 nm  f=0.0121  <S**2>=0.000
     309 -> 313       -0.33984
     310 -> 314        0.54988
     311 -> 315        0.13864
     312 -> 316       -0.22611

 Excited State   4:      Singlet-A      2.1982 eV  564.04 nm  f=0.1560  <S**2>=0.000
     309 -> 313        0.54336
     310 -> 314        0.33351
     311 -> 315       -0.24154
     312 -> 316       -0.15033

 Excited State   5:      Singlet-A      2.2388 eV  553.80 nm  f=0.0000  <S**2>=0.000
     312 -> 313        0.70706

 The electronic state is 1-A.
 Alpha  occ. eigenvalues --  -46.87897 -46.87376 -19.26358 -19.26068 -19.19097
 Alpha  occ. eigenvalues --  -19.18869 -19.18848 -19.18474 -19.18222 -19.17683
 Alpha  occ. eigenvalues --  -14.42562 -14.42217 -14.41565 -14.41075 -14.39497
 Alpha  occ. eigenvalues --  -14.39074 -14.38680 -14.38294 -10.39159 -10.38787
 Alpha  occ. eigenvalues --  -10.35482 -10.35159 -10.34446 -10.33853 -10.31746
 Alpha  occ. eigenvalues --  -10.31528 -10.31522 -10.31020 -10.31012 -10.30751
 Alpha  occ. eigenvalues --  -10.30676 -10.30598 -10.30328 -10.30096 -10.30059
 Alpha  occ. eigenvalues --  -10.30031 -10.29896 -10.29722 -10.29583 -10.29349
 Alpha  occ. eigenvalues --  -10.29173 -10.29113 -10.28904 -10.28783 -10.28498
 Alpha  occ. eigenvalues --  -10.28455 -10.28455 -10.28260 -10.28102 -10.27883
 Alpha  occ. eigenvalues --  -10.27877 -10.27842 -10.27699 -10.27678 -10.27673
 Alpha  occ. eigenvalues --  -10.27611 -10.27592 -10.27505 -10.27409 -10.27330
 Alpha  occ. eigenvalues --  -10.27288 -10.27235 -10.27192 -10.27183 -10.27073
 Alpha  occ. eigenvalues --  -10.26926 -10.26652 -10.26484 -10.26452 -10.26443
 Alpha  occ. eigenvalues --  -10.26357 -10.26261 -10.26142 -10.25966 -10.25917
 Alpha  occ. eigenvalues --  -10.25731 -10.25666 -10.25543 -10.25493 -10.25089
 Alpha  occ. eigenvalues --  -10.24954 -10.24913 -10.24888 -10.24554 -10.24551
 Alpha  occ. eigenvalues --  -10.24386  -3.16639  -3.16126  -1.91521  -1.91108
 Alpha  occ. eigenvalues --   -1.91009  -1.90949  -1.90597  -1.90434  -1.16707
 Alpha  occ. eigenvalues --   -1.16358  -1.08677  -1.08280  -1.07242  -1.06728
 Alpha  occ. eigenvalues --   -1.06717  -1.06652  -1.04691  -1.04209  -1.03871
 Alpha  occ. eigenvalues --   -1.03378  -1.03332  -1.02750  -1.02513  -1.01816
 Alpha  occ. eigenvalues --   -0.92067  -0.91665  -0.89685  -0.89338  -0.89231
 Alpha  occ. eigenvalues --   -0.88892  -0.88441  -0.87958  -0.87947  -0.87798
 Alpha  occ. eigenvalues --   -0.87474  -0.87412  -0.87361  -0.86893  -0.85124
 Alpha  occ. eigenvalues --   -0.84744  -0.84126  -0.83602  -0.83065  -0.82771
 Alpha  occ. eigenvalues --   -0.82717  -0.82400  -0.81684  -0.81315  -0.80699
 Alpha  occ. eigenvalues --   -0.80169  -0.78893  -0.78378  -0.77372  -0.77085
 Alpha  occ. eigenvalues --   -0.76890  -0.76633  -0.76040  -0.75564  -0.75046
 Alpha  occ. eigenvalues --   -0.74504  -0.72887  -0.72410  -0.71784  -0.71294
 Alpha  occ. eigenvalues --   -0.70160  -0.69507  -0.69004  -0.68572  -0.67739
 Alpha  occ. eigenvalues --   -0.67362  -0.67319  -0.66973  -0.65428  -0.65007
 Alpha  occ. eigenvalues --   -0.64969  -0.64757  -0.64497  -0.64430  -0.64375
 Alpha  occ. eigenvalues --   -0.63931  -0.62395  -0.61999  -0.60542  -0.60088
 Alpha  occ. eigenvalues --   -0.59932  -0.59524  -0.59100  -0.58704  -0.58611
 Alpha  occ. eigenvalues --   -0.58135  -0.57669  -0.57424  -0.57217  -0.56953
 Alpha  occ. eigenvalues --   -0.56407  -0.56078  -0.55933  -0.55627  -0.55612
 Alpha  occ. eigenvalues --   -0.55491  -0.55198  -0.54970  -0.54664  -0.54224
 Alpha  occ. eigenvalues --   -0.54042  -0.53660  -0.53412  -0.53330  -0.53048
 Alpha  occ. eigenvalues --   -0.52971  -0.52891  -0.52858  -0.52679  -0.52627
 Alpha  occ. eigenvalues --   -0.52460  -0.52183  -0.51997  -0.51744  -0.51540
 Alpha  occ. eigenvalues --   -0.51417  -0.51318  -0.50913  -0.50673  -0.50290
 Alpha  occ. eigenvalues --   -0.50223  -0.50020  -0.49733  -0.49636  -0.49593
 Alpha  occ. eigenvalues --   -0.49311  -0.49242  -0.49219  -0.48925  -0.48818
 Alpha  occ. eigenvalues --   -0.48699  -0.48596  -0.48510  -0.48274  -0.48113
 Alpha  occ. eigenvalues --   -0.48076  -0.47807  -0.47401  -0.47349  -0.46992
 Alpha  occ. eigenvalues --   -0.46845  -0.46695  -0.46497  -0.46444  -0.46309
 Alpha  occ. eigenvalues --   -0.46271  -0.46001  -0.45920  -0.45783  -0.45530
 Alpha  occ. eigenvalues --   -0.45303  -0.44894  -0.44682  -0.44644  -0.44308
 Alpha  occ. eigenvalues --   -0.44250  -0.44211  -0.44197  -0.44105  -0.43858
 Alpha  occ. eigenvalues --   -0.43827  -0.43667  -0.43600  -0.43515  -0.43281
 Alpha  occ. eigenvalues --   -0.43148  -0.43112  -0.42880  -0.42764  -0.42656
 Alpha  occ. eigenvalues --   -0.42603  -0.42314  -0.42185  -0.41811  -0.41714
 Alpha  occ. eigenvalues --   -0.41681  -0.41368  -0.41251  -0.41211  -0.41038
 Alpha  occ. eigenvalues --   -0.40903  -0.40731  -0.40690  -0.40499  -0.40462
 Alpha  occ. eigenvalues --   -0.40403  -0.40223  -0.40008  -0.39637  -0.39186
 Alpha  occ. eigenvalues --   -0.38624  -0.38061  -0.37919  -0.37469  -0.37417
 Alpha  occ. eigenvalues --   -0.37393  -0.36977  -0.36932  -0.36802  -0.36487
 Alpha  occ. eigenvalues --   -0.36304  -0.35937  -0.34390  -0.33962  -0.33851
 Alpha  occ. eigenvalues --   -0.33567  -0.33288  -0.32889  -0.31383  -0.31137
 Alpha  occ. eigenvalues --   -0.31031  -0.30679  -0.30083  -0.29584  -0.29529
 Alpha  occ. eigenvalues --   -0.29402  -0.29059  -0.28882  -0.24185  -0.23739
 Alpha  occ. eigenvalues --   -0.21235  -0.20830
 Alpha virt. eigenvalues --   -0.08868  -0.08501  -0.01853  -0.01404  -0.00132
 Alpha virt. eigenvalues --    0.00236   0.02116   0.02419   0.02657   0.03627
 Alpha virt. eigenvalues --    0.04572   0.04989   0.05049   0.05472   0.05947

 Mulliken charges:
               1
     1  Mg   0.839149
     2  C   -0.002913
     3  C   -0.095049
     4  C   -0.045676
     5  C   -0.064285
     6  N   -0.256548
     7  C   -0.052936
     8  C   -0.013840
     9  C   -0.086882
    10  C    0.046100
    11  C    0.104779
    12  C    0.053503
    13  C   -0.071235
    14  H    0.034429
    15  N   -0.433386
    16  C    0.168651
    17  C   -0.177659
    18  C   -0.003350
    19  C    0.149483
    20  C    0.110418
    21  C    0.014057
    22  O   -0.248210
    23  C    0.062311
    24  N   -0.340823
    25  C    0.041100
    26  C   -0.029475
    27  C   -0.025810
    28  C    0.074208
    29  C    0.076034
    30  C    0.055763
    31  C   -0.040210
    32  N   -0.310626
    33  C    0.080599
    34  C   -0.169844
    35  C    0.008789
    36  C    0.083333
    37  C    0.127220
    38  C    0.046713
    39  O   -0.187063
    40  C   -0.005796
    41  C    0.213537
    42  O   -0.257443
    43  O   -0.304828
    44  C    0.157144
    45  H   -0.017783
    46  H   -0.016237
    47  H   -0.041882
    48  H    0.001381
    49  H   -0.004827
    50  H    0.025813
    51  H    0.016749
    52  H    0.016640
    53  H    0.009914
    54  H    0.043629
    55  H    0.018966
    56  H    0.017100
    57  H    0.005284
    58  H    0.027238
    59  H    0.038236
    60  H    0.036683
    61  H    0.037172
    62  H    0.030607
    63  H    0.017696
    64  H    0.010125
    65  H    0.023699
    66  H    0.012964
    67  H    0.004953
    68  H    0.006255
    69  H    0.002178
    70  H    0.027199
    71  H    0.024857
    72  H    0.033163
    73  H    0.048262
    74  H    0.008528
    75  H    0.046357
    76  H    0.035327
    77  H    0.044024
    78  H    0.045307
    79  H    0.054511
    80  Mg   0.837094
    81  C   -0.014970
    82  C   -0.088472
    83  C   -0.046011
    84  C   -0.064833
    85  N   -0.254569
    86  C   -0.047852
    87  C   -0.015077
    88  C   -0.091089
    89  C    0.046045
    90  C    0.112884
    91  C    0.062693
    92  C   -0.077147
    93  H    0.034095
    94  N   -0.423363
    95  C    0.162705
    96  C   -0.176463
    97  C   -0.008081
    98  C    0.151401
    99  C    0.100364
   100  C    0.014921
   101  O   -0.252772
   102  C    0.061643
   103  N   -0.350335
   104  C    0.037849
   105  C   -0.020559
   106  C   -0.036393
   107  C    0.089069
   108  C    0.079244
   109  C    0.033862
   110  C   -0.006012
   111  N   -0.324921
   112  C    0.079755
   113  C   -0.161493
   114  C    0.004932
   115  C    0.096230
   116  C    0.130322
   117  C    0.045413
   118  O   -0.186697
   119  C   -0.000628
   120  C    0.210595
   121  O   -0.251982
   122  O   -0.305031
   123  C    0.152326
   124  H   -0.022027
   125  H   -0.015055
   126  H   -0.041384
   127  H    0.000233
   128  H   -0.006051
   129  H    0.029856
   130  H    0.013583
   131  H    0.012278
   132  H    0.013416
   133  H    0.037682
   134  H    0.020213
   135  H    0.018682
   136  H    0.007449
   137  H    0.023107
   138  H    0.039071
   139  H    0.036533
   140  H    0.035989
   141  H    0.033492
   142  H    0.012938
   143  H    0.013103
   144  H    0.022734
   145  H    0.012639
   146  H   -0.007300
   147  H    0.005256
   148  H    0.002554
   149  H    0.010829
   150  H    0.017274
   151  H    0.030262
   152  H    0.045441
   153  H    0.006718
   154  H    0.051576
   155  H    0.041472
   156  H    0.043550
   157  H    0.048581
   158  H    0.053094
 Sum of Mulliken charges =  -0.00000

 Dipole moment (field-independent basis, Debye):
    X=             -4.2075    Y=             -0.7395    Z=             -7.5575  Tot=              8.6813
 Quadrupole moment (field-independent basis, Debye-Ang):
   XX=           -518.8267   YY=           -548.2413   ZZ=           -448.5675
   XY=            -11.5280   XZ=            -22.1970   YZ=            -40.8710

 Normal termination of Gaussian 16 at Wed Sep  8 14:04:02 2021.
