 Gaussian 16, Revision A.03,
 Gaussian 16:  ES64L-G16RevA.03 25-Dec-2016

 -----------------------------------
 #p cam-b3lyp/Def2SVP td=(nstates=5)
 -----------------------------------

 --------------------------------
 TDDFT excited states in gaussian
 --------------------------------
 Symbolic Z-matrix:
 Charge =  0 Multiplicity = 1

                         Standard orientation:
 ---------------------------------------------------------------------
 Center     Atomic      Atomic             Coordinates (Angstroms)
 Number     Number       Type             X           Y           Z
 ---------------------------------------------------------------------
      1         12           0        8.120688   -0.542668    0.333846
      2          6           0        8.319221    2.546953   -1.462551
      3          6           0        8.884160    1.219844    3.154082
      4          6           0        8.398298   -3.310139    1.857217
      5          6           0        8.498627   -2.173761   -2.722681
      6          7           0        8.525813    1.606796    0.674908
      7          6           0        8.511727    2.695862   -0.087265
      8          6           0        8.645608    4.019346    0.723810
      9          6           0        9.372096    3.446448    2.022271
     10          6           0        8.870520    2.014132    1.969197
     11          6           0       10.893621    3.438331    1.915508
     12          6           0        7.253775    4.644780    1.075042
     13          6           0        7.295126    6.091574    1.575474
     14          1           0        6.213280    6.991677    1.205648
     15          7           0        8.092618   -0.949541    2.266853
     16          6           0        8.418198   -0.107086    3.276582
     17          6           0        8.236641   -0.878127    4.525267
     18          6           0        7.962120   -2.293136    4.150459
     19          6           0        8.168628   -2.245520    2.725516
     20          6           0        8.281109   -0.258932    5.888487
     21          6           0        7.585330   -3.499476    4.951024
     22          8           0        7.621106   -4.679629    4.460582
     23          6           0        7.253948   -3.269699    6.368921
     24          7           0        8.626701   -2.466854   -0.297893
     25          6           0        8.615461   -3.498065    0.553848
     26          6           0        8.731226   -4.806192   -0.170957
     27          6           0        8.579337   -4.466178   -1.723720
     28          6           0        8.478674   -2.924374   -1.618938
     29          6           0       10.034888   -5.583985    0.056009
     30          6           0        7.478304   -5.225777   -2.505483
     31          6           0        6.113055   -4.798070   -2.015319
     32          7           0        8.189798    0.041431   -1.755435
     33          6           0        8.377199   -0.801143   -2.860706
     34          6           0        8.460026    0.062332   -4.053022
     35          6           0        8.330810    1.356734   -3.553350
     36          6           0        8.203332    1.306680   -2.135769
     37          6           0        8.691441   -0.377670   -5.386169
     38          6           0        8.295489    2.771936   -3.884726
     39          8           0        8.264525    3.416309   -4.934163
     40          6           0        8.408885    3.606051   -2.532979
     41          6           0        7.343077    4.667398   -2.563057
     42          8           0        6.134099    4.361456   -2.516834
     43          8           0        7.911013    5.872419   -2.402078
     44          6           0        6.905140    6.967996   -2.392873
     45          1           0        9.346137    1.625602    4.056234
     46          1           0        8.390336   -4.294108    2.330693
     47          1           0        8.531339   -2.616986   -3.719644
     48          1           0        9.269221    4.779673    0.253244
     49          1           0        9.025152    3.935975    2.932059
     50          1           0       11.224064    3.707929    0.912490
     51          1           0       11.196768    2.418912    2.155050
     52          1           0       11.339172    4.071627    2.683099
     53          1           0        6.852234    4.153351    1.961226
     54          1           0        6.574559    4.576753    0.224534
     55          1           0        8.262077    6.554597    1.376668
     56          1           0        7.219149    6.079177    2.662798
     57          1           0        8.664871    0.759906    5.853261
     58          1           0        9.024803   -0.809561    6.464192
     59          1           0        7.315963   -0.307459    6.392939
     60          1           0        8.108382   -2.812884    6.868734
     61          1           0        6.922963   -4.231135    6.759997
     62          1           0        6.440788   -2.545716    6.428638
     63          1           0        7.935612   -5.488834    0.124719
     64          1           0        9.493295   -4.676364   -2.279757
     65          1           0        9.881669   -6.592895    0.439846
     66          1           0       10.662538   -5.000628    0.729092
     67          1           0       10.676265   -5.666926   -0.821016
     68          1           0        7.560424   -6.298005   -2.330756
     69          1           0        7.523269   -5.060784   -3.582054
     70          1           0        5.962299   -5.424937   -1.137171
     71          1           0        5.356067   -5.000110   -2.773843
     72          1           0        6.117807   -3.761213   -1.678583
     73          1           0        8.000534    0.182157   -6.016416
     74          1           0        8.533305   -1.451662   -5.481759
     75          1           0        9.736798   -0.096601   -5.512987
     76          1           0        9.411130    4.032841   -2.511134
     77          1           0        7.194961    7.676361   -3.169054
     78          1           0        6.854813    7.333847   -1.367190
     79          1           0        5.899892    6.702216   -2.721774
     80         12           0       -7.742156   -0.822291   -0.110938
     81          6           0      -10.277682    1.690554    0.257465
     82          6           0       -5.478950    1.714542   -0.388434
     83          6           0       -5.557632   -2.988990   -0.886023
     84          6           0      -10.279113   -3.062785   -0.941437
     85          7           0       -7.970608    1.377028   -0.055791
     86          6           0       -8.973493    2.217079    0.151265
     87          6           0       -8.545238    3.698345    0.330254
     88          6           0       -7.144881    3.640193   -0.453644
     89          6           0       -6.818867    2.160421   -0.262209
     90          6           0       -7.277227    3.911326   -1.943047
     91          6           0       -8.344058    4.084396    1.837732
     92          6           0       -8.228065    5.586329    2.106984
     93          1           0       -8.798346    6.118201    3.341641
     94          7           0       -5.760676   -0.714157   -0.085891
     95          6           0       -5.005185    0.399557   -0.186722
     96          6           0       -3.607470   -0.056468   -0.135833
     97          6           0       -3.598240   -1.544399   -0.162566
     98          6           0       -5.001551   -1.812379   -0.405488
     99          6           0       -2.448696    0.886520    0.010615
    100          6           0       -2.504996   -2.558052   -0.009255
    101          8           0       -2.684814   -3.792235   -0.304728
    102          6           0       -1.191055   -2.047163    0.407923
    103          7           0       -7.867576   -2.689719   -1.016115
    104          6           0       -6.771625   -3.449357   -1.188653
    105          6           0       -7.141012   -4.853529   -1.603664
    106          6           0       -8.728999   -4.946594   -1.438668
    107          6           0       -9.026185   -3.488847   -1.023860
    108          6           0       -6.753518   -5.249875   -3.028142
    109          6           0       -9.277970   -6.094965   -0.548409
    110          6           0       -8.887342   -5.862098    0.893310
    111          7           0       -9.902286   -0.786588   -0.135506
    112          6           0      -10.767977   -1.825355   -0.542488
    113          6           0      -12.144057   -1.290332   -0.491605
    114          6           0      -11.980304    0.040108   -0.077350
    115          6           0      -10.598131    0.320791    0.096794
    116          6           0      -13.325661   -1.998333   -0.850301
    117          6           0      -12.661646    1.274005    0.241955
    118          8           0      -13.839207    1.611613    0.356398
    119          6           0      -11.580952    2.434447    0.350948
    120          6           0      -11.856708    3.209163    1.610419
    121          8           0      -11.725016    2.672191    2.724387
    122          8           0      -12.017879    4.508864    1.301907
    123          6           0      -12.282778    5.319987    2.519996
    124          1           0       -4.722728    2.429465   -0.713846
    125          1           0       -4.853564   -3.805299   -1.063200
    126          1           0      -11.132721   -3.727344   -1.091064
    127          1           0       -9.203243    4.421090   -0.137116
    128          1           0       -6.395451    4.261413    0.029900
    129          1           0       -8.310305    3.982008   -2.249448
    130          1           0       -6.791931    3.080108   -2.437630
    131          1           0       -6.703471    4.801441   -2.216603
    132          1           0       -7.347181    3.758034    2.160962
    133          1           0       -9.123768    3.667557    2.445120
    134          1           0       -8.548974    6.185409    1.246136
    135          1           0       -7.171345    5.836476    2.228612
    136          1           0       -2.751924    1.926408   -0.162869
    137          1           0       -1.752441    0.666775   -0.805963
    138          1           0       -1.926280    0.767298    0.962214
    139          1           0       -0.844753   -1.310140   -0.312729
    140          1           0       -0.565387   -2.930615    0.549095
    141          1           0       -1.306681   -1.523091    1.363224
    142          1           0       -6.676650   -5.584000   -0.952596
    143          1           0       -9.230297   -5.106903   -2.404504
    144          1           0       -6.110543   -6.149194   -3.071363
    145          1           0       -6.260708   -4.407303   -3.494781
    146          1           0       -7.590083   -5.429960   -3.701144
    147          1           0       -8.830571   -7.048012   -0.841134
    148          1           0      -10.354740   -6.212245   -0.610072
    149          1           0       -7.870037   -6.261963    0.941029
    150          1           0       -9.554945   -6.400674    1.562857
    151          1           0       -8.831231   -4.790583    1.117722
    152          1           0      -14.064549   -1.775218   -0.092168
    153          1           0      -13.141222   -3.068047   -0.924176
    154          1           0      -13.533676   -1.549364   -1.825202
    155          1           0      -11.675927    3.055353   -0.540697
    156          1           0      -13.221323    5.856221    2.348900
    157          1           0      -11.374191    5.931688    2.675014
    158          1           0      -12.507207    4.788214    3.437221
 ---------------------------------------------------------------------

 SCF Done:  E(RCAM-B3LYP) =  -4069.81195097     A.U. after   19 cycles

 Excitation energies and oscillator strengths:

 Excited State   1:      Singlet-A      1.6755 eV  740.00 nm  f=0.4034  <S**2>=0.000
     310 -> 316       -0.17146
     311 -> 313       -0.10979
     312 -> 314        0.67721
     310 <- 316       -0.10338
 This state for optimization and/or second-order correction.
 Total Energy, E(TD-HF/TD-DFT) =  -4069.75037925
 Copying the excited state density for this state as the 1-particle RhoCI density.

 Excited State   2:      Singlet-A      1.6796 eV  738.16 nm  f=0.3827  <S**2>=0.000
     309 -> 315        0.17349
     311 -> 313        0.67687
     312 -> 314        0.10985
     309 <- 315        0.10396

 Excited State   3:      Singlet-A      2.1865 eV  567.03 nm  f=0.0532  <S**2>=0.000
     309 -> 313       -0.15569
     310 -> 314        0.62345
     312 -> 316        0.26519

 Excited State   4:      Singlet-A      2.1936 eV  565.20 nm  f=0.1392  <S**2>=0.000
     309 -> 313        0.62156
     310 -> 314        0.15463
     311 -> 315       -0.27070

 Excited State   5:      Singlet-A      2.7321 eV  453.81 nm  f=0.0000  <S**2>=0.000
     312 -> 313        0.70699

 The electronic state is 1-A.
 Alpha  occ. eigenvalues --  -46.87914 -46.87574 -19.26458 -19.26297 -19.19199
 Alpha  occ. eigenvalues --  -19.19104 -19.18902 -19.18602 -19.18295 -19.17973
 Alpha  occ. eigenvalues --  -14.42568 -14.42411 -14.41555 -14.41274 -14.39517
 Alpha  occ. eigenvalues --  -14.39262 -14.38705 -14.38514 -10.39253 -10.39032
 Alpha  occ. eigenvalues --  -10.35534 -10.35276 -10.34517 -10.34152 -10.31863
 Alpha  occ. eigenvalues --  -10.31714 -10.31527 -10.31225 -10.31031 -10.30931
 Alpha  occ. eigenvalues --  -10.30687 -10.30617 -10.30313 -10.30301 -10.30274
 Alpha  occ. eigenvalues --  -10.30049 -10.30021 -10.29816 -10.29740 -10.29361
 Alpha  occ. eigenvalues --  -10.29340 -10.29306 -10.28891 -10.28718 -10.28640
 Alpha  occ. eigenvalues --  -10.28603 -10.28483 -10.28314 -10.28246 -10.28053
 Alpha  occ. eigenvalues --  -10.27910 -10.27905 -10.27841 -10.27693 -10.27585
 Alpha  occ. eigenvalues --  -10.27575 -10.27565 -10.27523 -10.27515 -10.27443
 Alpha  occ. eigenvalues --  -10.27398 -10.27367 -10.27306 -10.27300 -10.27295
 Alpha  occ. eigenvalues --  -10.26977 -10.26880 -10.26629 -10.26488 -10.26348
 Alpha  occ. eigenvalues --  -10.26270 -10.26222 -10.26120 -10.26073 -10.25943
 Alpha  occ. eigenvalues --  -10.25925 -10.25849 -10.25780 -10.25491 -10.25321
 Alpha  occ. eigenvalues --  -10.24948 -10.24891 -10.24785 -10.24714 -10.24671
 Alpha  occ. eigenvalues --  -10.24604  -3.16657  -3.16324  -1.91539  -1.91206
 Alpha  occ. eigenvalues --   -1.91125  -1.90967  -1.90795  -1.90631  -1.16807
 Alpha  occ. eigenvalues --   -1.16589  -1.08757  -1.08584  -1.07301  -1.06889
 Alpha  occ. eigenvalues --   -1.06854  -1.06819  -1.04700  -1.04408  -1.03869
 Alpha  occ. eigenvalues --   -1.03576  -1.03345  -1.02952  -1.02522  -1.02024
 Alpha  occ. eigenvalues --   -0.92094  -0.91904  -0.89606  -0.89414  -0.89321
 Alpha  occ. eigenvalues --   -0.89069  -0.88368  -0.88142  -0.87981  -0.87790
 Alpha  occ. eigenvalues --   -0.87712  -0.87597  -0.87377  -0.87003  -0.85111
 Alpha  occ. eigenvalues --   -0.84917  -0.84014  -0.83802  -0.83054  -0.82820
 Alpha  occ. eigenvalues --   -0.82769  -0.82561  -0.81722  -0.81526  -0.80718
 Alpha  occ. eigenvalues --   -0.80361  -0.78903  -0.78531  -0.77326  -0.77059
 Alpha  occ. eigenvalues --   -0.77057  -0.76825  -0.76050  -0.75754  -0.74987
 Alpha  occ. eigenvalues --   -0.74723  -0.72882  -0.72612  -0.71781  -0.71497
 Alpha  occ. eigenvalues --   -0.69972  -0.69684  -0.68996  -0.68742  -0.67754
 Alpha  occ. eigenvalues --   -0.67516  -0.67353  -0.67114  -0.65418  -0.65193
 Alpha  occ. eigenvalues --   -0.64973  -0.64737  -0.64689  -0.64576  -0.64358
 Alpha  occ. eigenvalues --   -0.64126  -0.62436  -0.62210  -0.60540  -0.60236
 Alpha  occ. eigenvalues --   -0.59931  -0.59712  -0.59098  -0.58910  -0.58616
 Alpha  occ. eigenvalues --   -0.58342  -0.57721  -0.57482  -0.57411  -0.57150
 Alpha  occ. eigenvalues --   -0.56423  -0.56128  -0.56113  -0.55815  -0.55628
 Alpha  occ. eigenvalues --   -0.55440  -0.55357  -0.55174  -0.54637  -0.54419
 Alpha  occ. eigenvalues --   -0.54030  -0.53831  -0.53403  -0.53343  -0.53139
 Alpha  occ. eigenvalues --   -0.53052  -0.53042  -0.52865  -0.52823  -0.52550
 Alpha  occ. eigenvalues --   -0.52500  -0.52330  -0.52023  -0.51809  -0.51747
 Alpha  occ. eigenvalues --   -0.51569  -0.51309  -0.51123  -0.50665  -0.50351
 Alpha  occ. eigenvalues --   -0.50112  -0.50019  -0.49883  -0.49779  -0.49632
 Alpha  occ. eigenvalues --   -0.49390  -0.49333  -0.49220  -0.49110  -0.49023
 Alpha  occ. eigenvalues --   -0.48719  -0.48556  -0.48547  -0.48477  -0.48299
 Alpha  occ. eigenvalues --   -0.48232  -0.47805  -0.47502  -0.47402  -0.47016
 Alpha  occ. eigenvalues --   -0.46902  -0.46688  -0.46627  -0.46470  -0.46467
 Alpha  occ. eigenvalues --   -0.46271  -0.46180  -0.46007  -0.45948  -0.45751
 Alpha  occ. eigenvalues --   -0.45285  -0.45128  -0.44700  -0.44611  -0.44435
 Alpha  occ. eigenvalues --   -0.44391  -0.44245  -0.44204  -0.44135  -0.44042
 Alpha  occ. eigenvalues --   -0.43992  -0.43837  -0.43625  -0.43498  -0.43485
 Alpha  occ. eigenvalues --   -0.43304  -0.43138  -0.42862  -0.42848  -0.42822
 Alpha  occ. eigenvalues --   -0.42737  -0.42469  -0.42107  -0.41891  -0.41818
 Alpha  occ. eigenvalues --   -0.41659  -0.41588  -0.41380  -0.41252  -0.40985
 Alpha  occ. eigenvalues --   -0.40924  -0.40904  -0.40657  -0.40635  -0.40604
 Alpha  occ. eigenvalues --   -0.40417  -0.40384  -0.40148  -0.39500  -0.39354
 Alpha  occ. eigenvalues --   -0.38558  -0.38274  -0.37893  -0.37582  -0.37413
 Alpha  occ. eigenvalues --   -0.37397  -0.37186  -0.37116  -0.36860  -0.36710
 Alpha  occ. eigenvalues --   -0.36312  -0.36142  -0.34400  -0.34169  -0.33939
 Alpha  occ. eigenvalues --   -0.33800  -0.33302  -0.33089  -0.31432  -0.31163
 Alpha  occ. eigenvalues --   -0.31147  -0.30886  -0.30156  -0.29880  -0.29559
 Alpha  occ. eigenvalues --   -0.29437  -0.29229  -0.29123  -0.24195  -0.23950
 Alpha  occ. eigenvalues --   -0.21238  -0.21028
 Alpha virt. eigenvalues --   -0.08885  -0.08700  -0.01857  -0.01596  -0.00166
 Alpha virt. eigenvalues --    0.00072   0.02086   0.02289   0.02962   0.03299
 Alpha virt. eigenvalues --    0.04592   0.04810   0.04932   0.05226   0.06023

 Mulliken charges:
               1
     1  Mg   0.837836
     2  C   -0.003451
     3  C   -0.094396
     4  C   -0.045653
     5  C   -0.063672
     6  N   -0.256801
     7  C   -0.052738
     8  C   -0.013907
     9  C   -0.086942
    10  C    0.046107
    11  C    0.104751
    12  C    0.053554
    13  C   -0.071608
    14  H    0.035213
    15  N   -0.433234
    16  C    0.168265
    17  C   -0.177256
    18  C   -0.003907
    19  C    0.148588
    20  C    0.110156
    21  C    0.012322
    22  O   -0.249040
    23  C    0.062498
    24  N   -0.341148
    25  C    0.041278
    26  C   -0.028260
    27  C   -0.024071
    28  C    0.074809
    29  C    0.076061
    30  C    0.035019
    31  C   -0.004589
    32  N   -0.310409
    33  C    0.080184
    34  C   -0.169725
    35  C    0.008294
    36  C    0.082658
    37  C    0.127342
    38  C    0.045865
    39  O   -0.188566
    40  C   -0.005251
    41  C    0.213032
    42  O   -0.258134
    43  O   -0.304486
    44  C    0.157836
    45  H   -0.017451
    46  H   -0.016349
    47  H   -0.041143
    48  H    0.001050
    49  H   -0.004144
    50  H    0.025574
    51  H    0.016692
    52  H    0.016831
    53  H    0.010770
    54  H    0.043329
    55  H    0.018345
    56  H    0.018060
    57  H    0.005833
    58  H    0.027189
    59  H    0.039403
    60  H    0.037456
    61  H    0.036195
    62  H    0.031168
    63  H    0.017063
    64  H    0.009616
    65  H    0.023630
    66  H    0.012477
    67  H    0.004926
    68  H    0.006911
    69  H    0.004795
    70  H    0.009403
    71  H    0.019056
    72  H    0.027978
    73  H    0.047396
    74  H    0.009424
    75  H    0.046191
    76  H    0.035375
    77  H    0.043221
    78  H    0.046385
    79  H    0.052923
    80  Mg   0.837547
    81  C   -0.016881
    82  C   -0.087747
    83  C   -0.045433
    84  C   -0.064907
    85  N   -0.254525
    86  C   -0.049993
    87  C   -0.015108
    88  C   -0.090421
    89  C    0.045605
    90  C    0.114274
    91  C    0.062564
    92  C   -0.077713
    93  H    0.034377
    94  N   -0.423561
    95  C    0.162786
    96  C   -0.174169
    97  C   -0.007679
    98  C    0.152146
    99  C    0.098996
   100  C    0.015671
   101  O   -0.253316
   102  C    0.061051
   103  N   -0.350008
   104  C    0.037599
   105  C   -0.019868
   106  C   -0.034718
   107  C    0.088749
   108  C    0.073642
   109  C    0.034796
   110  C   -0.007642
   111  N   -0.324004
   112  C    0.078231
   113  C   -0.163347
   114  C    0.002143
   115  C    0.096018
   116  C    0.131535
   117  C    0.042192
   118  O   -0.188270
   119  C    0.000964
   120  C    0.211216
   121  O   -0.251171
   122  O   -0.305595
   123  C    0.152122
   124  H   -0.018854
   125  H   -0.015540
   126  H   -0.040696
   127  H   -0.000751
   128  H   -0.004293
   129  H    0.022309
   130  H    0.014808
   131  H    0.016595
   132  H    0.013817
   133  H    0.037509
   134  H    0.020843
   135  H    0.019541
   136  H    0.009236
   137  H    0.028221
   138  H    0.039538
   139  H    0.039670
   140  H    0.036568
   141  H    0.033337
   142  H    0.014315
   143  H    0.012304
   144  H    0.025023
   145  H    0.011917
   146  H    0.005581
   147  H    0.006114
   148  H    0.003501
   149  H    0.010908
   150  H    0.017708
   151  H    0.030152
   152  H    0.045748
   153  H    0.008341
   154  H    0.046801
   155  H    0.034967
   156  H    0.043767
   157  H    0.049436
   158  H    0.053411
 Sum of Mulliken charges =  -0.00000

 Dipole moment (field-independent basis, Debye):
    X=              5.7695    Y=              2.6179    Z=              2.6498  Tot=              6.8674
 Quadrupole moment (field-independent basis, Debye-Ang):
   XX=           -560.1791   YY=           -475.4474   ZZ=           -511.3833
   XY=             15.8996   XZ=             53.0097   YZ=             41.5433

 Normal termination of Gaussian 16 at Sun Sep 12 08:52:01 2021.
