 Gaussian 16, Revision A.03,
 Gaussian 16:  ES64L-G16RevA.03 25-Dec-2016

 -----------------------------------
 #p cam-b3lyp/Def2SVP td=(nstates=5)
 -----------------------------------

 --------------------------------
 TDDFT excited states in gaussian
 --------------------------------
 Symbolic Z-matrix:
 Charge =  0 Multiplicity = 1

                         Standard orientation:
 ---------------------------------------------------------------------
 Center     Atomic      Atomic             Coordinates (Angstroms)
 Number     Number       Type             X           Y           Z
 ---------------------------------------------------------------------
      1         12           0      -15.816148   -0.738373    0.083031
      2          6           0      -16.008914    2.829716    0.292313
      3          6           0      -16.691054   -0.444198   -3.201944
      4          6           0      -16.096098   -3.895759   -0.012678
      5          6           0      -16.076977   -0.808756    3.557607
      6          7           0      -16.264727    1.023530   -1.179950
      7          6           0      -16.244797    2.339674   -0.994101
      8          6           0      -16.423491    3.152390   -2.311271
      9          6           0      -17.179511    2.053391   -3.184559
     10          6           0      -16.654324    0.800529   -2.506002
     11          6           0      -18.696847    2.093992   -3.034411
     12          6           0      -15.052705    3.551451   -2.954253
     13          6           0      -15.131545    4.614805   -4.053533
     14          1           0      -14.053264    5.585163   -4.167820
     15          7           0      -15.839618   -1.976424   -1.456296
     16          6           0      -16.208358   -1.682611   -2.726332
     17          6           0      -16.052273   -2.935436   -3.496235
     18          6           0      -15.744652   -4.027257   -2.531150
     19          6           0      -15.909131   -3.339639   -1.275959
     20          6           0      -16.147165   -3.000656   -4.989718
     21          6           0      -15.373252   -5.465218   -2.711326
     22          8           0      -15.375947   -6.295382   -1.739013
     23          6           0      -15.088080   -5.902279   -4.089984
     24          7           0      -16.272995   -2.168096    1.533829
     25          6           0      -16.271197   -3.473205    1.241130
     26          6           0      -16.344826   -4.311376    2.482898
     27          6           0      -16.151840   -3.305057    3.707574
     28          6           0      -16.078383   -1.977789    2.913071
     29          6           0      -17.642426   -5.108067    2.676621
     30          6           0      -15.016203   -3.627963    4.710808
     31          6           0      -13.673065   -3.468115    4.034400
     32          7           0      -15.831776    0.728444    1.682797
     33          6           0      -15.972863    0.477617    3.055333
     34          6           0      -16.033401    1.787365    3.729844
     35          6           0      -15.939375    2.715246    2.694450
     36          6           0      -15.853623    2.028762    1.449589
     37          6           0      -16.217926    1.998646    5.124743
     38          6           0      -15.916196    4.127112    2.348106
     39          8           0      -15.863871    5.176847    2.990610
     40          6           0      -16.082980    4.258687    0.769911
     41          6           0      -15.033408    5.218964    0.280446
     42          8           0      -13.821737    4.925656    0.336917
     43          8           0      -15.624607    6.220286   -0.389167
     44          6           0      -14.636645    7.193274   -0.927106
     45          1           0      -17.186092   -0.491081   -4.173891
     46          1           0      -16.086989   -4.987465    0.010427
     47          1           0      -16.072925   -0.752512    4.647686
     48          1           0      -17.044505    4.043174   -2.214988
     49          1           0      -16.867621    2.078007   -4.228514
     50          1           0      -19.001277    2.788436   -2.251474
     51          1           0      -18.991116    1.076504   -2.776307
     52          1           0      -19.174984    2.310920   -3.989976
     53          1           0      -14.670266    2.712148   -3.535090
     54          1           0      -14.347358    3.876144   -2.188495
     55          1           0      -16.099206    5.117340   -4.053290
     56          1           0      -15.087966    4.111423   -5.019404
     57          1           0      -16.545522   -2.076431   -5.406449
     58          1           0      -16.899093   -3.752533   -5.228452
     59          1           0      -15.196913   -3.272025   -5.449840
     60          1           0      -15.964103   -5.721585   -4.713269
     61          1           0      -14.754016   -6.936474   -4.014548
     62          1           0      -14.288446   -5.283541   -4.498270
     63          1           0      -15.547885   -5.053645    2.501502
     64          1           0      -17.045360   -3.240983    4.329016
     65          1           0      -17.485071   -6.181372    2.785989
     66          1           0      -18.298952   -4.892931    1.834017
     67          1           0      -18.255894   -4.785103    3.517316
     68          1           0      -15.086807   -4.663113    5.043110
     69          1           0      -15.031486   -2.993383    5.596994
     70          1           0      -13.538918   -4.424620    3.530478
     71          1           0      -12.890656   -3.304534    4.776214
     72          1           0      -13.704042   -2.696128    3.265269
     73          1           0      -15.517266    2.783403    5.409700
     74          1           0      -16.040292    1.084405    5.690617
     75          1           0      -17.263270    2.306326    5.145827
     76          1           0      -17.091955    4.628991    0.591120
     77          1           0      -14.914099    8.176225   -0.546236
     78          1           0      -14.622747    7.055044   -2.008357
     79          1           0      -13.617985    7.105568   -0.547662
     80         12           0       15.941973   -0.822302    0.071271
     81          6           0       15.909255    2.760543    0.274349
     82          6           0       15.216889   -0.491890   -3.245308
     83          6           0       15.519338   -3.964705   -0.047641
     84          6           0       15.527999   -0.883588    3.531120
     85          7           0       15.628442    0.957002   -1.204663
     86          6           0       15.701863    2.268034   -1.030969
     87          6           0       15.624238    3.095843   -2.341802
     88          6           0       14.846282    2.028091   -3.254802
     89          6           0       15.280658    0.743362   -2.552333
     90          6           0       13.334009    2.139288   -3.154794
     91          6           0       17.042926    3.425276   -2.925588
     92          6           0       17.054144    4.486840   -4.027730
     93          1           0       18.187668    5.404770   -4.098462
     94          7           0       15.927110   -2.058283   -1.481378
     95          6           0       15.632045   -1.752291   -2.762231
     96          6           0       15.743942   -3.012468   -3.512950
     97          6           0       15.968054   -4.118263   -2.542542
     98          6           0       15.788852   -3.410684   -1.290614
     99          6           0       15.717015   -3.071321   -5.012694
    100          6           0       16.278084   -5.574615   -2.713255
    101          8           0       16.196613   -6.399493   -1.735631
    102          6           0       16.589086   -6.023034   -4.078425
    103          7           0       15.365604   -2.222363    1.496042
    104          6           0       15.311647   -3.531963    1.196107
    105          6           0       15.143026   -4.370142    2.440860
    106          6           0       15.338422   -3.362374    3.667146
    107          6           0       15.505008   -2.041153    2.884837
    108          6           0       13.801538   -5.089074    2.582070
    109          6           0       16.415209   -3.737696    4.721826
    110          6           0       17.792846   -3.655011    4.104835
    111          7           0       15.935014    0.638629    1.663025
    112          6           0       15.718115    0.400958    3.038000
    113          6           0       15.692998    1.717023    3.708650
    114          6           0       15.875507    2.637622    2.665730
    115          6           0       15.985004    1.945318    1.429521
    116          6           0       15.471392    1.939072    5.097069
    117          6           0       15.989787    4.038219    2.328135
    118          8           0       16.058427    5.084237    2.972237
    119          6           0       15.890160    4.187124    0.748807
    120          6           0       17.004089    5.090954    0.296287
    121          8           0       18.191093    4.739752    0.415853
    122          8           0       16.482875    6.119396   -0.397270
    123          6           0       17.549760    7.037910   -0.876745
    124          1           0       14.767604   -0.506903   -4.238689
    125          1           0       15.474579   -5.055827   -0.017441
    126          1           0       15.501630   -0.822998    4.621222
    127          1           0       15.048948    4.010913   -2.267784
    128          1           0       15.210208    2.044505   -4.278832
    129          1           0       13.031224    2.842520   -2.393277
    130          1           0       12.981265    1.145109   -2.913471
    131          1           0       12.908300    2.380955   -4.132903
    132          1           0       17.405742    2.559720   -3.494716
    133          1           0       17.720187    3.709046   -2.143653
    134          1           0       16.108218    5.039771   -4.077107
    135          1           0       17.120518    3.982382   -4.994748
    136          1           0       15.374165   -2.123797   -5.446357
    137          1           0       14.941644   -3.793481   -5.290494
    138          1           0       16.669412   -3.393956   -5.438740
    139          1           0       15.750942   -5.795858   -4.732909
    140          1           0       16.870273   -7.073704   -3.983956
    141          1           0       17.443682   -5.446564   -4.449853
    142          1           0       15.902763   -5.140238    2.494375
    143          1           0       14.418834   -3.261475    4.262139
    144          1           0       13.903453   -6.184830    2.696133
    145          1           0       13.194395   -4.851473    1.718667
    146          1           0       13.177521   -4.744902    3.405080
    147          1           0       16.282353   -4.772483    5.046976
    148          1           0       16.385785   -3.114859    5.609639
    149          1           0       17.896255   -4.621027    3.601630
    150          1           0       18.550677   -3.528204    4.875322
    151          1           0       17.832991   -2.876116    3.334532
    152          1           0       16.189042    2.685144    5.411485
    153          1           0       15.576724    1.019263    5.668586
    154          1           0       14.437111    2.292708    5.075380
    155          1           0       14.907765    4.602115    0.520204
    156          1           0       17.300924    8.037361   -0.506804
    157          1           0       17.589758    6.902424   -1.973921
    158          1           0       18.545805    6.904201   -0.471194
 ---------------------------------------------------------------------

 SCF Done:  E(RCAM-B3LYP) =  -4069.81176633     A.U. after   19 cycles

 Excitation energies and oscillator strengths:

 Excited State   1:      Singlet-A      1.6753 eV  740.07 nm  f=0.2114  <S**2>=0.000
     310 -> 316        0.16856
     311 -> 314       -0.16310
     312 -> 313        0.66639
     310 <- 316        0.10162
 This state for optimization and/or second-order correction.
 Total Energy, E(TD-HF/TD-DFT) =  -4069.75020013
 Copying the excited state density for this state as the 1-particle RhoCI density.

 Excited State   2:      Singlet-A      1.6801 eV  737.95 nm  f=0.5659  <S**2>=0.000
     309 -> 315        0.17058
     311 -> 314        0.66602
     312 -> 313        0.16305
     309 <- 315        0.10212

 Excited State   3:      Singlet-A      2.1861 eV  567.15 nm  f=0.0950  <S**2>=0.000
     310 -> 313        0.64209
     312 -> 316       -0.27294

 Excited State   4:      Singlet-A      2.1925 eV  565.49 nm  f=0.1051  <S**2>=0.000
     309 -> 314        0.64032
     311 -> 315       -0.27814

 Excited State   5:      Singlet-A      3.0656 eV  404.43 nm  f=0.0000  <S**2>=0.000
     311 -> 313        0.70711

 The electronic state is 1-A.
 Alpha  occ. eigenvalues --  -46.87795 -46.87660 -19.26348 -19.26282 -19.19160
 Alpha  occ. eigenvalues --  -19.19017 -19.18814 -19.18715 -19.18167 -19.18050
 Alpha  occ. eigenvalues --  -14.42497 -14.42448 -14.41448 -14.41359 -14.39401
 Alpha  occ. eigenvalues --  -14.39352 -14.38599 -14.38585 -10.39090 -10.39077
 Alpha  occ. eigenvalues --  -10.35448 -10.35393 -10.34387 -10.34227 -10.31755
 Alpha  occ. eigenvalues --  -10.31677 -10.31403 -10.31308 -10.31023 -10.30908
 Alpha  occ. eigenvalues --  -10.30568 -10.30506 -10.30398 -10.30360 -10.30205
 Alpha  occ. eigenvalues --  -10.30141 -10.29919 -10.29894 -10.29629 -10.29437
 Alpha  occ. eigenvalues --  -10.29401 -10.29253 -10.28748 -10.28719 -10.28655
 Alpha  occ. eigenvalues --  -10.28538 -10.28404 -10.28363 -10.28140 -10.28115
 Alpha  occ. eigenvalues --  -10.28000 -10.27791 -10.27726 -10.27669 -10.27583
 Alpha  occ. eigenvalues --  -10.27517 -10.27499 -10.27483 -10.27481 -10.27469
 Alpha  occ. eigenvalues --  -10.27466 -10.27447 -10.27402 -10.27375 -10.27156
 Alpha  occ. eigenvalues --  -10.27049 -10.26704 -10.26693 -10.26417 -10.26411
 Alpha  occ. eigenvalues --  -10.26233 -10.26181 -10.26137 -10.26024 -10.26017
 Alpha  occ. eigenvalues --  -10.25934 -10.25848 -10.25840 -10.25433 -10.25396
 Alpha  occ. eigenvalues --  -10.24872 -10.24831 -10.24786 -10.24731 -10.24690
 Alpha  occ. eigenvalues --  -10.24684  -3.16538  -3.16410  -1.91419  -1.91292
 Alpha  occ. eigenvalues --   -1.91006  -1.90881  -1.90848  -1.90718  -1.16642
 Alpha  occ. eigenvalues --   -1.16630  -1.08657  -1.08625  -1.07216  -1.06968
 Alpha  occ. eigenvalues --   -1.06944  -1.06640  -1.04579  -1.04495  -1.03759
 Alpha  occ. eigenvalues --   -1.03663  -1.03232  -1.03039  -1.02409  -1.02111
 Alpha  occ. eigenvalues --   -0.91987  -0.91970  -0.89517  -0.89494  -0.89187
 Alpha  occ. eigenvalues --   -0.89151  -0.88285  -0.88220  -0.87868  -0.87793
 Alpha  occ. eigenvalues --   -0.87684  -0.87671  -0.87273  -0.87121  -0.85000
 Alpha  occ. eigenvalues --   -0.84981  -0.83934  -0.83876  -0.82966  -0.82933
 Alpha  occ. eigenvalues --   -0.82653  -0.82647  -0.81596  -0.81584  -0.80595
 Alpha  occ. eigenvalues --   -0.80442  -0.78796  -0.78636  -0.77217  -0.77144
 Alpha  occ. eigenvalues --   -0.76933  -0.76898  -0.75921  -0.75838  -0.74896
 Alpha  occ. eigenvalues --   -0.74802  -0.72772  -0.72699  -0.71670  -0.71580
 Alpha  occ. eigenvalues --   -0.69905  -0.69757  -0.68872  -0.68827  -0.67639
 Alpha  occ. eigenvalues --   -0.67601  -0.67219  -0.67200  -0.65285  -0.65271
 Alpha  occ. eigenvalues --   -0.64852  -0.64770  -0.64653  -0.64619  -0.64267
 Alpha  occ. eigenvalues --   -0.64203  -0.62295  -0.62278  -0.60441  -0.60340
 Alpha  occ. eigenvalues --   -0.59803  -0.59796  -0.58992  -0.58985  -0.58502
 Alpha  occ. eigenvalues --   -0.58425  -0.57582  -0.57553  -0.57307  -0.57236
 Alpha  occ. eigenvalues --   -0.56308  -0.56204  -0.55976  -0.55886  -0.55519
 Alpha  occ. eigenvalues --   -0.55452  -0.55337  -0.55247  -0.54521  -0.54487
 Alpha  occ. eigenvalues --   -0.53912  -0.53894  -0.53297  -0.53228  -0.53221
 Alpha  occ. eigenvalues --   -0.53142  -0.52913  -0.52902  -0.52755  -0.52669
 Alpha  occ. eigenvalues --   -0.52436  -0.52401  -0.51912  -0.51883  -0.51659
 Alpha  occ. eigenvalues --   -0.51615  -0.51201  -0.51194  -0.50572  -0.50476
 Alpha  occ. eigenvalues --   -0.50029  -0.49980  -0.49917  -0.49867  -0.49513
 Alpha  occ. eigenvalues --   -0.49488  -0.49213  -0.49202  -0.49104  -0.49094
 Alpha  occ. eigenvalues --   -0.48591  -0.48558  -0.48460  -0.48444  -0.48375
 Alpha  occ. eigenvalues --   -0.48339  -0.47693  -0.47595  -0.47295  -0.47118
 Alpha  occ. eigenvalues --   -0.46795  -0.46709  -0.46554  -0.46554  -0.46357
 Alpha  occ. eigenvalues --   -0.46270  -0.46160  -0.46085  -0.45821  -0.45819
 Alpha  occ. eigenvalues --   -0.45208  -0.45199  -0.44576  -0.44514  -0.44506
 Alpha  occ. eigenvalues --   -0.44476  -0.44143  -0.44127  -0.44087  -0.44078
 Alpha  occ. eigenvalues --   -0.44018  -0.43939  -0.43552  -0.43493  -0.43385
 Alpha  occ. eigenvalues --   -0.43384  -0.43025  -0.42930  -0.42900  -0.42697
 Alpha  occ. eigenvalues --   -0.42652  -0.42553  -0.42007  -0.41964  -0.41702
 Alpha  occ. eigenvalues --   -0.41669  -0.41532  -0.41459  -0.41139  -0.40989
 Alpha  occ. eigenvalues --   -0.40868  -0.40822  -0.40723  -0.40699  -0.40569
 Alpha  occ. eigenvalues --   -0.40493  -0.40233  -0.40227  -0.39439  -0.39425
 Alpha  occ. eigenvalues --   -0.38467  -0.38350  -0.37747  -0.37654  -0.37318
 Alpha  occ. eigenvalues --   -0.37266  -0.37262  -0.37199  -0.36770  -0.36711
 Alpha  occ. eigenvalues --   -0.36217  -0.36190  -0.34284  -0.34253  -0.33861
 Alpha  occ. eigenvalues --   -0.33768  -0.33184  -0.33175  -0.31344  -0.31274
 Alpha  occ. eigenvalues --   -0.31034  -0.30973  -0.30026  -0.29954  -0.29448
 Alpha  occ. eigenvalues --   -0.29327  -0.29320  -0.29211  -0.24079  -0.24036
 Alpha  occ. eigenvalues --   -0.21126  -0.21117
 Alpha virt. eigenvalues --   -0.08792  -0.08773  -0.01748  -0.01684  -0.00057
 Alpha virt. eigenvalues --   -0.00029   0.02202   0.02208   0.03125   0.03226
 Alpha virt. eigenvalues --    0.04720   0.04730   0.05101   0.05166   0.06178

 Mulliken charges:
               1
     1  Mg   0.838773
     2  C   -0.002976
     3  C   -0.094128
     4  C   -0.045872
     5  C   -0.063960
     6  N   -0.256778
     7  C   -0.052459
     8  C   -0.014022
     9  C   -0.087001
    10  C    0.046324
    11  C    0.104812
    12  C    0.053473
    13  C   -0.071791
    14  H    0.036119
    15  N   -0.433143
    16  C    0.168422
    17  C   -0.177172
    18  C   -0.004008
    19  C    0.148711
    20  C    0.110182
    21  C    0.012274
    22  O   -0.249626
    23  C    0.062482
    24  N   -0.341175
    25  C    0.041257
    26  C   -0.028176
    27  C   -0.023987
    28  C    0.074870
    29  C    0.076164
    30  C    0.035119
    31  C   -0.004504
    32  N   -0.310471
    33  C    0.080415
    34  C   -0.169691
    35  C    0.008358
    36  C    0.082970
    37  C    0.127307
    38  C    0.046135
    39  O   -0.188412
    40  C   -0.005315
    41  C    0.212864
    42  O   -0.257100
    43  O   -0.304797
    44  C    0.157694
    45  H   -0.017616
    46  H   -0.016840
    47  H   -0.041474
    48  H    0.000945
    49  H   -0.004047
    50  H    0.025481
    51  H    0.016448
    52  H    0.016650
    53  H    0.011191
    54  H    0.044127
    55  H    0.017876
    56  H    0.017931
    57  H    0.005865
    58  H    0.026817
    59  H    0.039525
    60  H    0.037342
    61  H    0.035639
    62  H    0.031484
    63  H    0.016553
    64  H    0.009468
    65  H    0.023212
    66  H    0.012543
    67  H    0.004761
    68  H    0.006371
    69  H    0.004747
    70  H    0.008774
    71  H    0.018162
    72  H    0.028974
    73  H    0.047595
    74  H    0.009123
    75  H    0.046016
    76  H    0.035153
    77  H    0.042962
    78  H    0.046384
    79  H    0.053697
    80  Mg   0.837875
    81  C   -0.016851
    82  C   -0.087802
    83  C   -0.045506
    84  C   -0.064847
    85  N   -0.254576
    86  C   -0.049806
    87  C   -0.015134
    88  C   -0.090494
    89  C    0.045761
    90  C    0.114375
    91  C    0.062549
    92  C   -0.077896
    93  H    0.034896
    94  N   -0.423494
    95  C    0.162916
    96  C   -0.174625
    97  C   -0.007807
    98  C    0.152126
    99  C    0.099357
   100  C    0.015566
   101  O   -0.253171
   102  C    0.061195
   103  N   -0.350068
   104  C    0.037532
   105  C   -0.019829
   106  C   -0.034843
   107  C    0.088919
   108  C    0.073635
   109  C    0.034736
   110  C   -0.007685
   111  N   -0.324123
   112  C    0.078454
   113  C   -0.163116
   114  C    0.002269
   115  C    0.096195
   116  C    0.131483
   117  C    0.042401
   118  O   -0.187825
   119  C    0.000934
   120  C    0.211237
   121  O   -0.251025
   122  O   -0.305610
   123  C    0.152030
   124  H   -0.019664
   125  H   -0.015571
   126  H   -0.040420
   127  H   -0.000618
   128  H   -0.004342
   129  H    0.022503
   130  H    0.014440
   131  H    0.016280
   132  H    0.013904
   133  H    0.037676
   134  H    0.020804
   135  H    0.019575
   136  H    0.008757
   137  H    0.026139
   138  H    0.039781
   139  H    0.038246
   140  H    0.036394
   141  H    0.033890
   142  H    0.014393
   143  H    0.012468
   144  H    0.025144
   145  H    0.011655
   146  H    0.005723
   147  H    0.006278
   148  H    0.003674
   149  H    0.010927
   150  H    0.017937
   151  H    0.030096
   152  H    0.046018
   153  H    0.008525
   154  H    0.047014
   155  H    0.035075
   156  H    0.043939
   157  H    0.049481
   158  H    0.053575
 Sum of Mulliken charges =  -0.00000

 Dipole moment (field-independent basis, Debye):
    X=             -3.9010    Y=             -2.3576    Z=             -7.8373  Tot=              9.0664
 Quadrupole moment (field-independent basis, Debye-Ang):
   XX=           -512.9601   YY=           -551.6666   ZZ=           -447.0872
   XY=             -2.0485   XZ=             -2.7186   YZ=            -48.5023

 Normal termination of Gaussian 16 at Sun Sep 12 20:23:13 2021.
