 Gaussian 16, Revision A.03,
 Gaussian 16:  ES64L-G16RevA.03 25-Dec-2016

 -----------------------------------
 #p cam-b3lyp/Def2SVP td=(nstates=5)
 -----------------------------------

 --------------------------------
 TDDFT excited states in gaussian
 --------------------------------
 Symbolic Z-matrix:
 Charge =  0 Multiplicity = 1

                         Standard orientation:
 ---------------------------------------------------------------------
 Center     Atomic      Atomic             Coordinates (Angstroms)
 Number     Number       Type             X           Y           Z
 ---------------------------------------------------------------------
      1         12           0        6.335314   -0.924433    0.087930
      2          6           0        6.688460    2.061370   -1.854358
      3          6           0        7.253104    0.915986    2.810719
      4          6           0        6.472029   -3.630688    1.735387
      5          6           0        6.560469   -2.714443   -2.893820
      6          7           0        6.875363    1.209664    0.321641
      7          6           0        6.913682    2.261341   -0.490565
      8          6           0        7.141404    3.610074    0.255381
      9          6           0        7.854637    3.054186    1.568501
     10          6           0        7.266664    1.654278    1.590156
     11          6           0        9.370791    2.948197    1.439880
     12          6           0        5.796233    4.334891    0.597266
     13          6           0        5.933607    5.797939    1.028513
     14          1           0        4.901749    6.744508    0.632754
     15          7           0        6.316624   -1.239482    2.038121
     16          6           0        6.710113   -0.372944    3.002260
     17          6           0        6.504263   -1.073192    4.288324
     18          6           0        6.138301   -2.484520    3.984484
     19          6           0        6.322297   -2.515210    2.555994
     20          6           0        6.609916   -0.395821    5.620148
     21          6           0        5.703473   -3.627474    4.846291
     22          8           0        5.659345   -4.828916    4.411361
     23          6           0        5.411472   -3.312896    6.256546
     24          7           0        6.713104   -2.902966   -0.460085
     25          6           0        6.654571   -3.891289    0.439234
     26          6           0        6.678440   -5.235999   -0.224938
     27          6           0        6.520156   -4.959125   -1.789559
     28          6           0        6.514595   -3.410867   -1.755858
     29          6           0        7.936553   -6.080743    0.019127
     30          6           0        5.361744   -5.685173   -2.518501
     31          6           0        4.033605   -5.152738   -2.028953
     32          7           0        6.402919   -0.442375   -2.027276
     33          6           0        6.519715   -1.344775   -3.094377
     34          6           0        6.633598   -0.543738   -4.327032
     35          6           0        6.591530    0.777754   -3.886877
     36          6           0        6.486133    0.800845   -2.466789
     37          6           0        6.814626   -1.057916   -5.641294
     38          6           0        6.635895    2.175726   -4.283818
     39          8           0        6.625491    2.771829   -5.361800
     40          6           0        6.823111    3.062646   -2.974563
     41          6           0        5.822949    4.184635   -3.038797
     42          8           0        4.598704    3.955599   -2.960483
     43          8           0        6.465322    5.358823   -2.942975
     44          6           0        5.527730    6.513085   -2.970462
     45          1           0        7.754474    1.333822    3.685923
     46          1           0        6.412988   -4.589508    2.254634
     47          1           0        6.548886   -3.204229   -3.869232
     48          1           0        7.801430    4.308418   -0.259503
     49          1           0        7.553876    3.605331    2.459290
     50          1           0        9.699272    3.150673    0.420554
     51          1           0        9.616004    1.924258    1.722567
     52          1           0        9.867144    3.587719    2.170238
     53          1           0        5.381357    3.910205    1.511367
     54          1           0        5.099345    4.269450   -0.239029
     55          1           0        6.923110    6.191368    0.793980
     56          1           0        5.876092    5.840238    2.116219
     57          1           0        7.053801    0.594959    5.531458
     58          1           0        7.328995   -0.963804    6.210089
     59          1           0        5.652593   -0.362020    6.140457
     60          1           0        6.300552   -2.886645    6.721730
     61          1           0        5.029962   -4.233298    6.697181
     62          1           0        4.644667   -2.538592    6.294133
     63          1           0        5.848377   -5.854418    0.114147
     64          1           0        7.409872   -5.250127   -2.348484
     65          1           0        7.729466   -7.059677    0.452150
     66          1           0        8.609974   -5.506491    0.654760
     67          1           0        8.556282   -6.242980   -0.862367
     68          1           0        5.382043   -6.751241   -2.294820
     69          1           0        5.397707   -5.572932   -3.602180
     70          1           0        3.860702   -5.728161   -1.120204
     71          1           0        3.252621   -5.342816   -2.765937
     72          1           0        4.106838   -4.103719   -1.741407
     73          1           0        6.147830   -0.486498   -6.286919
     74          1           0        6.590299   -2.123495   -5.683986
     75          1           0        7.872660   -0.847389   -5.796531
     76          1           0        7.849519    3.427941   -2.987530
     77          1           0        5.846130    7.165958   -3.783243
     78          1           0        5.517566    6.928120   -1.962471
     79          1           0        4.502661    6.294387   -3.271700
     80         12           0       -6.882504   -0.362070   -0.090528
     81          6           0       -4.470983    1.923263    1.266261
     82          6           0       -9.257661    2.003350    0.540366
     83          6           0       -9.085777   -2.512261   -0.858426
     84          6           0       -4.563421   -2.908342    0.442431
     85          7           0       -6.756916    1.662478    0.791338
     86          6           0       -5.778615    2.449331    1.213415
     87          6           0       -6.214069    3.906359    1.524866
     88          6           0       -7.771188    3.636228    1.809955
     89          6           0       -7.958391    2.374960    0.969230
     90          6           0       -8.066556    3.291715    3.260270
     91          6           0       -6.012401    4.865363    0.299450
     92          6           0       -6.124238    6.356521    0.624578
     93          1           0       -5.263895    7.292102   -0.094419
     94          7           0       -8.783750   -0.124348   -0.607571
     95          6           0       -9.592078    0.906890   -0.284417
     96          6           0      -10.897712    0.599258   -0.888438
     97          6           0      -10.840210   -0.775705   -1.454901
     98          6           0       -9.546089   -1.208051   -0.966627
     99          6           0      -12.016945    1.597137   -0.959182
    100          6           0      -11.797728   -1.574499   -2.286348
    101          8           0      -11.645062   -2.834440   -2.465435
    102          6           0      -12.970209   -0.856695   -2.807430
    103          7           0       -6.918144   -2.438783    0.000805
    104          6           0       -7.980309   -3.132254   -0.445072
    105          6           0       -7.670026   -4.607396   -0.534904
    106          6           0       -6.095201   -4.731135   -0.285508
    107          6           0       -5.768114   -3.250217    0.006549
    108          6           0       -8.413688   -5.505037    0.453839
    109          6           0       -5.266679   -5.470863   -1.371333
    110          6           0       -5.257384   -4.665904   -2.650925
    111          7           0       -4.816695   -0.479237    0.531359
    112          6           0       -4.045706   -1.648215    0.713451
    113          6           0       -2.736814   -1.226762    1.253454
    114          6           0       -2.846208    0.167080    1.370639
    115          6           0       -4.139544    0.582720    0.953488
    116          6           0       -1.665583   -2.093846    1.609471
    117          6           0       -2.165351    1.380204    1.762401
    118          8           0       -1.019856    1.658398    2.114809
    119          6           0       -3.230663    2.557794    1.831584
    120          6           0       -2.658353    3.745050    1.106732
    121          8           0       -2.452305    3.698265   -0.118805
    122          8           0       -2.652683    4.805868    1.934391
    123          6           0       -2.103974    6.010977    1.257297
    124          1           0      -10.108613    2.580621    0.903022
    125          1           0       -9.770109   -3.285006   -1.216256
    126          1           0       -3.751890   -3.632195    0.543069
    127          1           0       -5.746345    4.343236    2.399020
    128          1           0       -8.388834    4.444640    1.427382
    129          1           0       -7.162151    3.169192    3.837493
    130          1           0       -8.627228    2.366495    3.234535
    131          1           0       -8.736729    4.038209    3.696093
    132          1           0       -6.864746    4.757570   -0.383666
    133          1           0       -5.076211    4.670731   -0.186652
    134          1           0       -6.082146    6.547368    1.703809
    135          1           0       -7.117970    6.702385    0.329801
    136          1           0      -11.824916    2.463365   -0.314072
    137          1           0      -12.898904    1.120204   -0.518123
    138          1           0      -12.251380    1.895227   -1.983309
    139          1           0      -13.537169   -0.440929   -1.977873
    140          1           0      -13.488496   -1.571152   -3.449927
    141          1           0      -12.622799   -0.008403   -3.407685
    142          1           0       -7.900964   -4.991822   -1.520802
    143          1           0       -5.871105   -5.289897    0.635037
    144          1           0       -8.998449   -6.305312   -0.037763
    145          1           0       -9.056794   -4.883208    1.062337
    146          1           0       -7.786254   -5.988763    1.200520
    147          1           0       -5.729482   -6.431081   -1.612063
    148          1           0       -4.243798   -5.672586   -1.071288
    149          1           0       -6.201375   -4.947958   -3.126753
    150          1           0       -4.405769   -4.940541   -3.270085
    151          1           0       -5.302727   -3.591123   -2.440100
    152          1           0       -0.758896   -1.639527    1.232610
    153          1           0       -1.810000   -3.092257    1.201946
    154          1           0       -1.755795   -2.078156    2.698912
    155          1           0       -3.415072    2.771253    2.885152
    156          1           0       -1.276266    6.374820    1.873892
    157          1           0       -2.964200    6.692029    1.116144
    158          1           0       -1.610237    5.868596    0.303146
 ---------------------------------------------------------------------

 SCF Done:  E(RCAM-B3LYP) =  -4069.81129701     A.U. after   19 cycles

 Excitation energies and oscillator strengths:

 Excited State   1:      Singlet-A      1.6719 eV  741.59 nm  f=0.3147  <S**2>=0.000
     309 -> 315        0.14712
     311 -> 313        0.58474
     312 -> 314        0.35923
 This state for optimization and/or second-order correction.
 Total Energy, E(TD-HF/TD-DFT) =  -4069.74985726
 Copying the excited state density for this state as the 1-particle RhoCI density.

 Excited State   2:      Singlet-A      1.6830 eV  736.67 nm  f=0.4695  <S**2>=0.000
     310 -> 316        0.14986
     311 -> 313       -0.35886
     312 -> 314        0.58408

 Excited State   3:      Singlet-A      2.1840 eV  567.70 nm  f=0.0207  <S**2>=0.000
     309 -> 313        0.57529
     310 -> 314       -0.28833
     311 -> 315       -0.24292
     312 -> 316        0.12102

 Excited State   4:      Singlet-A      2.1923 eV  565.54 nm  f=0.1653  <S**2>=0.000
     309 -> 313        0.28639
     310 -> 314        0.57268
     311 -> 315       -0.12428
     312 -> 316       -0.24891

 Excited State   5:      Singlet-A      2.5887 eV  478.95 nm  f=0.0000  <S**2>=0.000
     312 -> 313        0.70648

 The electronic state is 1-A.
 Alpha  occ. eigenvalues --  -46.87568 -46.87405 -19.26235 -19.25895 -19.19008
 Alpha  occ. eigenvalues --  -19.18632 -19.18584 -19.18491 -19.17959 -19.17806
 Alpha  occ. eigenvalues --  -14.42410 -14.42064 -14.41270 -14.41089 -14.39262
 Alpha  occ. eigenvalues --  -14.39017 -14.38504 -14.38202 -10.38950 -10.38654
 Alpha  occ. eigenvalues --  -10.35311 -10.35126 -10.34135 -10.34023 -10.31659
 Alpha  occ. eigenvalues --  -10.31328 -10.31220 -10.31024 -10.30939 -10.30519
 Alpha  occ. eigenvalues --  -10.30305 -10.30267 -10.30191 -10.30144 -10.30056
 Alpha  occ. eigenvalues --  -10.29865 -10.29804 -10.29581 -10.29349 -10.29309
 Alpha  occ. eigenvalues --  -10.29270 -10.28887 -10.28642 -10.28578 -10.28350
 Alpha  occ. eigenvalues --  -10.28314 -10.28149 -10.28069 -10.27981 -10.27908
 Alpha  occ. eigenvalues --  -10.27741 -10.27584 -10.27435 -10.27426 -10.27393
 Alpha  occ. eigenvalues --  -10.27389 -10.27376 -10.27353 -10.27295 -10.27227
 Alpha  occ. eigenvalues --  -10.27219 -10.27178 -10.27114 -10.27026 -10.26957
 Alpha  occ. eigenvalues --  -10.26781 -10.26601 -10.26341 -10.26229 -10.26098
 Alpha  occ. eigenvalues --  -10.26050 -10.25975 -10.25954 -10.25907 -10.25843
 Alpha  occ. eigenvalues --  -10.25747 -10.25669 -10.25526 -10.25329 -10.25195
 Alpha  occ. eigenvalues --  -10.24779 -10.24633 -10.24601 -10.24470 -10.24464
 Alpha  occ. eigenvalues --  -10.24435  -3.16318  -3.16145  -1.91200  -1.91026
 Alpha  occ. eigenvalues --   -1.90789  -1.90626  -1.90614  -1.90456  -1.16522
 Alpha  occ. eigenvalues --   -1.16236  -1.08561  -1.08262  -1.06896  -1.06885
 Alpha  occ. eigenvalues --   -1.06801  -1.06215  -1.04407  -1.04196  -1.03574
 Alpha  occ. eigenvalues --   -1.03397  -1.02948  -1.02861  -1.02042  -1.02020
 Alpha  occ. eigenvalues --   -0.91894  -0.91597  -0.89405  -0.89206  -0.89074
 Alpha  occ. eigenvalues --   -0.88801  -0.88135  -0.87979  -0.87698  -0.87597
 Alpha  occ. eigenvalues --   -0.87516  -0.87298  -0.87036  -0.86916  -0.84917
 Alpha  occ. eigenvalues --   -0.84604  -0.83788  -0.83646  -0.82850  -0.82643
 Alpha  occ. eigenvalues --   -0.82570  -0.82289  -0.81501  -0.81223  -0.80352
 Alpha  occ. eigenvalues --   -0.80234  -0.78548  -0.78438  -0.77061  -0.76880
 Alpha  occ. eigenvalues --   -0.76813  -0.76579  -0.75755  -0.75564  -0.74720
 Alpha  occ. eigenvalues --   -0.74591  -0.72609  -0.72421  -0.71498  -0.71326
 Alpha  occ. eigenvalues --   -0.69670  -0.69631  -0.68744  -0.68508  -0.67512
 Alpha  occ. eigenvalues --   -0.67284  -0.67116  -0.66830  -0.65187  -0.64904
 Alpha  occ. eigenvalues --   -0.64679  -0.64563  -0.64495  -0.64269  -0.64116
 Alpha  occ. eigenvalues --   -0.63946  -0.62178  -0.61933  -0.60254  -0.60097
 Alpha  occ. eigenvalues --   -0.59715  -0.59424  -0.58903  -0.58632  -0.58334
 Alpha  occ. eigenvalues --   -0.58148  -0.57450  -0.57209  -0.57147  -0.56968
 Alpha  occ. eigenvalues --   -0.56113  -0.55955  -0.55790  -0.55605  -0.55363
 Alpha  occ. eigenvalues --   -0.55176  -0.55155  -0.55021  -0.54390  -0.54187
 Alpha  occ. eigenvalues --   -0.53832  -0.53507  -0.53140  -0.53053  -0.52956
 Alpha  occ. eigenvalues --   -0.52856  -0.52802  -0.52589  -0.52551  -0.52403
 Alpha  occ. eigenvalues --   -0.52310  -0.52159  -0.51784  -0.51575  -0.51573
 Alpha  occ. eigenvalues --   -0.51235  -0.51110  -0.50847  -0.50396  -0.50231
 Alpha  occ. eigenvalues --   -0.49900  -0.49785  -0.49737  -0.49567  -0.49403
 Alpha  occ. eigenvalues --   -0.49155  -0.49112  -0.49024  -0.48854  -0.48739
 Alpha  occ. eigenvalues --   -0.48465  -0.48290  -0.48255  -0.48243  -0.48142
 Alpha  occ. eigenvalues --   -0.48102  -0.47510  -0.47348  -0.47033  -0.46954
 Alpha  occ. eigenvalues --   -0.46621  -0.46472  -0.46456  -0.46179  -0.46175
 Alpha  occ. eigenvalues --   -0.46010  -0.45991  -0.45819  -0.45727  -0.45472
 Alpha  occ. eigenvalues --   -0.45125  -0.44899  -0.44426  -0.44392  -0.44224
 Alpha  occ. eigenvalues --   -0.44172  -0.44046  -0.43989  -0.43853  -0.43820
 Alpha  occ. eigenvalues --   -0.43733  -0.43664  -0.43458  -0.43299  -0.43140
 Alpha  occ. eigenvalues --   -0.43032  -0.42834  -0.42800  -0.42679  -0.42467
 Alpha  occ. eigenvalues --   -0.42384  -0.42301  -0.41876  -0.41684  -0.41580
 Alpha  occ. eigenvalues --   -0.41376  -0.41349  -0.41166  -0.40908  -0.40794
 Alpha  occ. eigenvalues --   -0.40641  -0.40617  -0.40525  -0.40484  -0.40409
 Alpha  occ. eigenvalues --   -0.40254  -0.40146  -0.39814  -0.39337  -0.39172
 Alpha  occ. eigenvalues --   -0.38267  -0.38157  -0.37569  -0.37358  -0.37178
 Alpha  occ. eigenvalues --   -0.37112  -0.36991  -0.36872  -0.36652  -0.36339
 Alpha  occ. eigenvalues --   -0.36118  -0.35827  -0.34161  -0.33914  -0.33718
 Alpha  occ. eigenvalues --   -0.33343  -0.33081  -0.32812  -0.31191  -0.31022
 Alpha  occ. eigenvalues --   -0.30883  -0.30669  -0.29863  -0.29664  -0.29238
 Alpha  occ. eigenvalues --   -0.29116  -0.29078  -0.28949  -0.23945  -0.23704
 Alpha  occ. eigenvalues --   -0.21028  -0.20760
 Alpha virt. eigenvalues --   -0.08702  -0.08406  -0.01595  -0.01386   0.00057
 Alpha virt. eigenvalues --    0.00304   0.02300   0.02558   0.03347   0.03656
 Alpha virt. eigenvalues --    0.04812   0.05090   0.05296   0.05513   0.06262

 Mulliken charges:
               1
     1  Mg   0.842195
     2  C   -0.001481
     3  C   -0.092867
     4  C   -0.046532
     5  C   -0.064597
     6  N   -0.256655
     7  C   -0.051549
     8  C   -0.014645
     9  C   -0.087395
    10  C    0.047411
    11  C    0.105024
    12  C    0.053226
    13  C   -0.070874
    14  H    0.034520
    15  N   -0.432927
    16  C    0.169793
    17  C   -0.176348
    18  C   -0.003908
    19  C    0.149126
    20  C    0.110340
    21  C    0.012332
    22  O   -0.250897
    23  C    0.062151
    24  N   -0.341158
    25  C    0.041214
    26  C   -0.027923
    27  C   -0.023816
    28  C    0.074856
    29  C    0.076469
    30  C    0.035404
    31  C   -0.004505
    32  N   -0.310486
    33  C    0.080755
    34  C   -0.169888
    35  C    0.008150
    36  C    0.083907
    37  C    0.127283
    38  C    0.046600
    39  O   -0.189105
    40  C   -0.005732
    41  C    0.212139
    42  O   -0.254191
    43  O   -0.305438
    44  C    0.157920
    45  H   -0.018276
    46  H   -0.017870
    47  H   -0.042408
    48  H    0.000027
    49  H   -0.003925
    50  H    0.025010
    51  H    0.016001
    52  H    0.015866
    53  H    0.014331
    54  H    0.046389
    55  H    0.016503
    56  H    0.017745
    57  H    0.005756
    58  H    0.025657
    59  H    0.040793
    60  H    0.036853
    61  H    0.034444
    62  H    0.032964
    63  H    0.015666
    64  H    0.008866
    65  H    0.022349
    66  H    0.012506
    67  H    0.004194
    68  H    0.005292
    69  H    0.004470
    70  H    0.007663
    71  H    0.017004
    72  H    0.030662
    73  H    0.047554
    74  H    0.008479
    75  H    0.045252
    76  H    0.034265
    77  H    0.041737
    78  H    0.045817
    79  H    0.054446
    80  Mg   0.838283
    81  C   -0.016464
    82  C   -0.087854
    83  C   -0.045537
    84  C   -0.064943
    85  N   -0.254511
    86  C   -0.049885
    87  C   -0.015058
    88  C   -0.090505
    89  C    0.045759
    90  C    0.114496
    91  C    0.062504
    92  C   -0.077800
    93  H    0.035121
    94  N   -0.423416
    95  C    0.162946
    96  C   -0.174783
    97  C   -0.007870
    98  C    0.152091
    99  C    0.099466
   100  C    0.015552
   101  O   -0.253326
   102  C    0.061192
   103  N   -0.350089
   104  C    0.037463
   105  C   -0.019752
   106  C   -0.034858
   107  C    0.089005
   108  C    0.073736
   109  C    0.034711
   110  C   -0.007636
   111  N   -0.324264
   112  C    0.078724
   113  C   -0.162528
   114  C    0.002250
   115  C    0.096745
   116  C    0.131394
   117  C    0.043389
   118  O   -0.188226
   119  C    0.000488
   120  C    0.211262
   121  O   -0.248728
   122  O   -0.306492
   123  C    0.151845
   124  H   -0.019960
   125  H   -0.015725
   126  H   -0.040261
   127  H   -0.001104
   128  H   -0.004420
   129  H    0.022065
   130  H    0.014350
   131  H    0.015945
   132  H    0.014076
   133  H    0.038465
   134  H    0.020207
   135  H    0.019434
   136  H    0.008591
   137  H    0.025869
   138  H    0.039771
   139  H    0.038085
   140  H    0.036258
   141  H    0.033998
   142  H    0.014381
   143  H    0.012337
   144  H    0.024981
   145  H    0.011468
   146  H    0.005537
   147  H    0.006002
   148  H    0.003752
   149  H    0.010793
   150  H    0.017990
   151  H    0.030530
   152  H    0.046474
   153  H    0.009082
   154  H    0.046212
   155  H    0.033983
   156  H    0.042351
   157  H    0.049002
   158  H    0.055602
 Sum of Mulliken charges =  -0.00000

 Dipole moment (field-independent basis, Debye):
    X=             -2.0538    Y=              2.4757    Z=              5.2501  Tot=              6.1572
 Quadrupole moment (field-independent basis, Debye-Ang):
   XX=           -456.2717   YY=           -470.4596   ZZ=           -519.2705
   XY=            -29.8332   XZ=             11.6303   YZ=             33.9955

 Normal termination of Gaussian 16 at Sat Sep 11 10:17:43 2021.
