 Gaussian 16, Revision A.03,
 Gaussian 16:  ES64L-G16RevA.03 25-Dec-2016

 -----------------------------------
 #p cam-b3lyp/Def2SVP td=(nstates=5)
 -----------------------------------

 --------------------------------
 TDDFT excited states in gaussian
 --------------------------------
 Symbolic Z-matrix:
 Charge =  0 Multiplicity = 1

                         Standard orientation:
 ---------------------------------------------------------------------
 Center     Atomic      Atomic             Coordinates (Angstroms)
 Number     Number       Type             X           Y           Z
 ---------------------------------------------------------------------
      1         12           0        4.298789   -0.609048    0.442366
      2          6           0        4.790994    2.887099   -0.146617
      3          6           0        5.162272   -0.031244    3.692536
      4          6           0        4.313066   -3.749446    0.883178
      5          6           0        4.587606   -1.078886   -2.998782
      6          7           0        4.880296    1.237305    1.516365
      7          6           0        4.972228    2.522529    1.189380
      8          6           0        5.204983    3.456585    2.414426
      9          6           0        5.857784    2.401091    3.415317
     10          6           0        5.236607    1.129005    2.865899
     11          6           0        7.374636    2.300610    3.290561
     12          6           0        3.865949    4.034332    2.984450
     13          6           0        4.022320    5.201117    3.963999
     14          1           0        3.027766    6.263227    3.952485
     15          7           0        4.203353   -1.669666    2.106347
     16          6           0        4.582610   -1.270377    3.344094
     17          6           0        4.314727   -2.414786    4.241450
     18          6           0        3.926664   -3.576397    3.394006
     19          6           0        4.160562   -3.045499    2.075364
     20          6           0        4.388880   -2.324379    5.734795
     21          6           0        3.434670   -4.950851    3.721041
     22          8           0        3.377752   -5.879465    2.844109
     23          6           0        3.100199   -5.210183    5.133102
     24          7           0        4.649125   -2.220993   -0.836905
     25          6           0        4.535393   -3.481857   -0.405314
     26          6           0        4.551187   -4.453588   -1.547868
     27          6           0        4.455201   -3.574348   -2.877333
     28          6           0        4.484909   -2.166857   -2.232075
     29          6           0        5.779583   -5.370283   -1.629861
     30          6           0        3.306663   -3.910533   -3.861335
     31          6           0        1.974865   -3.568387   -3.231774
     32          7           0        4.452896    0.668406   -1.305607
     33          6           0        4.586277    0.258751   -2.640173
     34          6           0        4.762751    1.477779   -3.450664
     35          6           0        4.736193    2.517558   -2.523302
     36          6           0        4.580941    1.980207   -1.213553
     37          6           0        4.978237    1.519917   -4.856447
     38          6           0        4.827555    3.955886   -2.331674
     39          8           0        4.869529    4.930067   -3.084470
     40          6           0        4.988935    4.244593   -0.773973
     41          6           0        4.018390    5.335258   -0.410930
     42          8           0        2.787081    5.137824   -0.458495
     43          8           0        4.684424    6.351770    0.157968
     44          6           0        3.775847    7.455264    0.568995
     45          1           0        5.641907   -0.012309    4.673113
     46          1           0        4.213035   -4.832726    0.977721
     47          1           0        4.599181   -1.141657   -4.088451
     48          1           0        5.899163    4.277663    2.234514
     49          1           0        5.538603    2.564829    4.444412
     50          1           0        7.743831    2.878278    2.443262
     51          1           0        7.585460    1.240379    3.149287
     52          1           0        7.859630    2.580490    4.226096
     53          1           0        3.408946    3.297521    3.644994
     54          1           0        3.197890    4.330322    2.174874
     55          1           0        5.028528    5.619636    3.927995
     56          1           0        3.927178    4.811291    4.977500
     57          1           0        4.858849   -1.396006    6.056972
     58          1           0        5.072952   -3.104826    6.067449
     59          1           0        3.414723   -2.465191    6.203326
     60          1           0        3.981968   -5.035022    5.749829
     61          1           0        2.681692   -6.215565    5.163246
     62          1           0        2.350991   -4.487196    5.457025
     63          1           0        3.695258   -5.125646   -1.501507
     64          1           0        5.357128   -3.651830   -3.484949
     65          1           0        5.534232   -6.432588   -1.625868
     66          1           0        6.443314   -5.119109   -0.803022
     67          1           0        6.426270   -5.192244   -2.488647
     68          1           0        3.293883   -4.978021   -4.078712
     69          1           0        3.383770   -3.379732   -4.810311
     70          1           0        1.756255   -4.450034   -2.630326
     71          1           0        1.216320   -3.423080   -4.001649
     72          1           0        2.062512   -2.722312   -2.549894
     73          1           0        4.348461    2.323698   -5.237614
     74          1           0        4.730537    0.567092   -5.323748
     75          1           0        6.045786    1.736766   -4.890683
     76          1           0        6.023473    4.548246   -0.616979
     77          1           0        4.138233    8.364780    0.089735
     78          1           0        3.739625    7.437323    1.658386
     79          1           0        2.757272    7.410489    0.181906
     80         12           0       -4.658158    0.098964    0.276803
     81          6           0       -3.645765   -0.531128   -3.108029
     82          6           0       -4.631492   -3.278109    0.755656
     83          6           0       -5.979283    0.591496    3.119239
     84          6           0       -5.695832    3.257566   -0.768249
     85          7           0       -4.182187   -1.583795   -1.077463
     86          6           0       -3.749968   -1.699081   -2.324152
     87          6           0       -3.333688   -3.138357   -2.730067
     88          6           0       -4.216890   -3.953521   -1.665011
     89          6           0       -4.325972   -2.890775   -0.573524
     90          6           0       -5.616860   -4.272520   -2.162675
     91          6           0       -1.800122   -3.397847   -2.523043
     92          6           0       -1.268341   -4.671277   -3.184368
     93          1           0        0.082088   -4.655271   -3.739866
     94          7           0       -4.761160   -1.083411    1.867382
     95          6           0       -4.711148   -2.431937    1.883478
     96          6           0       -4.849247   -2.822836    3.294965
     97          6           0       -5.150071   -1.602810    4.092301
     98          6           0       -5.333078   -0.632924    3.031211
     99          6           0       -4.618325   -4.225545    3.777160
    100          6           0       -5.267809   -1.353454    5.565448
    101          8           0       -5.771243   -0.268711    6.026642
    102          6           0       -4.862655   -2.454723    6.451207
    103          7           0       -5.879793    1.607387    1.021523
    104          6           0       -6.270309    1.608736    2.308156
    105          6           0       -6.908095    2.925138    2.683259
    106          6           0       -6.645357    3.898910    1.442165
    107          6           0       -5.948304    2.906938    0.485333
    108          6           0       -8.406016    2.876909    2.983751
    109          6           0       -5.943404    5.251074    1.744817
    110          6           0       -4.516582    5.005816    2.180041
    111          7           0       -4.514917    1.261470   -1.538714
    112          6           0       -5.040624    2.551669   -1.769143
    113          6           0       -4.789845    2.876915   -3.188217
    114          6           0       -4.151085    1.735020   -3.694717
    115          6           0       -4.031583    0.758560   -2.669172
    116          6           0       -5.183831    4.074286   -3.849428
    117          6           0       -3.560255    1.129487   -4.866448
    118          8           0       -3.298304    1.515066   -6.005067
    119          6           0       -3.320207   -0.413751   -4.571200
    120          6           0       -1.922659   -0.758296   -5.007842
    121          8           0       -0.939541   -0.261967   -4.430140
    122          8           0       -1.973735   -1.776815   -5.885548
    123          6           0       -0.610860   -2.162092   -6.339356
    124          1           0       -4.875057   -4.323267    0.948507
    125          1           0       -6.355626    0.855851    4.110182
    126          1           0       -5.901315    4.261307   -1.146347
    127          1           0       -3.609707   -3.423826   -3.738078
    128          1           0       -3.684371   -4.826116   -1.295726
    129          1           0       -5.827269   -3.794114   -3.107658
    130          1           0       -6.290743   -3.910750   -1.397130
    131          1           0       -5.763785   -5.355495   -2.206262
    132          1           0       -1.617598   -3.643283   -1.468916
    133          1           0       -1.223562   -2.553856   -2.848441
    134          1           0       -1.977864   -5.085588   -3.910909
    135          1           0       -1.181718   -5.448465   -2.421155
    136          1           0       -4.574337   -4.935784    2.942278
    137          1           0       -5.510909   -4.521584    4.338867
    138          1           0       -3.746511   -4.308490    4.429633
    139          1           0       -5.459016   -3.336088    6.227598
    140          1           0       -4.933503   -2.055601    7.464891
    141          1           0       -3.821290   -2.715333    6.231541
    142          1           0       -6.439034    3.344847    3.564693
    143          1           0       -7.584159    4.199296    0.954068
    144          1           0       -8.661792    3.258707    3.990175
    145          1           0       -8.744897    1.856112    2.866852
    146          1           0       -9.036517    3.412151    2.275815
    147          1           0       -6.439060    5.757185    2.576875
    148          1           0       -5.945292    5.936455    0.903843
    149          1           0       -4.619146    4.778595    3.245386
    150          1           0       -3.909856    5.895303    2.022811
    151          1           0       -4.103546    4.115709    1.691420
    152          1           0       -4.344735    4.384517   -4.457848
    153          1           0       -5.466906    4.846878   -3.137574
    154          1           0       -6.041174    3.708533   -4.420782
    155          1           0       -4.072704   -0.974530   -5.126925
    156          1           0       -0.609979   -2.104955   -7.432257
    157          1           0       -0.413931   -3.152011   -5.886556
    158          1           0        0.206894   -1.495328   -6.092067
 ---------------------------------------------------------------------

 SCF Done:  E(RCAM-B3LYP) =  -4069.80283586     A.U. after   19 cycles

 Excitation energies and oscillator strengths:

 Excited State   1:      Singlet-A      1.6456 eV  753.42 nm  f=0.0055  <S**2>=0.000
     309 -> 315       -0.11175
     310 -> 316        0.12202
     311 -> 313       -0.46318
     312 -> 314        0.50793
 This state for optimization and/or second-order correction.
 Total Energy, E(TD-HF/TD-DFT) =  -4069.74236013
 Copying the excited state density for this state as the 1-particle RhoCI density.

 Excited State   2:      Singlet-A      1.7034 eV  727.86 nm  f=0.6950  <S**2>=0.000
     309 -> 315        0.13338
     310 -> 316        0.12099
     311 -> 313        0.50543
     312 -> 314        0.46115

 Excited State   3:      Singlet-A      2.1802 eV  568.69 nm  f=0.0244  <S**2>=0.000
     309 -> 313        0.35326
     310 -> 314        0.53962
     311 -> 315       -0.14623
     312 -> 316       -0.22351

 Excited State   4:      Singlet-A      2.1938 eV  565.15 nm  f=0.1559  <S**2>=0.000
     309 -> 313        0.53456
     310 -> 314       -0.34960
     311 -> 315       -0.23540
     312 -> 316        0.15317

 Excited State   5:      Singlet-A      2.4475 eV  506.57 nm  f=0.0000  <S**2>=0.000
     312 -> 313        0.70674

 The electronic state is 1-A.
 Alpha  occ. eigenvalues --  -46.87652 -46.87430 -19.26358 -19.26082 -19.19081
 Alpha  occ. eigenvalues --  -19.18788 -19.18787 -19.18577 -19.17963 -19.17843
 Alpha  occ. eigenvalues --  -14.42309 -14.42251 -14.41349 -14.41141 -14.39274
 Alpha  occ. eigenvalues --  -14.39135 -14.38407 -14.38363 -10.39000 -10.38856
 Alpha  occ. eigenvalues --  -10.35428 -10.35260 -10.34182 -10.34024 -10.31963
 Alpha  occ. eigenvalues --  -10.31501 -10.31235 -10.31049 -10.30788 -10.30785
 Alpha  occ. eigenvalues --  -10.30397 -10.30366 -10.30176 -10.30155 -10.30120
 Alpha  occ. eigenvalues --  -10.29941 -10.29815 -10.29673 -10.29481 -10.29226
 Alpha  occ. eigenvalues --  -10.29180 -10.29129 -10.28607 -10.28394 -10.28393
 Alpha  occ. eigenvalues --  -10.28213 -10.28189 -10.27974 -10.27837 -10.27782
 Alpha  occ. eigenvalues --  -10.27631 -10.27593 -10.27587 -10.27507 -10.27456
 Alpha  occ. eigenvalues --  -10.27444 -10.27427 -10.27397 -10.27329 -10.27285
 Alpha  occ. eigenvalues --  -10.27262 -10.27260 -10.27258 -10.27197 -10.26972
 Alpha  occ. eigenvalues --  -10.26883 -10.26550 -10.26457 -10.26436 -10.26349
 Alpha  occ. eigenvalues --  -10.26273 -10.26106 -10.25940 -10.25910 -10.25774
 Alpha  occ. eigenvalues --  -10.25711 -10.25587 -10.25578 -10.25476 -10.25249
 Alpha  occ. eigenvalues --  -10.24968 -10.24688 -10.24648 -10.24647 -10.24503
 Alpha  occ. eigenvalues --  -10.24480  -3.16393  -3.16180  -1.91274  -1.91062
 Alpha  occ. eigenvalues --   -1.90863  -1.90703  -1.90651  -1.90488  -1.16632
 Alpha  occ. eigenvalues --   -1.16426  -1.08458  -1.08411  -1.07199  -1.06866
 Alpha  occ. eigenvalues --   -1.06835  -1.06414  -1.04440  -1.04254  -1.03653
 Alpha  occ. eigenvalues --   -1.03437  -1.03094  -1.02819  -1.02274  -1.01886
 Alpha  occ. eigenvalues --   -0.91813  -0.91777  -0.89557  -0.89288  -0.89047
 Alpha  occ. eigenvalues --   -0.88829  -0.88299  -0.88018  -0.87670  -0.87546
 Alpha  occ. eigenvalues --   -0.87544  -0.87419  -0.87182  -0.86941  -0.84864
 Alpha  occ. eigenvalues --   -0.84695  -0.84039  -0.83695  -0.82968  -0.82788
 Alpha  occ. eigenvalues --   -0.82559  -0.82419  -0.81484  -0.81430  -0.80476
 Alpha  occ. eigenvalues --   -0.80267  -0.78676  -0.78430  -0.77234  -0.76901
 Alpha  occ. eigenvalues --   -0.76845  -0.76619  -0.75791  -0.75637  -0.74895
 Alpha  occ. eigenvalues --   -0.74628  -0.72658  -0.72467  -0.71566  -0.71373
 Alpha  occ. eigenvalues --   -0.70137  -0.69554  -0.68762  -0.68539  -0.67524
 Alpha  occ. eigenvalues --   -0.67395  -0.67100  -0.66839  -0.65170  -0.65010
 Alpha  occ. eigenvalues --   -0.64766  -0.64590  -0.64551  -0.64439  -0.64244
 Alpha  occ. eigenvalues --   -0.64006  -0.62188  -0.62157  -0.60372  -0.60153
 Alpha  occ. eigenvalues --   -0.59661  -0.59518  -0.58879  -0.58781  -0.58390
 Alpha  occ. eigenvalues --   -0.58234  -0.57415  -0.57401  -0.57232  -0.57049
 Alpha  occ. eigenvalues --   -0.56180  -0.56066  -0.55878  -0.55821  -0.55531
 Alpha  occ. eigenvalues --   -0.55381  -0.55277  -0.55082  -0.54544  -0.54349
 Alpha  occ. eigenvalues --   -0.53757  -0.53610  -0.53257  -0.53126  -0.53050
 Alpha  occ. eigenvalues --   -0.52959  -0.52860  -0.52725  -0.52689  -0.52535
 Alpha  occ. eigenvalues --   -0.52465  -0.52199  -0.51702  -0.51644  -0.51486
 Alpha  occ. eigenvalues --   -0.51439  -0.51188  -0.51003  -0.50578  -0.50331
 Alpha  occ. eigenvalues --   -0.50277  -0.49848  -0.49719  -0.49664  -0.49420
 Alpha  occ. eigenvalues --   -0.49257  -0.49081  -0.49007  -0.48966  -0.48823
 Alpha  occ. eigenvalues --   -0.48533  -0.48410  -0.48371  -0.48310  -0.48200
 Alpha  occ. eigenvalues --   -0.48174  -0.47626  -0.47402  -0.47207  -0.46958
 Alpha  occ. eigenvalues --   -0.46775  -0.46504  -0.46461  -0.46365  -0.46186
 Alpha  occ. eigenvalues --   -0.46085  -0.46047  -0.45903  -0.45790  -0.45589
 Alpha  occ. eigenvalues --   -0.45333  -0.45002  -0.44574  -0.44433  -0.44306
 Alpha  occ. eigenvalues --   -0.44205  -0.44099  -0.43978  -0.43920  -0.43874
 Alpha  occ. eigenvalues --   -0.43816  -0.43724  -0.43452  -0.43367  -0.43296
 Alpha  occ. eigenvalues --   -0.43132  -0.42960  -0.42845  -0.42768  -0.42692
 Alpha  occ. eigenvalues --   -0.42504  -0.42341  -0.41994  -0.41692  -0.41595
 Alpha  occ. eigenvalues --   -0.41454  -0.41426  -0.41250  -0.41035  -0.40889
 Alpha  occ. eigenvalues --   -0.40806  -0.40755  -0.40671  -0.40536  -0.40518
 Alpha  occ. eigenvalues --   -0.40297  -0.40092  -0.39829  -0.39411  -0.39186
 Alpha  occ. eigenvalues --   -0.38483  -0.38047  -0.37626  -0.37339  -0.37132
 Alpha  occ. eigenvalues --   -0.37114  -0.37010  -0.36748  -0.36676  -0.36198
 Alpha  occ. eigenvalues --   -0.36057  -0.35401  -0.34141  -0.34018  -0.33745
 Alpha  occ. eigenvalues --   -0.33553  -0.33037  -0.32957  -0.31320  -0.31135
 Alpha  occ. eigenvalues --   -0.30911  -0.30757  -0.29818  -0.29749  -0.29325
 Alpha  occ. eigenvalues --   -0.29125  -0.29124  -0.28980  -0.23942  -0.23813
 Alpha  occ. eigenvalues --   -0.20992  -0.20888
 Alpha virt. eigenvalues --   -0.08636  -0.08575  -0.01643  -0.01468   0.00045
 Alpha virt. eigenvalues --    0.00164   0.02352   0.02424   0.02981   0.03850
 Alpha virt. eigenvalues --    0.04814   0.05069   0.05275   0.05311   0.06311

 Mulliken charges:
               1
     1  Mg   0.841233
     2  C   -0.002445
     3  C   -0.093920
     4  C   -0.046887
     5  C   -0.061703
     6  N   -0.256574
     7  C   -0.052074
     8  C   -0.014114
     9  C   -0.086944
    10  C    0.045963
    11  C    0.104916
    12  C    0.053437
    13  C   -0.071606
    14  H    0.036000
    15  N   -0.432796
    16  C    0.167813
    17  C   -0.177655
    18  C   -0.004979
    19  C    0.148346
    20  C    0.110305
    21  C    0.011062
    22  O   -0.251539
    23  C    0.062980
    24  N   -0.340792
    25  C    0.040665
    26  C   -0.028596
    27  C   -0.021728
    28  C    0.073553
    29  C    0.076612
    30  C    0.041456
    31  C   -0.023389
    32  N   -0.311746
    33  C    0.084461
    34  C   -0.164311
    35  C    0.008922
    36  C    0.085639
    37  C    0.127177
    38  C    0.048121
    39  O   -0.187222
    40  C   -0.006222
    41  C    0.212755
    42  O   -0.255138
    43  O   -0.305179
    44  C    0.157802
    45  H   -0.018051
    46  H   -0.018474
    47  H   -0.042282
    48  H    0.000899
    49  H   -0.004180
    50  H    0.025331
    51  H    0.016174
    52  H    0.016310
    53  H    0.011377
    54  H    0.044789
    55  H    0.017609
    56  H    0.017879
    57  H    0.005987
    58  H    0.026102
    59  H    0.038451
    60  H    0.037880
    61  H    0.033850
    62  H    0.030274
    63  H    0.015699
    64  H    0.009142
    65  H    0.022162
    66  H    0.013251
    67  H    0.004732
    68  H    0.002410
    69  H    0.003061
    70  H    0.019798
    71  H    0.030967
    72  H    0.040523
    73  H    0.051626
    74  H    0.008475
    75  H    0.044890
    76  H    0.034706
    77  H    0.042641
    78  H    0.045899
    79  H    0.053900
    80  Mg   0.838363
    81  C   -0.016997
    82  C   -0.087195
    83  C   -0.045922
    84  C   -0.064532
    85  N   -0.254823
    86  C   -0.049539
    87  C   -0.014313
    88  C   -0.089636
    89  C    0.045561
    90  C    0.114615
    91  C    0.066770
    92  C   -0.090756
    93  H    0.032377
    94  N   -0.423289
    95  C    0.162504
    96  C   -0.175137
    97  C   -0.008681
    98  C    0.151949
    99  C    0.099659
   100  C    0.014696
   101  O   -0.254047
   102  C    0.061772
   103  N   -0.350135
   104  C    0.037390
   105  C   -0.019550
   106  C   -0.034916
   107  C    0.089221
   108  C    0.073919
   109  C    0.034774
   110  C   -0.007518
   111  N   -0.324641
   112  C    0.079782
   113  C   -0.161120
   114  C    0.002667
   115  C    0.097719
   116  C    0.131087
   117  C    0.043780
   118  O   -0.187803
   119  C    0.000146
   120  C    0.210905
   121  O   -0.249136
   122  O   -0.304893
   123  C    0.146916
   124  H   -0.019819
   125  H   -0.016417
   126  H   -0.040263
   127  H   -0.001938
   128  H   -0.002960
   129  H    0.021746
   130  H    0.013707
   131  H    0.015968
   132  H    0.013002
   133  H    0.034241
   134  H    0.012643
   135  H    0.014863
   136  H    0.009600
   137  H    0.025369
   138  H    0.038644
   139  H    0.038471
   140  H    0.035126
   141  H    0.032431
   142  H    0.013768
   143  H    0.012023
   144  H    0.024378
   145  H    0.011450
   146  H    0.005335
   147  H    0.005230
   148  H    0.003969
   149  H    0.009455
   150  H    0.018565
   151  H    0.031930
   152  H    0.047917
   153  H    0.008752
   154  H    0.046110
   155  H    0.034719
   156  H    0.043550
   157  H    0.056566
   158  H    0.054412
 Sum of Mulliken charges =  -0.00000

 Dipole moment (field-independent basis, Debye):
    X=              1.0232    Y=             -4.0820    Z=              5.1272  Tot=              6.6331
 Quadrupole moment (field-independent basis, Debye-Ang):
   XX=           -488.9862   YY=           -491.4450   ZZ=           -510.4606
   XY=             -0.0285   XZ=             20.0879   YZ=             36.5111

 Normal termination of Gaussian 16 at Thu Sep  9 18:52:49 2021.
