 Gaussian 16, Revision A.03,
 Gaussian 16:  ES64L-G16RevA.03 25-Dec-2016

 -----------------------------------
 #p cam-b3lyp/Def2SVP td=(nstates=5)
 -----------------------------------

 --------------------------------
 TDDFT excited states in gaussian
 --------------------------------
 Symbolic Z-matrix:
 Charge =  0 Multiplicity = 1

                         Standard orientation:
 ---------------------------------------------------------------------
 Center     Atomic      Atomic             Coordinates (Angstroms)
 Number     Number       Type             X           Y           Z
 ---------------------------------------------------------------------
      1         12           0        4.124128   -0.368690    0.710910
      2          6           0        4.400002    2.695096   -1.119206
      3          6           0        4.415669    1.481874    3.562836
      4          6           0        4.339198   -3.089865    2.325088
      5          6           0        4.986975   -2.030395   -2.228460
      6          7           0        4.369570    1.805220    1.049319
      7          6           0        4.400686    2.878361    0.265373
      8          6           0        4.357777    4.221203    1.054238
      9          6           0        4.934272    3.711395    2.450572
     10          6           0        4.518371    2.253310    2.367273
     11          6           0        6.454919    3.783802    2.544864
     12          6           0        2.901413    4.776431    1.204092
     13          6           0        2.801741    6.231913    1.669915
     14          1           0        1.733651    7.065476    1.139157
     15          7           0        3.861119   -0.742448    2.632883
     16          6           0        4.006346    0.134018    3.655625
     17          6           0        3.700780   -0.623656    4.888200
     18          6           0        3.551371   -2.057823    4.515459
     19          6           0        3.942140   -2.024147    3.129262
     20          6           0        3.532376    0.020903    6.229816
     21          6           0        3.134281   -3.268538    5.288982
     22          8           0        3.295282   -4.453460    4.836639
     23          6           0        2.606596   -3.032156    6.644973
     24          7           0        4.807523   -2.273459    0.198601
     25          6           0        4.736500   -3.288636    1.066562
     26          6           0        5.014301   -4.601112    0.395614
     27          6           0        5.052229   -4.297166   -1.171527
     28          6           0        4.859527   -2.761472   -1.118797
     29          6           0        6.314604   -5.303064    0.810930
     30          6           0        4.104958   -5.128893   -2.072264
     31          6           0        2.666654   -4.767190   -1.776373
     32          7           0        4.439364    0.181482   -1.364899
     33          6           0        4.814578   -0.669005   -2.414928
     34          6           0        5.010200    0.176598   -3.606882
     35          6           0        4.749619    1.470686   -3.160476
     36          6           0        4.438180    1.438727   -1.771133
     37          6           0        5.438500   -0.273591   -4.886852
     38          6           0        4.685888    2.875857   -3.528295
     39          8           0        4.761194    3.499063   -4.588218
     40          6           0        4.576195    3.738518   -2.194274
     41          6           0        3.470685    4.739903   -2.390188
     42          8           0        2.283562    4.369805   -2.495697
     43          8           0        3.949647    5.976552   -2.185648
     44          6           0        2.896500    7.016048   -2.335598
     45          1           0        4.732588    1.927846    4.507617
     46          1           0        4.319112   -4.064347    2.817449
     47          1           0        5.174210   -2.488653   -3.201288
     48          1           0        4.998365    5.005794    0.651141
     49          1           0        4.445165    4.197332    3.294587
     50          1           0        6.901061    4.053226    1.587634
     51          1           0        6.775602    2.786662    2.847134
     52          1           0        6.761723    4.453689    3.348542
     53          1           0        2.411767    4.279632    2.041647
     54          1           0        2.345273    4.656787    0.273651
     55          1           0        3.761444    6.743050    1.588553
     56          1           0        2.583105    6.234533    2.737806
     57          1           0        3.864591    1.058250    6.220289
     58          1           0        4.220521   -0.478444    6.911592
     59          1           0        2.512679   -0.070940    6.604133
     60          1           0        3.362676   -2.521031    7.241331
     61          1           0        2.276526   -4.003081    7.012680
     62          1           0        1.756596   -2.352328    6.579532
     63          1           0        4.222641   -5.320531    0.600883
     64          1           0        6.041379   -4.467295   -1.597335
     65          1           0        6.163893   -6.311887    1.195985
     66          1           0        6.816746   -4.674836    1.546099
     67          1           0        7.069935   -5.366555    0.028076
     68          1           0        4.218156   -6.191864   -1.861968
     69          1           0        4.283636   -4.980655   -3.137323
     70          1           0        2.433268   -5.385769   -0.910508
     71          1           0        2.028225   -5.023224   -2.622580
     72          1           0        2.573496   -3.725839   -1.467513
     73          1           0        4.809362    0.236839   -5.615971
     74          1           0        5.349788   -1.356084   -4.975969
     75          1           0        6.475619    0.061398   -4.882100
     76          1           0        5.543458    4.219269   -2.051438
     77          1           0        3.249845    7.725314   -3.084145
     78          1           0        2.691996    7.396608   -1.334719
     79          1           0        1.958680    6.690485   -2.787086
     80         12           0       -3.686936   -0.938496   -0.544764
     81          6           0       -6.413639    1.275361    0.192121
     82          6           0       -1.839738    1.828408   -1.297566
     83          6           0       -1.416613   -2.871332   -1.629754
     84          6           0       -6.030053   -3.501137   -0.842087
     85          7           0       -4.174620    1.218735   -0.516852
     86          6           0       -5.223349    1.944986   -0.160382
     87          6           0       -4.958545    3.473523   -0.105618
     88          6           0       -3.718605    3.539393   -1.123989
     89          6           0       -3.182612    2.120010   -0.948632
     90          6           0       -4.139129    3.715435   -2.573650
     91          6           0       -4.549503    3.958244    1.329556
     92          6           0       -4.576759    5.475360    1.528022
     93          1           0       -4.986801    6.000049    2.827650
     94          7           0       -1.760109   -0.597562   -0.875910
     95          6           0       -1.178146    0.590315   -1.143401
     96          6           0        0.253077    0.304624   -1.328102
     97          6           0        0.442855   -1.171322   -1.310724
     98          6           0       -0.936828   -1.614280   -1.291861
     99          6           0        1.293071    1.383333   -1.418916
    100          6           0        1.663789   -2.040437   -1.323555
    101          8           0        1.590795   -3.300848   -1.544600
    102          6           0        2.956008   -1.358008   -1.162528
    103          7           0       -3.733282   -2.852201   -1.355891
    104          6           0       -2.597684   -3.485988   -1.697432
    105          6           0       -2.855373   -4.943437   -1.997148
    106          6           0       -4.366778   -5.213401   -1.549540
    107          6           0       -4.767056   -3.781023   -1.133073
    108          6           0       -2.673627   -5.365022   -3.455100
    109          6           0       -4.606182   -6.370453   -0.541270
    110          6           0       -4.004340   -6.018851    0.800200
    111          7           0       -5.806160   -1.157706   -0.185737
    112          6           0       -6.592899   -2.310542   -0.400406
    113          6           0       -7.995241   -1.938688   -0.121856
    114          6           0       -7.929397   -0.578529    0.215949
    115          6           0       -6.583839   -0.129016    0.132807
    116          6           0       -9.123504   -2.798039   -0.242898
    117          6           0       -8.693639    0.581854    0.613643
    118          8           0       -9.866438    0.784510    0.925404
    119          6           0       -7.763504    1.865109    0.493254
    120          6           0       -7.911738    2.666486    1.757511
    121          8           0       -7.523613    2.207224    2.846115
    122          8           0       -8.284467    3.920524    1.443153
    123          6           0       -8.433793    4.757119    2.663670
    124          1           0       -1.246194    2.609218   -1.773934
    125          1           0       -0.657630   -3.607534   -1.904410
    126          1           0       -6.807123   -4.268085   -0.817162
    127          1           0       -5.772272    4.088869   -0.470266
    128          1           0       -2.980195    4.268471   -0.800631
    129          1           0       -5.210260    3.648468   -2.693393
    130          1           0       -3.646902    2.922323   -3.121124
    131          1           0       -3.736739    4.651283   -2.971889
    132          1           0       -3.478988    3.768278    1.480083
    133          1           0       -5.154391    3.484939    2.078369
    134          1           0       -5.113745    5.987165    0.720154
    135          1           0       -3.554452    5.853691    1.452039
    136          1           0        0.837260    2.370060   -1.567276
    137          1           0        1.859568    1.204662   -2.339253
    138          1           0        1.982830    1.375766   -0.572254
    139          1           0        3.077975   -0.623869   -1.955381
    140          1           0        3.701783   -2.153447   -1.108063
    141          1           0        2.942877   -0.802225   -0.218305
    142          1           0       -2.198126   -5.579616   -1.417132
    143          1           0       -5.003544   -5.481322   -2.405454
    144          1           0       -1.940832   -6.183747   -3.584606
    145          1           0       -2.377767   -4.495842   -4.027400
    146          1           0       -3.584875   -5.676665   -3.962748
    147          1           0       -4.100928   -7.278353   -0.879755
    148          1           0       -5.654278   -6.616247   -0.406794
    149          1           0       -2.952320   -6.293620    0.678336
    150          1           0       -4.473769   -6.596514    1.593908
    151          1           0       -4.044213   -4.937950    0.978306
    152          1           0       -9.742181   -2.624070    0.627432
    153          1           0       -8.822798   -3.841125   -0.315797
    154          1           0       -9.551191   -2.427797   -1.178459
    155          1           0       -8.087778    2.423458   -0.385763
    156          1           0       -9.447161    5.169969    2.646007
    157          1           0       -7.595477    5.478376    2.635876
    158          1           0       -8.428270    4.251037    3.621948
 ---------------------------------------------------------------------

 SCF Done:  E(RCAM-B3LYP) =  -4069.35898574     A.U. after   24 cycles

 Excitation energies and oscillator strengths:

 Excited State   1:      Singlet-A      0.4789 eV 2588.93 nm  f=0.0025  <S**2>=0.000
     312 -> 313       -0.29380
     312 -> 314        0.50580
     312 -> 316       -0.29219
     312 -> 317        0.14888
     312 -> 318        0.17839
 This state for optimization and/or second-order correction.
 Total Energy, E(TD-HF/TD-DFT) =  -4069.34138644
 Copying the excited state density for this state as the 1-particle RhoCI density.

 Excited State   2:      Singlet-A      0.6593 eV 1880.65 nm  f=0.0131  <S**2>=0.000
     312 -> 313        0.63485
     312 -> 314        0.26882

 Excited State   3:      Singlet-A      1.4609 eV  848.71 nm  f=0.2495  <S**2>=0.000
     308 -> 315       -0.14370
     310 -> 313        0.61170
     311 -> 313        0.25999
     311 -> 314       -0.15735

 Excited State   4:      Singlet-A      1.6429 eV  754.67 nm  f=0.4284  <S**2>=0.000
     309 -> 316        0.12013
     310 -> 313        0.15775
     310 -> 314       -0.14378
     311 -> 314        0.60399
     312 -> 314       -0.14156
     312 -> 316       -0.14832

 Excited State   5:      Singlet-A      1.6579 eV  747.84 nm  f=0.0651  <S**2>=0.000
     311 -> 314        0.22880
     312 -> 314        0.38322
     312 -> 315        0.16614
     312 -> 316        0.40509
     312 -> 317       -0.15883
     312 -> 318       -0.17803
     312 -> 320        0.13086

 The electronic state is 1-A.
 Alpha  occ. eigenvalues --  -46.88051 -46.87660 -19.27221 -19.26407 -19.20210
 Alpha  occ. eigenvalues --  -19.19438 -19.19222 -19.18854 -19.18489 -19.18076
 Alpha  occ. eigenvalues --  -14.42951 -14.42509 -14.41305 -14.41071 -14.40010
 Alpha  occ. eigenvalues --  -14.39421 -14.38609 -14.37997 -10.40119 -10.39148
 Alpha  occ. eigenvalues --  -10.36066 -10.36040 -10.34785 -10.34251 -10.32515
 Alpha  occ. eigenvalues --  -10.32447 -10.31829 -10.31692 -10.31452 -10.31410
 Alpha  occ. eigenvalues --  -10.31186 -10.31003 -10.30663 -10.30508 -10.30479
 Alpha  occ. eigenvalues --  -10.30189 -10.30149 -10.29974 -10.29453 -10.29431
 Alpha  occ. eigenvalues --  -10.29408 -10.29315 -10.29240 -10.28821 -10.28817
 Alpha  occ. eigenvalues --  -10.28729 -10.28725 -10.28673 -10.28546 -10.28398
 Alpha  occ. eigenvalues --  -10.28388 -10.28296 -10.28150 -10.27999 -10.27981
 Alpha  occ. eigenvalues --  -10.27735 -10.27725 -10.27539 -10.27495 -10.27488
 Alpha  occ. eigenvalues --  -10.27468 -10.27370 -10.27262 -10.27082 -10.26845
 Alpha  occ. eigenvalues --  -10.26839 -10.26719 -10.26439 -10.26088 -10.26052
 Alpha  occ. eigenvalues --  -10.25889 -10.25882 -10.25840 -10.25808 -10.25641
 Alpha  occ. eigenvalues --  -10.25494 -10.25419 -10.25372 -10.25166 -10.24887
 Alpha  occ. eigenvalues --  -10.24790 -10.24750 -10.24665 -10.23785 -10.21541
 Alpha  occ. eigenvalues --  -10.15169  -3.17282  -3.16411  -1.92277  -1.91684
 Alpha  occ. eigenvalues --   -1.91563  -1.91293  -1.90881  -1.90719  -1.17593
 Alpha  occ. eigenvalues --   -1.16701  -1.13344  -1.09047  -1.08685  -1.07802
 Alpha  occ. eigenvalues --   -1.07728  -1.07004  -1.05704  -1.04823  -1.04495
 Alpha  occ. eigenvalues --   -1.04380  -1.03704  -1.03346  -1.03045  -1.02113
 Alpha  occ. eigenvalues --   -0.93566  -0.91996  -0.90746  -0.89928  -0.89482
 Alpha  occ. eigenvalues --   -0.89087  -0.89076  -0.88404  -0.88225  -0.88063
 Alpha  occ. eigenvalues --   -0.87787  -0.87740  -0.87416  -0.86673  -0.85822
 Alpha  occ. eigenvalues --   -0.85059  -0.84219  -0.83845  -0.83390  -0.82952
 Alpha  occ. eigenvalues --   -0.82690  -0.82476  -0.81643  -0.81450  -0.80651
 Alpha  occ. eigenvalues --   -0.80477  -0.79415  -0.78825  -0.77669  -0.77425
 Alpha  occ. eigenvalues --   -0.77094  -0.76889  -0.76385  -0.75818  -0.75117
 Alpha  occ. eigenvalues --   -0.74681  -0.73437  -0.72642  -0.72410  -0.71529
 Alpha  occ. eigenvalues --   -0.70998  -0.69707  -0.69657  -0.68781  -0.68489
 Alpha  occ. eigenvalues --   -0.67946  -0.67534  -0.66832  -0.66301  -0.65896
 Alpha  occ. eigenvalues --   -0.65387  -0.65160  -0.65074  -0.64739  -0.64363
 Alpha  occ. eigenvalues --   -0.64162  -0.63193  -0.62283  -0.61539  -0.60974
 Alpha  occ. eigenvalues --   -0.60116  -0.59773  -0.59685  -0.59426  -0.58990
 Alpha  occ. eigenvalues --   -0.58478  -0.58385  -0.58258  -0.57745  -0.57565
 Alpha  occ. eigenvalues --   -0.57067  -0.57010  -0.56697  -0.56118  -0.56049
 Alpha  occ. eigenvalues --   -0.55845  -0.55705  -0.55543  -0.55264  -0.55106
 Alpha  occ. eigenvalues --   -0.54619  -0.54489  -0.54396  -0.53893  -0.53845
 Alpha  occ. eigenvalues --   -0.53717  -0.53401  -0.53323  -0.53159  -0.52945
 Alpha  occ. eigenvalues --   -0.52659  -0.52529  -0.52337  -0.52293  -0.51877
 Alpha  occ. eigenvalues --   -0.51647  -0.51398  -0.51187  -0.51143  -0.51064
 Alpha  occ. eigenvalues --   -0.50712  -0.50451  -0.50046  -0.49854  -0.49753
 Alpha  occ. eigenvalues --   -0.49707  -0.49564  -0.49223  -0.49147  -0.49036
 Alpha  occ. eigenvalues --   -0.48959  -0.48757  -0.48714  -0.48493  -0.48443
 Alpha  occ. eigenvalues --   -0.48221  -0.47877  -0.47607  -0.47451  -0.47091
 Alpha  occ. eigenvalues --   -0.46824  -0.46683  -0.46609  -0.46517  -0.46456
 Alpha  occ. eigenvalues --   -0.46236  -0.46145  -0.46008  -0.45843  -0.45557
 Alpha  occ. eigenvalues --   -0.45276  -0.45113  -0.45021  -0.44924  -0.44676
 Alpha  occ. eigenvalues --   -0.44521  -0.44483  -0.44307  -0.44193  -0.44059
 Alpha  occ. eigenvalues --   -0.44035  -0.43993  -0.43751  -0.43636  -0.43535
 Alpha  occ. eigenvalues --   -0.43366  -0.43294  -0.43044  -0.42919  -0.42770
 Alpha  occ. eigenvalues --   -0.42663  -0.42198  -0.42094  -0.41754  -0.41632
 Alpha  occ. eigenvalues --   -0.41595  -0.41465  -0.41397  -0.41232  -0.40959
 Alpha  occ. eigenvalues --   -0.40885  -0.40827  -0.40667  -0.40465  -0.40346
 Alpha  occ. eigenvalues --   -0.40122  -0.39395  -0.38856  -0.38541  -0.38332
 Alpha  occ. eigenvalues --   -0.38158  -0.37906  -0.37647  -0.37585  -0.37311
 Alpha  occ. eigenvalues --   -0.37244  -0.37127  -0.36812  -0.36230  -0.35355
 Alpha  occ. eigenvalues --   -0.35089  -0.34733  -0.34604  -0.34223  -0.33925
 Alpha  occ. eigenvalues --   -0.33901  -0.33142  -0.32329  -0.31891  -0.30977
 Alpha  occ. eigenvalues --   -0.30402  -0.30188  -0.29980  -0.29626  -0.29391
 Alpha  occ. eigenvalues --   -0.29226  -0.28508  -0.24594  -0.24027  -0.21564
 Alpha  occ. eigenvalues --   -0.21036  -0.18070
 Alpha virt. eigenvalues --   -0.09589  -0.08873  -0.02997  -0.02122  -0.00788
 Alpha virt. eigenvalues --   -0.00588   0.01162   0.02048   0.03079   0.03821
 Alpha virt. eigenvalues --    0.04065   0.04461   0.04760   0.05104   0.05643

 Mulliken charges:
               1
     1  Mg   0.664029
     2  C   -0.004018
     3  C   -0.100750
     4  C   -0.048314
     5  C   -0.078491
     6  N   -0.251815
     7  C   -0.059642
     8  C   -0.013898
     9  C   -0.087113
    10  C    0.058260
    11  C    0.104647
    12  C    0.052273
    13  C   -0.072143
    14  H    0.034206
    15  N   -0.423340
    16  C    0.182376
    17  C   -0.176658
    18  C    0.000423
    19  C    0.158134
    20  C    0.109575
    21  C    0.015225
    22  O   -0.242024
    23  C    0.061342
    24  N   -0.360037
    25  C    0.055054
    26  C   -0.020635
    27  C    0.055037
    28  C    0.174004
    29  C    0.079530
    30  C    0.102240
    31  C   -0.137693
    32  N   -0.365388
    33  C    0.034657
    34  C   -0.138196
    35  C    0.010590
    36  C    0.048225
    37  C    0.129294
    38  C    0.036848
    39  O   -0.188770
    40  C   -0.006524
    41  C    0.220579
    42  O   -0.261476
    43  O   -0.301980
    44  C    0.156525
    45  H   -0.017028
    46  H   -0.011127
    47  H   -0.046947
    48  H    0.001350
    49  H   -0.002695
    50  H    0.027867
    51  H    0.018862
    52  H    0.018535
    53  H    0.012111
    54  H    0.039835
    55  H    0.019894
    56  H    0.019890
    57  H    0.008200
    58  H    0.030468
    59  H    0.043879
    60  H    0.037912
    61  H    0.039253
    62  H    0.033202
    63  H    0.021865
    64  H   -0.006575
    65  H    0.022450
    66  H    0.003900
    67  H    0.007002
    68  H   -0.041646
    69  H   -0.027334
    70  H   -0.032585
    71  H   -0.025361
    72  H    0.031244
    73  H    0.044419
    74  H    0.015254
    75  H    0.047033
    76  H    0.036314
    77  H    0.046215
    78  H    0.047822
    79  H    0.051084
    80  Mg   0.839129
    81  C   -0.015979
    82  C   -0.088216
    83  C   -0.055448
    84  C   -0.065781
    85  N   -0.253663
    86  C   -0.050242
    87  C   -0.015242
    88  C   -0.089216
    89  C    0.042466
    90  C    0.114129
    91  C    0.062556
    92  C   -0.077185
    93  H    0.032914
    94  N   -0.423222
    95  C    0.153162
    96  C   -0.180199
    97  C    0.041274
    98  C    0.157002
    99  C    0.117039
   100  C    0.028926
   101  O   -0.069092
   102  C    0.178398
   103  N   -0.351530
   104  C    0.035661
   105  C   -0.020310
   106  C   -0.034970
   107  C    0.090512
   108  C    0.072468
   109  C    0.034640
   110  C   -0.007910
   111  N   -0.324042
   112  C    0.078875
   113  C   -0.163677
   114  C    0.002762
   115  C    0.095640
   116  C    0.131533
   117  C    0.042232
   118  O   -0.187967
   119  C    0.000910
   120  C    0.211357
   121  O   -0.251571
   122  O   -0.305325
   123  C    0.152176
   124  H   -0.003609
   125  H   -0.012516
   126  H   -0.040535
   127  H   -0.000829
   128  H   -0.002463
   129  H    0.021097
   130  H    0.016731
   131  H    0.018076
   132  H    0.013631
   133  H    0.036724
   134  H    0.021304
   135  H    0.019059
   136  H    0.020711
   137  H    0.040682
   138  H    0.056058
   139  H    0.111990
   140  H   -0.116236
   141  H   -0.030107
   142  H    0.015654
   143  H    0.012832
   144  H    0.026528
   145  H    0.011750
   146  H    0.006270
   147  H    0.006915
   148  H    0.003542
   149  H    0.012314
   150  H    0.017984
   151  H    0.029456
   152  H    0.045682
   153  H    0.008599
   154  H    0.047030
   155  H    0.035534
   156  H    0.043981
   157  H    0.049336
   158  H    0.053118
 Sum of Mulliken charges =  -0.00000

 Dipole moment (field-independent basis, Debye):
    X=              3.0638    Y=              4.9888    Z=              3.5965  Tot=              6.8710
 Quadrupole moment (field-independent basis, Debye-Ang):
   XX=           -553.6087   YY=           -479.4401   ZZ=           -507.3048
   XY=             20.6604   XZ=             40.8938   YZ=             29.6395

 Normal termination of Gaussian 16 at Wed Sep  8 13:46:32 2021.
