 Gaussian 16, Revision A.03,
 Gaussian 16:  ES64L-G16RevA.03 25-Dec-2016

 -----------------------------------
 #p cam-b3lyp/Def2SVP td=(nstates=5)
 -----------------------------------

 --------------------------------
 TDDFT excited states in gaussian
 --------------------------------
 Symbolic Z-matrix:
 Charge =  0 Multiplicity = 1

                         Standard orientation:
 ---------------------------------------------------------------------
 Center     Atomic      Atomic             Coordinates (Angstroms)
 Number     Number       Type             X           Y           Z
 ---------------------------------------------------------------------
      1         12           0       -4.643133   -0.062461    0.302897
      2          6           0       -4.237769    3.289263    1.491946
      3          6           0       -5.595205    1.272613   -2.689461
      4          6           0       -5.442070   -2.987869   -0.624633
      5          6           0       -4.765564   -1.073058    3.635968
      6          7           0       -4.848720    2.030366   -0.388805
      7          6           0       -4.604908    3.222697    0.146055
      8          6           0       -4.702832    4.391544   -0.879412
      9          6           0       -5.665287    3.706878   -1.950352
     10          6           0       -5.325116    2.250622   -1.686674
     11          6           0       -7.147629    3.924573   -1.664391
     12          6           0       -3.313378    4.751359   -1.505255
     13          6           0       -3.262528    6.081658   -2.262271
     14          1           0       -2.045181    6.876397   -2.200598
     15          7           0       -4.934541   -0.797725   -1.507440
     16          6           0       -5.303071   -0.106383   -2.612663
     17          6           0       -5.387584   -1.099331   -3.705180
     18          6           0       -5.223295   -2.452111   -3.104273
     19          6           0       -5.219547   -2.130928   -1.699920
     20          6           0       -5.554656   -0.725221   -5.145971
     21          6           0       -5.101237   -3.818694   -3.700666
     22          8           0       -5.199450   -4.880126   -2.994768
     23          6           0       -4.950050   -3.885073   -5.165513
     24          7           0       -5.267338   -1.761193    1.343241
     25          6           0       -5.492417   -2.916037    0.707114
     26          6           0       -5.650515   -4.050851    1.675176
     27          6           0       -5.243380   -3.471115    3.106225
     28          6           0       -4.986236   -1.998995    2.700012
     29          6           0       -7.052110   -4.671360    1.755866
     30          6           0       -4.135082   -4.226657    3.881628
     31          6           0       -2.813603   -4.080143    3.160985
     32          7           0       -4.350109    0.878312    2.236838
     33          6           0       -4.472635    0.273226    3.496017
     34          6           0       -4.288617    1.333143    4.504372
     35          6           0       -4.086989    2.491701    3.756754
     36          6           0       -4.167702    2.180174    2.369409
     37          6           0       -4.377048    1.166180    5.914598
     38          6           0       -3.846632    3.924712    3.807401
     39          8           0       -3.595477    4.730685    4.704519
     40          6           0       -4.055768    4.519836    2.345239
     41          6           0       -2.884157    5.415243    2.047107
     42          8           0       -1.735895    4.944225    1.916715
     43          8           0       -3.330356    6.640142    1.729190
     44          6           0       -2.219411    7.570299    1.393387
     45          1           0       -6.131663    1.575163   -3.590913
     46          1           0       -5.611578   -4.030717   -0.900629
     47          1           0       -4.706463   -1.328402    4.695572
     48          1           0       -5.164361    5.299549   -0.490898
     49          1           0       -5.397796    3.979696   -2.971009
     50          1           0       -7.300550    4.406136   -0.698662
     51          1           0       -7.594028    2.929987   -1.668775
     52          1           0       -7.623377    4.470130   -2.479749
     53          1           0       -3.098888    4.063951   -2.323500
     54          1           0       -2.532667    4.739738   -0.743886
     55          1           0       -4.133538    6.699361   -2.041609
     56          1           0       -3.342965    5.871033   -3.328745
     57          1           0       -5.812843    0.326950   -5.259199
     58          1           0       -6.429320   -1.260731   -5.514618
     59          1           0       -4.682151   -0.991256   -5.742872
     60          1           0       -5.809890   -3.409656   -5.637958
     61          1           0       -4.787660   -4.935654   -5.403752
     62          1           0       -4.077479   -3.299896   -5.457295
     63          1           0       -4.986363   -4.876223    1.422020
     64          1           0       -6.087265   -3.455483    3.796361
     65          1           0       -7.068867   -5.742796    1.554750
     66          1           0       -7.699202   -4.133369    1.063675
     67          1           0       -7.568222   -4.513158    2.702449
     68          1           0       -4.360842   -5.291628    3.924227
     69          1           0       -4.008546   -3.873264    4.905031
     70          1           0       -2.859836   -4.864132    2.405965
     71          1           0       -1.984440   -4.248995    3.848871
     72          1           0       -2.749590   -3.126369    2.636862
     73          1           0       -3.545559    1.727288    6.340923
     74          1           0       -4.328467    0.113565    6.192530
     75          1           0       -5.355769    1.604610    6.108866
     76          1           0       -4.996763    5.068812    2.361882
     77          1           0       -2.315238    8.435069    2.050063
     78          1           0       -2.273928    7.742798    0.318363
     79          1           0       -1.213976    7.231116    1.645168
     80         12           0        4.220098   -1.396578   -0.491923
     81          6           0        6.389506    1.427784   -0.049526
     82          6           0        2.064347    0.700413   -2.101260
     83          6           0        2.093810   -3.751619   -0.502683
     84          6           0        5.963515   -2.963805    2.086831
     85          7           0        4.325452    0.763901   -0.953970
     86          6           0        5.226000    1.721374   -0.790808
     87          6           0        4.896229    3.046931   -1.528172
     88          6           0        3.302723    2.875669   -1.629621
     89          6           0        3.218097    1.351077   -1.595693
     90          6           0        2.560562    3.422239   -0.421394
     91          6           0        5.557602    3.120995   -2.949122
     92          6           0        5.535232    4.506985   -3.597418
     93          1           0        6.672415    4.908700   -4.420783
     94          7           0        2.593085   -1.652813   -1.599051
     95          6           0        1.855002   -0.693026   -2.195147
     96          6           0        0.753631   -1.394866   -2.872336
     97          6           0        0.808266   -2.832215   -2.490519
     98          6           0        1.843872   -2.796662   -1.477439
     99          6           0       -0.169433   -0.716127   -3.842224
    100          6           0        0.044742   -4.036969   -2.950722
    101          8           0        0.091134   -5.147699   -2.312791
    102          6           0       -0.831760   -3.851741   -4.116449
    103          7           0        3.911725   -3.023542    0.765156
    104          6           0        2.949597   -3.925943    0.504567
    105          6           0        3.094090   -5.146230    1.382292
    106          6           0        4.502368   -4.979419    2.121539
    107          6           0        4.905155   -3.587301    1.587533
    108          6           0        1.994025   -5.350684    2.423652
    109          6           0        5.515605   -6.147871    1.977494
    110          6           0        5.991603   -6.244699    0.545908
    111          7           0        5.987364   -0.969031    0.675133
    112          6           0        6.527038   -1.747698    1.722282
    113          6           0        7.663660   -0.991067    2.286239
    114          6           0        7.692288    0.194974    1.537266
    115          6           0        6.634796    0.187553    0.587966
    116          6           0        8.474046   -1.401127    3.382252
    117          6           0        8.370086    1.456224    1.340966
    118          8           0        9.388836    1.974934    1.795753
    119          6           0        7.479115    2.366063    0.389773
    120          6           0        8.374544    2.945525   -0.670860
    121          8           0        8.919981    2.207352   -1.510023
    122          8           0        8.266645    4.286585   -0.654181
    123          6           0        9.127944    4.906570   -1.696102
    124          1           0        1.220119    1.313285   -2.418349
    125          1           0        1.455475   -4.637565   -0.535914
    126          1           0        6.618469   -3.427371    2.827659
    127          1           0        5.139062    3.946649   -0.975626
    128          1           0        2.923736    3.257668   -2.573972
    129          1           0        3.237332    3.730089    0.361781
    130          1           0        1.925130    2.616705   -0.077325
    131          1           0        1.886981    4.228460   -0.725733
    132          1           0        4.933459    2.569207   -3.663774
    133          1           0        6.564265    2.751636   -2.920554
    134          1           0        5.285056    5.295095   -2.876847
    135          1           0        4.718424    4.537743   -4.322606
    136          1           0       -0.070688    0.375398   -3.794911
    137          1           0       -1.191768   -0.911415   -3.500817
    138          1           0       -0.059460   -1.091834   -4.861738
    139          1           0       -1.561005   -3.074658   -3.900112
    140          1           0       -1.222938   -4.844205   -4.348579
    141          1           0       -0.226492   -3.490580   -4.955389
    142          1           0        3.114766   -6.050691    0.786769
    143          1           0        4.381483   -4.875603    3.209861
    144          1           0        1.485722   -6.329399    2.335212
    145          1           0        1.281179   -4.542174    2.330373
    146          1           0        2.315516   -5.256860    3.459537
    147          1           0        5.031260   -7.099798    2.208578
    148          1           0        6.375781   -6.056871    2.632330
    149          1           0        5.199521   -6.823170    0.061073
    150          1           0        6.947002   -6.762941    0.494106
    151          1           0        6.015796   -5.256758    0.071535
    152          1           0        9.498530   -1.184689    3.110074
    153          1           0        8.335828   -2.456923    3.605780
    154          1           0        8.074349   -0.758712    4.171438
    155          1           0        7.024004    3.140037    1.008980
    156          1           0        9.778566    5.624445   -1.187143
    157          1           0        8.433392    5.308137   -2.457731
    158          1           0        9.856447    4.271889   -2.186934
 ---------------------------------------------------------------------

 SCF Done:  E(RCAM-B3LYP) =  -4069.81205824     A.U. after   19 cycles

 Excitation energies and oscillator strengths:

 Excited State   1:      Singlet-A      1.6397 eV  756.15 nm  f=0.1500  <S**2>=0.000
     309 -> 315       -0.11536
     310 -> 316       -0.11814
     311 -> 313       -0.47913
     312 -> 314        0.49309
 This state for optimization and/or second-order correction.
 Total Energy, E(TD-HF/TD-DFT) =  -4069.75180101
 Copying the excited state density for this state as the 1-particle RhoCI density.

 Excited State   2:      Singlet-A      1.7023 eV  728.32 nm  f=0.5881  <S**2>=0.000
     309 -> 315        0.13127
     310 -> 316       -0.12501
     311 -> 313        0.49053
     312 -> 314        0.47676

 Excited State   3:      Singlet-A      2.1787 eV  569.07 nm  f=0.0063  <S**2>=0.000
     309 -> 313        0.36942
     310 -> 314        0.52953
     311 -> 315       -0.15247
     312 -> 316        0.21866

 Excited State   4:      Singlet-A      2.1951 eV  564.83 nm  f=0.1667  <S**2>=0.000
     309 -> 313        0.52431
     310 -> 314       -0.36474
     311 -> 315       -0.23143
     312 -> 316       -0.15973

 Excited State   5:      Singlet-A      2.2645 eV  547.51 nm  f=0.0000  <S**2>=0.000
     312 -> 313        0.70619

 The electronic state is 1-A.
 Alpha  occ. eigenvalues --  -46.88068 -46.87437 -19.26635 -19.26175 -19.19388
 Alpha  occ. eigenvalues --  -19.19021 -19.18983 -19.18490 -19.18447 -19.17845
 Alpha  occ. eigenvalues --  -14.42740 -14.42252 -14.41693 -14.41148 -14.39697
 Alpha  occ. eigenvalues --  -14.39134 -14.38856 -14.38380 -10.39436 -10.38907
 Alpha  occ. eigenvalues --  -10.35658 -10.35185 -10.34670 -10.34020 -10.32036
 Alpha  occ. eigenvalues --  -10.31695 -10.31610 -10.31232 -10.31050 -10.30860
 Alpha  occ. eigenvalues --  -10.30785 -10.30760 -10.30446 -10.30188 -10.30147
 Alpha  occ. eigenvalues --  -10.30118 -10.29940 -10.29915 -10.29693 -10.29536
 Alpha  occ. eigenvalues --  -10.29223 -10.29204 -10.29125 -10.29026 -10.28661
 Alpha  occ. eigenvalues --  -10.28508 -10.28451 -10.28434 -10.28183 -10.28077
 Alpha  occ. eigenvalues --  -10.28014 -10.27892 -10.27818 -10.27789 -10.27771
 Alpha  occ. eigenvalues --  -10.27690 -10.27626 -10.27541 -10.27460 -10.27422
 Alpha  occ. eigenvalues --  -10.27361 -10.27338 -10.27275 -10.27257 -10.27224
 Alpha  occ. eigenvalues --  -10.27207 -10.26831 -10.26671 -10.26518 -10.26493
 Alpha  occ. eigenvalues --  -10.26280 -10.26265 -10.26238 -10.26062 -10.26005
 Alpha  occ. eigenvalues --  -10.25730 -10.25661 -10.25521 -10.25382 -10.25283
 Alpha  occ. eigenvalues --  -10.25113 -10.25010 -10.24659 -10.24658 -10.24601
 Alpha  occ. eigenvalues --  -10.24481  -3.16811  -3.16187  -1.91692  -1.91279
 Alpha  occ. eigenvalues --   -1.91122  -1.91069  -1.90658  -1.90495  -1.16986
 Alpha  occ. eigenvalues --   -1.16468  -1.08906  -1.08454  -1.07409  -1.07003
 Alpha  occ. eigenvalues --   -1.06767  -1.06732  -1.04878  -1.04252  -1.04017
 Alpha  occ. eigenvalues --   -1.03504  -1.03441  -1.02829  -1.02674  -1.01895
 Alpha  occ. eigenvalues --   -0.92258  -0.91763  -0.89709  -0.89534  -0.89308
 Alpha  occ. eigenvalues --   -0.88838  -0.88452  -0.88132  -0.88046  -0.87965
 Alpha  occ. eigenvalues --   -0.87587  -0.87569  -0.87460  -0.86940  -0.85316
 Alpha  occ. eigenvalues --   -0.84739  -0.84087  -0.83714  -0.83201  -0.82945
 Alpha  occ. eigenvalues --   -0.82764  -0.82410  -0.81886  -0.81400  -0.80884
 Alpha  occ. eigenvalues --   -0.80240  -0.79080  -0.78443  -0.77496  -0.77213
 Alpha  occ. eigenvalues --   -0.76927  -0.76672  -0.76222  -0.75562  -0.75080
 Alpha  occ. eigenvalues --   -0.74622  -0.73031  -0.72483  -0.71926  -0.71336
 Alpha  occ. eigenvalues --   -0.70018  -0.69593  -0.69187  -0.68579  -0.67915
 Alpha  occ. eigenvalues --   -0.67580  -0.67401  -0.67000  -0.65618  -0.65127
 Alpha  occ. eigenvalues --   -0.65029  -0.64893  -0.64558  -0.64450  -0.64434
 Alpha  occ. eigenvalues --   -0.64018  -0.62590  -0.62091  -0.60692  -0.60164
 Alpha  occ. eigenvalues --   -0.60126  -0.59523  -0.59243  -0.58782  -0.58764
 Alpha  occ. eigenvalues --   -0.58220  -0.57886  -0.57533  -0.57349  -0.57053
 Alpha  occ. eigenvalues --   -0.56585  -0.56306  -0.55999  -0.55791  -0.55698
 Alpha  occ. eigenvalues --   -0.55545  -0.55256  -0.55071  -0.54748  -0.54315
 Alpha  occ. eigenvalues --   -0.54246  -0.53633  -0.53560  -0.53534  -0.53211
 Alpha  occ. eigenvalues --   -0.53096  -0.53027  -0.52922  -0.52681  -0.52537
 Alpha  occ. eigenvalues --   -0.52424  -0.52244  -0.52157  -0.51959  -0.51686
 Alpha  occ. eigenvalues --   -0.51453  -0.51430  -0.50997  -0.50865  -0.50332
 Alpha  occ. eigenvalues --   -0.50256  -0.50141  -0.49819  -0.49769  -0.49647
 Alpha  occ. eigenvalues --   -0.49496  -0.49393  -0.49236  -0.48971  -0.48884
 Alpha  occ. eigenvalues --   -0.48801  -0.48694  -0.48642  -0.48315  -0.48207
 Alpha  occ. eigenvalues --   -0.48125  -0.47964  -0.47552  -0.47376  -0.47049
 Alpha  occ. eigenvalues --   -0.46924  -0.46885  -0.46612  -0.46499  -0.46395
 Alpha  occ. eigenvalues --   -0.46289  -0.46102  -0.46074  -0.45899  -0.45612
 Alpha  occ. eigenvalues --   -0.45376  -0.45031  -0.44857  -0.44773  -0.44405
 Alpha  occ. eigenvalues --   -0.44350  -0.44314  -0.44284  -0.44223  -0.43904
 Alpha  occ. eigenvalues --   -0.43840  -0.43779  -0.43729  -0.43658  -0.43359
 Alpha  occ. eigenvalues --   -0.43282  -0.43150  -0.43012  -0.42805  -0.42744
 Alpha  occ. eigenvalues --   -0.42688  -0.42374  -0.42220  -0.41971  -0.41831
 Alpha  occ. eigenvalues --   -0.41774  -0.41447  -0.41403  -0.41230  -0.41165
 Alpha  occ. eigenvalues --   -0.41089  -0.40732  -0.40723  -0.40631  -0.40506
 Alpha  occ. eigenvalues --   -0.40465  -0.40280  -0.40007  -0.39533  -0.39267
 Alpha  occ. eigenvalues --   -0.38663  -0.38165  -0.38130  -0.37597  -0.37523
 Alpha  occ. eigenvalues --   -0.37444  -0.37068  -0.37018  -0.36959  -0.36596
 Alpha  occ. eigenvalues --   -0.36447  -0.36019  -0.34554  -0.34120  -0.34032
 Alpha  occ. eigenvalues --   -0.33676  -0.33459  -0.32958  -0.31544  -0.31295
 Alpha  occ. eigenvalues --   -0.31043  -0.30745  -0.30306  -0.29749  -0.29746
 Alpha  occ. eigenvalues --   -0.29597  -0.29122  -0.28999  -0.24348  -0.23812
 Alpha  occ. eigenvalues --   -0.21402  -0.20897
 Alpha virt. eigenvalues --   -0.09056  -0.08577  -0.02015  -0.01469  -0.00352
 Alpha virt. eigenvalues --    0.00192   0.01936   0.02388   0.02553   0.03457
 Alpha virt. eigenvalues --    0.04392   0.04731   0.04971   0.05352   0.05747

 Mulliken charges:
               1
     1  Mg   0.837684
     2  C   -0.004046
     3  C   -0.096301
     4  C   -0.043411
     5  C   -0.063174
     6  N   -0.256884
     7  C   -0.053099
     8  C   -0.013606
     9  C   -0.086535
    10  C    0.045153
    11  C    0.104680
    12  C    0.053681
    13  C   -0.071450
    14  H    0.034067
    15  N   -0.433359
    16  C    0.166618
    17  C   -0.181274
    18  C   -0.007535
    19  C    0.149209
    20  C    0.110486
    21  C    0.012114
    22  O   -0.244931
    23  C    0.064477
    24  N   -0.341196
    25  C    0.040818
    26  C   -0.028858
    27  C   -0.024364
    28  C    0.075895
    29  C    0.075810
    30  C    0.034951
    31  C   -0.006740
    32  N   -0.310812
    33  C    0.081138
    34  C   -0.168932
    35  C    0.008567
    36  C    0.083441
    37  C    0.127189
    38  C    0.046367
    39  O   -0.187602
    40  C   -0.005445
    41  C    0.213253
    42  O   -0.258700
    43  O   -0.304273
    44  C    0.157468
    45  H   -0.017477
    46  H   -0.014627
    47  H   -0.040502
    48  H    0.001707
    49  H   -0.004804
    50  H    0.025876
    51  H    0.017143
    52  H    0.017062
    53  H    0.007908
    54  H    0.042262
    55  H    0.019811
    56  H    0.017909
    57  H    0.005836
    58  H    0.028152
    59  H    0.036638
    60  H    0.037453
    61  H    0.038392
    62  H    0.025399
    63  H    0.020070
    64  H    0.009659
    65  H    0.024464
    66  H    0.012133
    67  H    0.004800
    68  H    0.007055
    69  H    0.003907
    70  H    0.013878
    71  H    0.018058
    72  H    0.029416
    73  H    0.048122
    74  H    0.009846
    75  H    0.046573
    76  H    0.035710
    77  H    0.044271
    78  H    0.045846
    79  H    0.052927
    80  Mg   0.838458
    81  C   -0.016847
    82  C   -0.087698
    83  C   -0.045832
    84  C   -0.064901
    85  N   -0.254843
    86  C   -0.048528
    87  C   -0.015178
    88  C   -0.091020
    89  C    0.046550
    90  C    0.114898
    91  C    0.062749
    92  C   -0.077065
    93  H    0.033505
    94  N   -0.423475
    95  C    0.163099
    96  C   -0.175388
    97  C   -0.008816
    98  C    0.151480
    99  C    0.095945
   100  C    0.018061
   101  O   -0.250905
   102  C    0.054131
   103  N   -0.349851
   104  C    0.037485
   105  C   -0.019930
   106  C   -0.034817
   107  C    0.088901
   108  C    0.073090
   109  C    0.034911
   110  C   -0.007598
   111  N   -0.324105
   112  C    0.078611
   113  C   -0.163245
   114  C    0.002416
   115  C    0.096318
   116  C    0.131430
   117  C    0.042344
   118  O   -0.188336
   119  C    0.000917
   120  C    0.211079
   121  O   -0.251497
   122  O   -0.305297
   123  C    0.152285
   124  H   -0.018716
   125  H   -0.015503
   126  H   -0.040985
   127  H   -0.000396
   128  H   -0.006748
   129  H    0.022971
   130  H    0.020241
   131  H    0.019019
   132  H    0.013057
   133  H    0.037116
   134  H    0.020940
   135  H    0.018520
   136  H    0.007637
   137  H    0.031815
   138  H    0.036071
   139  H    0.039766
   140  H    0.040159
   141  H    0.031099
   142  H    0.014200
   143  H    0.012093
   144  H    0.024250
   145  H    0.013040
   146  H    0.004628
   147  H    0.005650
   148  H    0.003430
   149  H    0.010803
   150  H    0.017506
   151  H    0.030382
   152  H    0.045524
   153  H    0.008014
   154  H    0.047349
   155  H    0.036182
   156  H    0.043612
   157  H    0.049218
   158  H    0.053151
 Sum of Mulliken charges =  -0.00000

 Dipole moment (field-independent basis, Debye):
    X=             -6.6294    Y=              1.6391    Z=             -4.6082  Tot=              8.2384
 Quadrupole moment (field-independent basis, Debye-Ang):
   XX=           -547.7736   YY=           -500.8359   ZZ=           -487.1456
   XY=            -18.2425   XZ=             11.2294   YZ=            -58.5886

 Normal termination of Gaussian 16 at Fri Sep 10 05:30:42 2021.
