 Gaussian 16, Revision A.03,
 Gaussian 16:  ES64L-G16RevA.03 25-Dec-2016

 -----------------------------------
 #p cam-b3lyp/Def2SVP td=(nstates=5)
 -----------------------------------

 --------------------------------
 TDDFT excited states in gaussian
 --------------------------------
 Symbolic Z-matrix:
 Charge =  0 Multiplicity = 1

                         Standard orientation:
 ---------------------------------------------------------------------
 Center     Atomic      Atomic             Coordinates (Angstroms)
 Number     Number       Type             X           Y           Z
 ---------------------------------------------------------------------
      1         12           0        3.919951    0.454388    1.424869
      2          6           0        4.788703   -2.498613   -0.401950
      3          6           0        5.688149    2.228347   -0.892373
      4          6           0        3.550724    3.013159    3.261438
      5          6           0        3.215257   -1.611755    4.141507
      6          7           0        5.048997   -0.169065   -0.374355
      7          6           0        5.254605   -1.324748   -0.998289
      8          6           0        5.946599   -1.163705   -2.384862
      9          6           0        6.663414    0.240412   -2.146892
     10          6           0        5.725770    0.817667   -1.101175
     11          6           0        8.058150    0.117652   -1.541793
     12          6           0        4.913973   -1.087984   -3.559460
     13          6           0        5.505677   -1.258549   -4.961653
     14          1           0        4.724866   -1.957885   -5.970917
     15          7           0        4.098273    2.374861    0.997276
     16          6           0        4.848097    2.918138    0.008388
     17          6           0        4.647401    4.380261    0.101116
     18          6           0        3.870770    4.655163    1.341828
     19          6           0        3.830904    3.344208    1.937803
     20          6           0        5.125036    5.344103   -0.941297
     21          6           0        3.270288    5.903558    1.906683
     22          8           0        2.838037    5.967079    3.108223
     23          6           0        3.282140    7.091433    1.033840
     24          7           0        3.660935    0.700756    3.481529
     25          6           0        3.465957    1.912943    4.012161
     26          6           0        3.026203    1.818288    5.443104
     27          6           0        2.724880    0.273356    5.711698
     28          6           0        3.146365   -0.292433    4.333111
     29          6           0        4.028052    2.331751    6.486495
     30          6           0        1.319726   -0.084488    6.257508
     31          6           0        0.272225    0.201084    5.204756
     32          7           0        3.809814   -1.684112    1.779456
     33          6           0        3.520731   -2.323661    2.993574
     34          6           0        3.669132   -3.772666    2.764603
     35          6           0        4.052859   -3.875103    1.428899
     36          6           0        4.164205   -2.571299    0.866770
     37          6           0        3.511206   -4.791754    3.744886
     38          6           0        4.418622   -4.781552    0.352598
     39          8           0        4.415314   -6.005205    0.210630
     40          6           0        5.027681   -3.921751   -0.841394
     41          6           0        4.372753   -4.383946   -2.114481
     42          8           0        3.157122   -4.187056   -2.316579
     43          8           0        5.317619   -4.767440   -2.986664
     44          6           0        4.736317   -5.210051   -4.282170
     45          1           0        6.405463    2.859433   -1.420703
     46          1           0        3.308354    3.863488    3.902247
     47          1           0        2.929750   -2.322049    4.919595
     48          1           0        6.690296   -1.927412   -2.613095
     49          1           0        6.656295    0.858281   -3.044617
     50          1           0        8.278415   -0.910182   -1.253766
     51          1           0        8.053249    0.765908   -0.665304
     52          1           0        8.810159    0.529827   -2.215122
     53          1           0        4.535759   -0.068932   -3.640390
     54          1           0        4.112329   -1.813272   -3.415755
     55          1           0        6.520226   -1.655925   -4.920506
     56          1           0        5.619750   -0.270091   -5.406779
     57          1           0        5.804439    4.867074   -1.646562
     58          1           0        5.739561    6.085808   -0.431452
     59          1           0        4.298835    5.839313   -1.451681
     60          1           0        4.311269    7.329648    0.764218
     61          1           0        2.732130    7.864029    1.569970
     62          1           0        2.769164    6.850279    0.102363
     63          1           0        2.117124    2.394105    5.611737
     64          1           0        3.411100   -0.156277    6.441897
     65          1           0        3.626907    3.114718    7.130507
     66          1           0        4.917013    2.676483    5.959050
     67          1           0        4.445904    1.563013    7.136001
     68          1           0        1.080869    0.532276    7.123242
     69          1           0        1.227847   -1.128186    6.558347
     70          1           0        0.082334    1.266142    5.332917
     71          1           0       -0.629018   -0.382063    5.396881
     72          1           0        0.669318    0.059561    4.199383
     73          1           0        2.939299   -5.587687    3.268041
     74          1           0        3.001275   -4.413559    4.630630
     75          1           0        4.552566   -5.047510    3.939858
     76          1           0        6.101701   -4.105049   -0.843595
     77          1           0        5.099589   -6.220794   -4.468356
     78          1           0        4.985478   -4.440242   -5.012730
     79          1           0        3.658092   -5.373076   -4.296073
     80         12           0       -3.549890    0.472044   -1.257328
     81          6           0       -6.073167   -1.608432    0.220443
     82          6           0       -5.877377    2.963281   -1.362824
     83          6           0       -1.495292    2.183820   -2.964920
     84          6           0       -1.822364   -2.442320   -2.074554
     85          7           0       -5.667385    0.546506   -0.622543
     86          6           0       -6.501347   -0.285728   -0.017382
     87          6           0       -7.842719    0.357331    0.426179
     88          6           0       -7.880416    1.578248   -0.616325
     89          6           0       -6.381282    1.736444   -0.861766
     90          6           0       -8.545518    1.222768   -1.935640
     91          6           0       -7.798798    0.869123    1.908797
     92          6           0       -9.161531    1.226088    2.506536
     93          1           0       -9.392511    0.956273    3.922988
     94          7           0       -3.486309    2.423922   -1.610485
     95          6           0       -4.521889    3.288993   -1.588436
     96          6           0       -3.956723    4.602050   -1.935781
     97          6           0       -2.533165    4.411725   -2.325622
     98          6           0       -2.453799    2.964766   -2.335687
     99          6           0       -4.730117    5.881743   -1.802925
    100          6           0       -1.429750    5.372762   -2.649770
    101          8           0       -0.336441    4.983952   -3.194141
    102          6           0       -1.703725    6.794940   -2.397090
    103          7           0       -2.004833   -0.053713   -2.545234
    104          6           0       -1.231471    0.885910   -3.117022
    105          6           0       -0.021793    0.268874   -3.777581
    106          6           0       -0.017669   -1.263687   -3.320623
    107          6           0       -1.332991   -1.290055   -2.511541
    108          6           0        0.013917    0.344704   -5.303813
    109          6           0        1.276714   -1.793027   -2.644573
    110          6           0        1.465846   -1.127995   -1.300197
    111          7           0       -3.766077   -1.635242   -0.832298
    112          6           0       -2.945737   -2.687313   -1.295189
    113          6           0       -3.558153   -3.951022   -0.836489
    114          6           0       -4.713869   -3.544408   -0.152770
    115          6           0       -4.825342   -2.128496   -0.200517
    116          6           0       -3.068548   -5.259584   -1.108692
    117          6           0       -5.870527   -3.991664    0.589387
    118          8           0       -6.260315   -5.076337    1.019849
    119          6           0       -6.869135   -2.766290    0.755604
    120          6           0       -7.303009   -2.712604    2.194839
    121          8           0       -6.481764   -2.458517    3.093500
    122          8           0       -8.646662   -2.754092    2.251834
    123          6           0       -9.125581   -2.692331    3.658477
    124          1           0       -6.589054    3.737440   -1.651071
    125          1           0       -0.700507    2.732854   -3.475162
    126          1           0       -1.292600   -3.388408   -2.204667
    127          1           0       -8.714277   -0.272303    0.293058
    128          1           0       -8.288694    2.475723   -0.158934
    129          1           0       -8.778334    0.170167   -1.998723
    130          1           0       -7.838086    1.500597   -2.705967
    131          1           0       -9.426648    1.850913   -2.094894
    132          1           0       -7.318765    1.855909    1.932886
    133          1           0       -7.300933    0.160609    2.541850
    134          1           0       -9.990907    0.839997    1.901553
    135          1           0       -9.283967    2.311228    2.467773
    136          1           0       -5.799928    5.691413   -1.652300
    137          1           0       -4.678334    6.388791   -2.772499
    138          1           0       -4.321530    6.543149   -1.035949
    139          1           0       -2.574427    7.102546   -2.971301
    140          1           0       -0.766616    7.314659   -2.605849
    141          1           0       -1.964153    6.918606   -1.339964
    142          1           0        0.890032    0.740854   -3.432729
    143          1           0       -0.159684   -1.943552   -4.173527
    144          1           0        0.918931    0.846825   -5.694815
    145          1           0       -0.879159    0.853708   -5.641260
    146          1           0       -0.058901   -0.613396   -5.815616
    147          1           0        2.151512   -1.532619   -3.245472
    148          1           0        1.285696   -2.869803   -2.512477
    149          1           0        1.945322   -0.179316   -1.559438
    150          1           0        2.106247   -1.732105   -0.660688
    151          1           0        0.500028   -0.893634   -0.837685
    152          1           0       -3.142499   -5.818056   -0.185038
    153          1           0       -2.045126   -5.232528   -1.476984
    154          1           0       -3.774657   -5.575192   -1.881394
    155          1           0       -7.709281   -2.934487    0.080749
    156          1           0       -9.762340   -3.568002    3.817928
    157          1           0       -9.598658   -1.698556    3.769633
    158          1           0       -8.390260   -2.819626    4.444321
 ---------------------------------------------------------------------

 SCF Done:  E(RCAM-B3LYP) =  -4069.81586614     A.U. after   19 cycles

 Excitation energies and oscillator strengths:

 Excited State   1:      Singlet-A      1.6307 eV  760.30 nm  f=0.0040  <S**2>=0.000
     309 -> 315       -0.11053
     310 -> 316        0.11933
     311 -> 313       -0.46413
     312 -> 314        0.50736
 This state for optimization and/or second-order correction.
 Total Energy, E(TD-HF/TD-DFT) =  -4069.75593816
 Copying the excited state density for this state as the 1-particle RhoCI density.

 Excited State   2:      Singlet-A      1.7086 eV  725.63 nm  f=0.6743  <S**2>=0.000
     309 -> 315        0.13567
     310 -> 316        0.12248
     311 -> 313        0.50439
     312 -> 314        0.46156

 Excited State   3:      Singlet-A      2.1775 eV  569.38 nm  f=0.0633  <S**2>=0.000
     309 -> 313        0.23189
     310 -> 314        0.60256
     312 -> 316       -0.24779

 Excited State   4:      Singlet-A      2.1969 eV  564.35 nm  f=0.1236  <S**2>=0.000
     309 -> 313        0.59564
     310 -> 314       -0.22669
     311 -> 315       -0.26212
     312 -> 316        0.10366

 Excited State   5:      Singlet-A      2.2564 eV  549.47 nm  f=0.0007  <S**2>=0.000
     312 -> 313        0.70396

 The electronic state is 1-A.
 Alpha  occ. eigenvalues --  -46.87690 -46.87239 -19.26926 -19.26123 -19.19916
 Alpha  occ. eigenvalues --  -19.18918 -19.18728 -19.18515 -19.18285 -19.17727
 Alpha  occ. eigenvalues --  -14.42421 -14.42096 -14.41400 -14.40872 -14.39336
 Alpha  occ. eigenvalues --  -14.38953 -14.38544 -14.38179 -10.39830 -10.38837
 Alpha  occ. eigenvalues --  -10.35355 -10.35202 -10.34534 -10.33902 -10.32191
 Alpha  occ. eigenvalues --  -10.31569 -10.31450 -10.30931 -10.30895 -10.30688
 Alpha  occ. eigenvalues --  -10.30573 -10.30485 -10.30095 -10.29965 -10.29918
 Alpha  occ. eigenvalues --  -10.29899 -10.29606 -10.29583 -10.29378 -10.29158
 Alpha  occ. eigenvalues --  -10.29033 -10.28988 -10.28925 -10.28845 -10.28447
 Alpha  occ. eigenvalues --  -10.28427 -10.28360 -10.28210 -10.28049 -10.27827
 Alpha  occ. eigenvalues --  -10.27738 -10.27701 -10.27620 -10.27530 -10.27471
 Alpha  occ. eigenvalues --  -10.27441 -10.27352 -10.27345 -10.27266 -10.27248
 Alpha  occ. eigenvalues --  -10.27175 -10.27094 -10.27084 -10.27060 -10.26738
 Alpha  occ. eigenvalues --  -10.26702 -10.26506 -10.26442 -10.26331 -10.26295
 Alpha  occ. eigenvalues --  -10.26238 -10.25944 -10.25938 -10.25742 -10.25741
 Alpha  occ. eigenvalues --  -10.25348 -10.25340 -10.25294 -10.24987 -10.24831
 Alpha  occ. eigenvalues --  -10.24764 -10.24499 -10.24370 -10.24264 -10.24172
 Alpha  occ. eigenvalues --  -10.23423  -3.16425  -3.15991  -1.91303  -1.90895
 Alpha  occ. eigenvalues --   -1.90873  -1.90738  -1.90460  -1.90299  -1.17305
 Alpha  occ. eigenvalues --   -1.16412  -1.08803  -1.08340  -1.07477  -1.07128
 Alpha  occ. eigenvalues --   -1.06783  -1.06701  -1.04580  -1.04107  -1.03720
 Alpha  occ. eigenvalues --   -1.03235  -1.03191  -1.02576  -1.02374  -1.01673
 Alpha  occ. eigenvalues --   -0.92072  -0.91604  -0.89448  -0.89306  -0.88907
 Alpha  occ. eigenvalues --   -0.88734  -0.88201  -0.87832  -0.87682  -0.87457
 Alpha  occ. eigenvalues --   -0.87354  -0.87245  -0.87162  -0.86803  -0.85097
 Alpha  occ. eigenvalues --   -0.84655  -0.83877  -0.83170  -0.82870  -0.82712
 Alpha  occ. eigenvalues --   -0.82591  -0.82191  -0.81790  -0.81221  -0.80660
 Alpha  occ. eigenvalues --   -0.80071  -0.78718  -0.78258  -0.77222  -0.77051
 Alpha  occ. eigenvalues --   -0.76760  -0.76406  -0.76017  -0.75473  -0.74860
 Alpha  occ. eigenvalues --   -0.74271  -0.72739  -0.72242  -0.71698  -0.71174
 Alpha  occ. eigenvalues --   -0.69757  -0.68986  -0.68849  -0.68429  -0.67688
 Alpha  occ. eigenvalues --   -0.67335  -0.67210  -0.66916  -0.65432  -0.65005
 Alpha  occ. eigenvalues --   -0.64920  -0.64670  -0.64344  -0.64233  -0.64194
 Alpha  occ. eigenvalues --   -0.63460  -0.62560  -0.61867  -0.60353  -0.59950
 Alpha  occ. eigenvalues --   -0.59866  -0.59448  -0.59021  -0.58581  -0.58540
 Alpha  occ. eigenvalues --   -0.58006  -0.57899  -0.57284  -0.57223  -0.56805
 Alpha  occ. eigenvalues --   -0.56452  -0.56168  -0.55835  -0.55662  -0.55504
 Alpha  occ. eigenvalues --   -0.55398  -0.55154  -0.54816  -0.54674  -0.54096
 Alpha  occ. eigenvalues --   -0.53953  -0.53595  -0.53344  -0.53272  -0.53159
 Alpha  occ. eigenvalues --   -0.52889  -0.52732  -0.52673  -0.52513  -0.52423
 Alpha  occ. eigenvalues --   -0.52267  -0.51939  -0.51804  -0.51456  -0.51358
 Alpha  occ. eigenvalues --   -0.51295  -0.51156  -0.50685  -0.50399  -0.50211
 Alpha  occ. eigenvalues --   -0.50027  -0.49840  -0.49660  -0.49646  -0.49340
 Alpha  occ. eigenvalues --   -0.49214  -0.49196  -0.49025  -0.48884  -0.48785
 Alpha  occ. eigenvalues --   -0.48601  -0.48421  -0.48361  -0.48232  -0.48086
 Alpha  occ. eigenvalues --   -0.47854  -0.47701  -0.47259  -0.47185  -0.46796
 Alpha  occ. eigenvalues --   -0.46766  -0.46685  -0.46424  -0.46296  -0.46181
 Alpha  occ. eigenvalues --   -0.46104  -0.45998  -0.45760  -0.45600  -0.45424
 Alpha  occ. eigenvalues --   -0.45153  -0.44775  -0.44592  -0.44495  -0.44242
 Alpha  occ. eigenvalues --   -0.44206  -0.44075  -0.44049  -0.44008  -0.43828
 Alpha  occ. eigenvalues --   -0.43682  -0.43644  -0.43583  -0.43404  -0.43159
 Alpha  occ. eigenvalues --   -0.43089  -0.43027  -0.42911  -0.42606  -0.42541
 Alpha  occ. eigenvalues --   -0.42485  -0.42000  -0.41970  -0.41784  -0.41590
 Alpha  occ. eigenvalues --   -0.41325  -0.41264  -0.41159  -0.40937  -0.40916
 Alpha  occ. eigenvalues --   -0.40772  -0.40604  -0.40497  -0.40485  -0.40435
 Alpha  occ. eigenvalues --   -0.40214  -0.39973  -0.39443  -0.39256  -0.38534
 Alpha  occ. eigenvalues --   -0.38367  -0.37866  -0.37667  -0.37380  -0.37329
 Alpha  occ. eigenvalues --   -0.37252  -0.37119  -0.36852  -0.36531  -0.36419
 Alpha  occ. eigenvalues --   -0.36202  -0.35533  -0.34598  -0.34223  -0.33809
 Alpha  occ. eigenvalues --   -0.33580  -0.33176  -0.32740  -0.31265  -0.31076
 Alpha  occ. eigenvalues --   -0.31025  -0.30555  -0.30166  -0.29628  -0.29383
 Alpha  occ. eigenvalues --   -0.29277  -0.28969  -0.28821  -0.24086  -0.23607
 Alpha  occ. eigenvalues --   -0.21102  -0.20683
 Alpha virt. eigenvalues --   -0.08744  -0.08394  -0.01724  -0.01257  -0.00035
 Alpha virt. eigenvalues --    0.00268   0.02166   0.02601   0.02921   0.04414
 Alpha virt. eigenvalues --    0.04578   0.04673   0.05121   0.05430   0.05896

 Mulliken charges:
               1
     1  Mg   0.822009
     2  C   -0.015453
     3  C   -0.092444
     4  C   -0.044595
     5  C   -0.062554
     6  N   -0.254641
     7  C   -0.053672
     8  C   -0.001216
     9  C   -0.087430
    10  C    0.046708
    11  C    0.104828
    12  C    0.009977
    13  C   -0.070046
    14  H    0.034700
    15  N   -0.431249
    16  C    0.169781
    17  C   -0.172927
    18  C   -0.002156
    19  C    0.149263
    20  C    0.109060
    21  C    0.013466
    22  O   -0.250134
    23  C    0.059940
    24  N   -0.338994
    25  C    0.041046
    26  C   -0.028271
    27  C   -0.023856
    28  C    0.074482
    29  C    0.076239
    30  C    0.034865
    31  C   -0.005626
    32  N   -0.307429
    33  C    0.082181
    34  C   -0.169236
    35  C    0.006037
    36  C    0.074481
    37  C    0.127170
    38  C    0.045200
    39  O   -0.188441
    40  C   -0.006908
    41  C    0.224308
    42  O   -0.255513
    43  O   -0.302825
    44  C    0.155909
    45  H   -0.017665
    46  H   -0.016680
    47  H   -0.040482
    48  H   -0.001968
    49  H   -0.003257
    50  H    0.025496
    51  H    0.017696
    52  H    0.017013
    53  H    0.015845
    54  H    0.075211
    55  H    0.018580
    56  H    0.020324
    57  H    0.005647
    58  H    0.025689
    59  H    0.047691
    60  H    0.037061
    61  H    0.033944
    62  H    0.037436
    63  H    0.017023
    64  H    0.009270
    65  H    0.023201
    66  H    0.012149
    67  H    0.004963
    68  H    0.006118
    69  H    0.005897
    70  H    0.007556
    71  H    0.023364
    72  H    0.028931
    73  H    0.047423
    74  H    0.010820
    75  H    0.045563
    76  H    0.036284
    77  H    0.045773
    78  H    0.048492
    79  H    0.052290
    80  Mg   0.836186
    81  C   -0.018231
    82  C   -0.088709
    83  C   -0.046689
    84  C   -0.065437
    85  N   -0.254736
    86  C   -0.049793
    87  C   -0.015103
    88  C   -0.090290
    89  C    0.045306
    90  C    0.114698
    91  C    0.062658
    92  C   -0.077326
    93  H    0.033659
    94  N   -0.423124
    95  C    0.162353
    96  C   -0.175490
    97  C   -0.008920
    98  C    0.152015
    99  C    0.099486
   100  C    0.014246
   101  O   -0.257528
   102  C    0.061652
   103  N   -0.350530
   104  C    0.037880
   105  C   -0.019106
   106  C   -0.031219
   107  C    0.089533
   108  C    0.076005
   109  C    0.034307
   110  C   -0.057145
   111  N   -0.324329
   112  C    0.078601
   113  C   -0.161054
   114  C    0.001408
   115  C    0.096770
   116  C    0.129824
   117  C    0.042196
   118  O   -0.188553
   119  C    0.001063
   120  C    0.211187
   121  O   -0.251792
   122  O   -0.305578
   123  C    0.152368
   124  H   -0.021174
   125  H   -0.018180
   126  H   -0.031563
   127  H   -0.001302
   128  H   -0.005172
   129  H    0.021945
   130  H    0.014320
   131  H    0.015191
   132  H    0.014041
   133  H    0.037201
   134  H    0.020505
   135  H    0.019315
   136  H    0.008227
   137  H    0.024397
   138  H    0.038832
   139  H    0.038604
   140  H    0.031133
   141  H    0.035054
   142  H    0.012069
   143  H    0.008792
   144  H    0.019437
   145  H    0.009430
   146  H    0.004501
   147  H   -0.008795
   148  H    0.031400
   149  H    0.019405
   150  H    0.061640
   151  H    0.022190
   152  H    0.045750
   153  H    0.016217
   154  H    0.045359
   155  H    0.034250
   156  H    0.043422
   157  H    0.049232
   158  H    0.052878
 Sum of Mulliken charges =  -0.00000

 Dipole moment (field-independent basis, Debye):
    X=              1.4309    Y=              6.3835    Z=             -2.8669  Tot=              7.1425
 Quadrupole moment (field-independent basis, Debye-Ang):
   XX=           -453.1832   YY=           -537.8395   ZZ=           -485.8971
   XY=            -23.6359   XZ=            -14.1875   YZ=              1.4091

 Normal termination of Gaussian 16 at Wed Sep  8 15:56:46 2021.
