 Gaussian 16, Revision A.03,
 Gaussian 16:  ES64L-G16RevA.03 25-Dec-2016

 -----------------------------------
 #p cam-b3lyp/Def2SVP td=(nstates=5)
 -----------------------------------

 --------------------------------
 TDDFT excited states in gaussian
 --------------------------------
 Symbolic Z-matrix:
 Charge =  0 Multiplicity = 1

                         Standard orientation:
 ---------------------------------------------------------------------
 Center     Atomic      Atomic             Coordinates (Angstroms)
 Number     Number       Type             X           Y           Z
 ---------------------------------------------------------------------
      1         12           0       -7.806206   -0.858879    0.031905
      2          6           0       -8.049129    2.703791    0.278042
      3          6           0       -8.664806   -0.541334   -3.255197
      4          6           0       -8.042275   -4.018577   -0.099266
      5          6           0       -8.087449   -0.970193    3.503817
      6          7           0       -8.271095    0.910231   -1.215001
      7          6           0       -8.270345    2.224448   -1.014993
      8          6           0       -8.452039    3.048777   -2.324513
      9          6           0       -9.187535    1.949032   -3.214234
     10          6           0       -8.649422    0.696219   -2.545789
     11          6           0      -10.706182    1.967322   -3.073235
     12          6           0       -7.082914    3.473386   -2.954539
     13          6           0       -7.169542    4.547333   -4.042882
     14          1           0       -6.103973    5.533477   -4.140000
     15          7           0       -7.803227   -2.080501   -1.520668
     16          6           0       -8.168126   -1.778096   -2.789796
     17          6           0       -7.990150   -3.020319   -3.572027
     18          6           0       -7.673549   -4.118166   -2.616731
     19          6           0       -7.855165   -3.446399   -1.355334
     20          6           0       -8.074936   -3.070754   -5.066690
     21          6           0       -7.281379   -5.548907   -2.809900
     22          8           0       -7.278690   -6.389444   -1.846540
     23          6           0       -6.981757   -5.967179   -4.191319
     24          7           0       -8.252352   -2.310226    1.464448
     25          6           0       -8.230868   -3.611964    1.157852
     26          6           0       -8.300656   -4.464374    2.390113
     27          6           0       -8.129025   -3.468752    3.626654
     28          6           0       -8.068867   -2.132134    2.846843
     29          6           0       -9.588387   -5.280722    2.567132
     30          6           0       -6.995273   -3.786919    4.633527
     31          6           0       -5.650309   -3.601505    3.967349
     32          7           0       -7.851787    0.590290    1.647107
     33          6           0       -7.997878    0.322810    3.015970
     34          6           0       -8.080511    1.624277    3.704027
     35          6           0       -7.992829    2.564441    2.679211
     36          6           0       -7.890011    1.892623    1.427659
     37          6           0       -8.276504    1.818001    5.099911
     38          6           0       -7.986864    3.980136    2.348110
     39          8           0       -7.952887    5.023513    3.002100
     40          6           0       -8.145708    4.126398    0.770389
     41          6           0       -7.106396    5.106107    0.297832
     42          8           0       -5.891191    4.828756    0.358811
     43          8           0       -7.707123    6.106422   -0.364770
     44          6           0       -6.729289    7.098522   -0.886050
     45          1           0       -9.153157   -0.584501   -4.230692
     46          1           0       -8.018351   -5.110242   -0.087759
     47          1           0       -8.090885   -0.925631    4.594438
     48          1           0       -9.085781    3.929923   -2.222646
     49          1           0       -8.869586    1.989130   -4.255878
     50          1           0      -11.024916    2.649088   -2.284866
     51          1           0      -10.988066    0.943199   -2.827868
     52          1           0      -11.181350    2.187980   -4.029426
     53          1           0       -6.685439    2.645674   -3.541878
     54          1           0       -6.386813    3.799409   -2.180925
     55          1           0       -8.143981    5.036595   -4.043378
     56          1           0       -7.113119    4.055013   -5.013777
     57          1           0       -8.483343   -2.147616   -5.476037
     58          1           0       -8.815006   -3.830201   -5.318176
     59          1           0       -7.118238   -3.324175   -5.523680
     60          1           0       -7.856316   -5.791751   -4.818152
     61          1           0       -6.634025   -6.997476   -4.124820
     62          1           0       -6.188175   -5.333240   -4.587925
     63          1           0       -7.493749   -5.195865    2.405819
     64          1           0       -9.027151   -3.423557    4.243096
     65          1           0       -9.417017   -6.352896    2.666028
     66          1           0      -10.242595   -5.065503    1.722748
     67          1           0      -10.211391   -4.975215    3.407340
     68          1           0       -7.053733   -4.826451    4.954309
     69          1           0       -7.024709   -3.162179    5.526323
     70          1           0       -5.499967   -4.550614    3.454103
     71          1           0       -4.874800   -3.435262    4.715788
     72          1           0       -5.687122   -2.821780    3.206323
     73          1           0       -7.588431    2.609128    5.397642
     74          1           0       -8.089850    0.900232    5.657103
     75          1           0       -9.326075    2.111156    5.117683
     76          1           0       -9.158541    4.484813    0.589201
     77          1           0       -7.022527    8.073443   -0.496467
     78          1           0       -6.706836    6.972136   -1.968606
     79          1           0       -5.711880    7.020635   -0.501145
     80         12           0        8.075636   -0.681670    0.123134
     81          6           0        7.365218    2.831555    0.301096
     82          6           0        7.670264   -0.440510   -3.255052
     83          6           0        8.251294   -3.846304   -0.023961
     84          6           0        7.303189   -0.868401    3.516387
     85          7           0        7.583297    1.029016   -1.189666
     86          6           0        7.395874    2.328696   -1.016346
     87          6           0        7.312104    3.147589   -2.332383
     88          6           0        6.847715    1.969251   -3.319664
     89          6           0        7.430375    0.775277   -2.566268
     90          6           0        5.338959    1.800886   -3.387926
     91          6           0        8.701748    3.739154   -2.757756
     92          6           0        8.639095    4.800997   -3.857901
     93          1           0        9.586132    5.911456   -3.808196
     94          7           0        8.457660   -1.876603   -1.414640
     95          6           0        8.253754   -1.610848   -2.721961
     96          6           0        8.676152   -2.818210   -3.448593
     97          6           0        8.991257   -3.878625   -2.453121
     98          6           0        8.549371   -3.234164   -1.232679
     99          6           0        8.825009   -2.858939   -4.941785
    100          6           0        9.579587   -5.251173   -2.580318
    101          8           0        9.543915   -6.091348   -1.613021
    102          6           0       10.115186   -5.615133   -3.900220
    103          7           0        7.612791   -2.184238    1.483425
    104          6           0        7.832805   -3.477111    1.186778
    105          6           0        7.685153   -4.350209    2.410002
    106          6           0        7.557063   -3.341839    3.644656
    107          6           0        7.563575   -2.001062    2.878075
    108          6           0        6.490766   -5.304058    2.406251
    109          6           0        8.562173   -3.529642    4.813918
    110          6           0        9.960545   -3.187674    4.352394
    111          7           0        7.626799    0.729859    1.696100
    112          6           0        7.307714    0.436378    3.040028
    113          6           0        6.968630    1.715719    3.696350
    114          6           0        7.092631    2.669394    2.674778
    115          6           0        7.461907    2.026989    1.462160
    116          6           0        6.559277    1.873110    5.050515
    117          6           0        6.984774    4.072111    2.343954
    118          8           0        6.789648    5.103487    2.985769
    119          6           0        7.033280    4.223518    0.762461
    120          6           0        8.005603    5.322154    0.430646
    121          8           0        9.216465    5.191947    0.682565
    122          8           0        7.384059    6.248183   -0.322035
    123          6           0        8.310687    7.353061   -0.685938
    124          1           0        7.342974   -0.522720   -4.291879
    125          1           0        8.404099   -4.927573    0.007288
    126          1           0        7.146846   -0.829682    4.596535
    127          1           0        6.574376    3.941003   -2.327532
    128          1           0        7.312494    2.066920   -4.297320
    129          1           0        4.830882    2.425709   -2.668497
    130          1           0        5.149984    0.755561   -3.181421
    131          1           0        4.986012    1.975085   -4.408427
    132          1           0        9.277118    2.962880   -3.278432
    133          1           0        9.225736    4.130316   -1.907425
    134          1           0        7.619111    5.172513   -4.014587
    135          1           0        8.902326    4.331424   -4.808819
    136          1           0        8.364065   -1.983699   -5.415999
    137          1           0        8.230224   -3.706397   -5.299418
    138          1           0        9.861256   -2.995889   -5.258193
    139          1           0        9.326481   -5.535258   -4.644550
    140          1           0       10.571968   -6.598043   -3.769342
    141          1           0       10.885228   -4.886873   -4.178254
    142          1           0        8.562560   -4.969287    2.551454
    143          1           0        6.574970   -3.419363    4.133864
    144          1           0        6.778524   -6.364321    2.537070
    145          1           0        5.948738   -5.168675    1.479740
    146          1           0        5.727889   -5.091783    3.153349
    147          1           0        8.586251   -4.575959    5.128251
    148          1           0        8.322036   -2.935779    5.689508
    149          1           0       10.293642   -4.111043    3.869158
    150          1           0       10.593228   -2.935930    5.201137
    151          1           0        9.941536   -2.403302    3.586853
    152          1           0        7.089286    2.733003    5.438053
    153          1           0        6.768002    0.979709    5.635371
    154          1           0        5.486443    2.032162    4.912731
    155          1           0        6.022576    4.455416    0.424422
    156          1           0        7.843989    8.284710   -0.351400
    157          1           0        8.494835    7.243310   -1.771199
    158          1           0        9.263809    7.397577   -0.172101
 ---------------------------------------------------------------------

 SCF Done:  E(RCAM-B3LYP) =  -4069.81163117     A.U. after   19 cycles

 Excitation energies and oscillator strengths:

 Excited State   1:      Singlet-A      1.6698 eV  742.52 nm  f=0.0219  <S**2>=0.000
     309 -> 315       -0.10477
     310 -> 316        0.13695
     311 -> 313       -0.41559
     312 -> 314        0.54623
 This state for optimization and/or second-order correction.
 Total Energy, E(TD-HF/TD-DFT) =  -4069.75026813
 Copying the excited state density for this state as the 1-particle RhoCI density.

 Excited State   2:      Singlet-A      1.6854 eV  735.64 nm  f=0.7352  <S**2>=0.000
     309 -> 315        0.14083
     310 -> 316        0.10657
     311 -> 313        0.54540
     312 -> 314        0.41506

 Excited State   3:      Singlet-A      2.1854 eV  567.32 nm  f=0.0555  <S**2>=0.000
     309 -> 313       -0.14648
     310 -> 314        0.62581
     312 -> 316       -0.26554

 Excited State   4:      Singlet-A      2.1928 eV  565.41 nm  f=0.1376  <S**2>=0.000
     309 -> 313        0.62384
     310 -> 314        0.14538
     311 -> 315       -0.27125

 Excited State   5:      Singlet-A      2.7690 eV  447.75 nm  f=0.0000  <S**2>=0.000
     312 -> 313        0.70710

 The electronic state is 1-A.
 Alpha  occ. eigenvalues --  -46.87813 -46.87585 -19.26280 -19.26264 -19.19078
 Alpha  occ. eigenvalues --  -19.19016 -19.18836 -19.18653 -19.18171 -19.17957
 Alpha  occ. eigenvalues --  -14.42467 -14.42423 -14.41465 -14.41283 -14.39420
 Alpha  occ. eigenvalues --  -14.39277 -14.38600 -14.38520 -10.39077 -10.39006
 Alpha  occ. eigenvalues --  -10.35471 -10.35332 -10.34391 -10.34133 -10.31677
 Alpha  occ. eigenvalues --  -10.31672 -10.31419 -10.31230 -10.30952 -10.30928
 Alpha  occ. eigenvalues --  -10.30583 -10.30521 -10.30319 -10.30280 -10.30225
 Alpha  occ. eigenvalues --  -10.30071 -10.29933 -10.29815 -10.29645 -10.29365
 Alpha  occ. eigenvalues --  -10.29324 -10.29271 -10.28771 -10.28647 -10.28601
 Alpha  occ. eigenvalues --  -10.28573 -10.28380 -10.28328 -10.28137 -10.28069
 Alpha  occ. eigenvalues --  -10.27921 -10.27805 -10.27744 -10.27601 -10.27596
 Alpha  occ. eigenvalues --  -10.27515 -10.27511 -10.27463 -10.27448 -10.27418
 Alpha  occ. eigenvalues --  -10.27415 -10.27406 -10.27393 -10.27305 -10.27163
 Alpha  occ. eigenvalues --  -10.26956 -10.26734 -10.26631 -10.26441 -10.26370
 Alpha  occ. eigenvalues --  -10.26252 -10.26199 -10.26075 -10.26034 -10.25946
 Alpha  occ. eigenvalues --  -10.25859 -10.25841 -10.25748 -10.25447 -10.25326
 Alpha  occ. eigenvalues --  -10.24843 -10.24802 -10.24790 -10.24706 -10.24672
 Alpha  occ. eigenvalues --  -10.24614  -3.16556  -3.16334  -1.91437  -1.91217
 Alpha  occ. eigenvalues --   -1.91024  -1.90866  -1.90805  -1.90642  -1.16629
 Alpha  occ. eigenvalues --   -1.16559  -1.08627  -1.08562  -1.07238  -1.06906
 Alpha  occ. eigenvalues --   -1.06862  -1.06639  -1.04597  -1.04420  -1.03776
 Alpha  occ. eigenvalues --   -1.03588  -1.03248  -1.02962  -1.02426  -1.02034
 Alpha  occ. eigenvalues --   -0.91983  -0.91905  -0.89534  -0.89421  -0.89208
 Alpha  occ. eigenvalues --   -0.89080  -0.88301  -0.88149  -0.87879  -0.87707
 Alpha  occ. eigenvalues --   -0.87691  -0.87610  -0.87295  -0.87056  -0.85002
 Alpha  occ. eigenvalues --   -0.84929  -0.83950  -0.83805  -0.82990  -0.82872
 Alpha  occ. eigenvalues --   -0.82666  -0.82583  -0.81593  -0.81517  -0.80609
 Alpha  occ. eigenvalues --   -0.80367  -0.78815  -0.78564  -0.77235  -0.77073
 Alpha  occ. eigenvalues --   -0.76949  -0.76825  -0.75936  -0.75762  -0.74911
 Alpha  occ. eigenvalues --   -0.74730  -0.72788  -0.72621  -0.71686  -0.71505
 Alpha  occ. eigenvalues --   -0.69922  -0.69690  -0.68892  -0.68757  -0.67655
 Alpha  occ. eigenvalues --   -0.67527  -0.67244  -0.67136  -0.65304  -0.65198
 Alpha  occ. eigenvalues --   -0.64866  -0.64694  -0.64634  -0.64579  -0.64284
 Alpha  occ. eigenvalues --   -0.64131  -0.62302  -0.62199  -0.60461  -0.60271
 Alpha  occ. eigenvalues --   -0.59822  -0.59722  -0.59001  -0.58916  -0.58516
 Alpha  occ. eigenvalues --   -0.58348  -0.57589  -0.57467  -0.57321  -0.57162
 Alpha  occ. eigenvalues --   -0.56323  -0.56128  -0.55984  -0.55810  -0.55537
 Alpha  occ. eigenvalues --   -0.55381  -0.55349  -0.55172  -0.54531  -0.54412
 Alpha  occ. eigenvalues --   -0.53915  -0.53842  -0.53315  -0.53240  -0.53155
 Alpha  occ. eigenvalues --   -0.53070  -0.52925  -0.52829  -0.52779  -0.52608
 Alpha  occ. eigenvalues --   -0.52453  -0.52335  -0.51919  -0.51791  -0.51636
 Alpha  occ. eigenvalues --   -0.51591  -0.51206  -0.51122  -0.50599  -0.50418
 Alpha  occ. eigenvalues --   -0.50048  -0.49939  -0.49912  -0.49798  -0.49533
 Alpha  occ. eigenvalues --   -0.49420  -0.49227  -0.49126  -0.49112  -0.49026
 Alpha  occ. eigenvalues --   -0.48602  -0.48480  -0.48477  -0.48457  -0.48301
 Alpha  occ. eigenvalues --   -0.48271  -0.47712  -0.47525  -0.47313  -0.47049
 Alpha  occ. eigenvalues --   -0.46812  -0.46636  -0.46575  -0.46485  -0.46373
 Alpha  occ. eigenvalues --   -0.46197  -0.46172  -0.46006  -0.45827  -0.45738
 Alpha  occ. eigenvalues --   -0.45215  -0.45136  -0.44586  -0.44528  -0.44436
 Alpha  occ. eigenvalues --   -0.44405  -0.44160  -0.44107  -0.44052  -0.44031
 Alpha  occ. eigenvalues --   -0.44008  -0.43868  -0.43501  -0.43476  -0.43403
 Alpha  occ. eigenvalues --   -0.43311  -0.43039  -0.42852  -0.42819  -0.42706
 Alpha  occ. eigenvalues --   -0.42662  -0.42485  -0.42024  -0.41895  -0.41716
 Alpha  occ. eigenvalues --   -0.41588  -0.41554  -0.41390  -0.41156  -0.40915
 Alpha  occ. eigenvalues --   -0.40889  -0.40846  -0.40660  -0.40633  -0.40586
 Alpha  occ. eigenvalues --   -0.40422  -0.40261  -0.40164  -0.39457  -0.39359
 Alpha  occ. eigenvalues --   -0.38485  -0.38280  -0.37771  -0.37588  -0.37336
 Alpha  occ. eigenvalues --   -0.37282  -0.37194  -0.37127  -0.36716  -0.36691
 Alpha  occ. eigenvalues --   -0.36202  -0.36143  -0.34300  -0.34176  -0.33780
 Alpha  occ. eigenvalues --   -0.33770  -0.33200  -0.33099  -0.31366  -0.31212
 Alpha  occ. eigenvalues --   -0.31050  -0.30897  -0.30030  -0.29860  -0.29465
 Alpha  occ. eigenvalues --   -0.29333  -0.29254  -0.29128  -0.24095  -0.23959
 Alpha  occ. eigenvalues --   -0.21143  -0.21041
 Alpha virt. eigenvalues --   -0.08789  -0.08715  -0.01766  -0.01610  -0.00076
 Alpha virt. eigenvalues --    0.00041   0.02192   0.02293   0.03102   0.03296
 Alpha virt. eigenvalues --    0.04699   0.04802   0.05099   0.05250   0.06153

 Mulliken charges:
               1
     1  Mg   0.838667
     2  C   -0.002961
     3  C   -0.094279
     4  C   -0.045882
     5  C   -0.063933
     6  N   -0.256760
     7  C   -0.052479
     8  C   -0.013987
     9  C   -0.086970
    10  C    0.046253
    11  C    0.104815
    12  C    0.053531
    13  C   -0.071685
    14  H    0.035949
    15  N   -0.433124
    16  C    0.168332
    17  C   -0.177308
    18  C   -0.004074
    19  C    0.148653
    20  C    0.110220
    21  C    0.012206
    22  O   -0.249607
    23  C    0.062536
    24  N   -0.341165
    25  C    0.041223
    26  C   -0.028182
    27  C   -0.023989
    28  C    0.074875
    29  C    0.076154
    30  C    0.035106
    31  C   -0.004491
    32  N   -0.310523
    33  C    0.080480
    34  C   -0.169531
    35  C    0.008489
    36  C    0.083023
    37  C    0.127256
    38  C    0.046306
    39  O   -0.188017
    40  C   -0.005397
    41  C    0.212954
    42  O   -0.256987
    43  O   -0.304845
    44  C    0.157582
    45  H   -0.017699
    46  H   -0.016851
    47  H   -0.041370
    48  H    0.001038
    49  H   -0.004223
    50  H    0.025550
    51  H    0.016478
    52  H    0.016602
    53  H    0.010922
    54  H    0.044200
    55  H    0.018010
    56  H    0.017694
    57  H    0.005767
    58  H    0.026819
    59  H    0.039194
    60  H    0.037344
    61  H    0.035633
    62  H    0.031228
    63  H    0.016511
    64  H    0.009538
    65  H    0.023214
    66  H    0.012553
    67  H    0.004800
    68  H    0.006371
    69  H    0.004836
    70  H    0.008713
    71  H    0.018093
    72  H    0.028985
    73  H    0.047916
    74  H    0.009153
    75  H    0.046078
    76  H    0.035186
    77  H    0.043164
    78  H    0.046150
    79  H    0.053968
    80  Mg   0.837921
    81  C   -0.016770
    82  C   -0.087846
    83  C   -0.045556
    84  C   -0.064749
    85  N   -0.254526
    86  C   -0.049668
    87  C   -0.015108
    88  C   -0.090552
    89  C    0.045775
    90  C    0.114370
    91  C    0.062555
    92  C   -0.077753
    93  H    0.034721
    94  N   -0.423459
    95  C    0.162835
    96  C   -0.174828
    97  C   -0.007941
    98  C    0.152065
    99  C    0.099474
   100  C    0.015446
   101  O   -0.253317
   102  C    0.061247
   103  N   -0.350051
   104  C    0.037525
   105  C   -0.019835
   106  C   -0.034841
   107  C    0.089025
   108  C    0.073653
   109  C    0.034719
   110  C   -0.007631
   111  N   -0.324209
   112  C    0.078583
   113  C   -0.162884
   114  C    0.002547
   115  C    0.096196
   116  C    0.131409
   117  C    0.042753
   118  O   -0.187332
   119  C    0.000786
   120  C    0.211216
   121  O   -0.251207
   122  O   -0.305445
   123  C    0.152085
   124  H   -0.019999
   125  H   -0.015711
   126  H   -0.040358
   127  H   -0.000401
   128  H   -0.004658
   129  H    0.023146
   130  H    0.014447
   131  H    0.015792
   132  H    0.013788
   133  H    0.037695
   134  H    0.020806
   135  H    0.019346
   136  H    0.008525
   137  H    0.025829
   138  H    0.039556
   139  H    0.038087
   140  H    0.036213
   141  H    0.033803
   142  H    0.014244
   143  H    0.012567
   144  H    0.024961
   145  H    0.011751
   146  H    0.005758
   147  H    0.006146
   148  H    0.003690
   149  H    0.010837
   150  H    0.017836
   151  H    0.030132
   152  H    0.046018
   153  H    0.008353
   154  H    0.047856
   155  H    0.035775
   156  H    0.044056
   157  H    0.049261
   158  H    0.053453
 Sum of Mulliken charges =  -0.00000

 Dipole moment (field-independent basis, Debye):
    X=             -3.2497    Y=             -2.4894    Z=             -7.8982  Tot=              8.8961
 Quadrupole moment (field-independent basis, Debye-Ang):
   XX=           -505.8768   YY=           -550.9535   ZZ=           -448.5832
   XY=              0.4162   XZ=             -3.1429   YZ=            -49.7053

 Normal termination of Gaussian 16 at Sun Sep 12 05:49:27 2021.
