 Gaussian 16, Revision A.03,
 Gaussian 16:  ES64L-G16RevA.03 25-Dec-2016

 -----------------------------------
 #p cam-b3lyp/Def2SVP td=(nstates=5)
 -----------------------------------

 --------------------------------
 TDDFT excited states in gaussian
 --------------------------------
 Symbolic Z-matrix:
 Charge =  0 Multiplicity = 1

                         Standard orientation:
 ---------------------------------------------------------------------
 Center     Atomic      Atomic             Coordinates (Angstroms)
 Number     Number       Type             X           Y           Z
 ---------------------------------------------------------------------
      1         12           0       -6.509682    0.620756    0.524063
      2          6           0       -6.942011   -2.006310   -1.868389
      3          6           0       -7.177008   -1.682330    2.951724
      4          6           0       -6.581762    3.004907    2.613860
      5          6           0       -7.000223    2.877812   -2.085675
      6          7           0       -6.982505   -1.539791    0.428572
      7          6           0       -7.058691   -2.440562   -0.546097
      8          6           0       -7.198943   -3.902666   -0.026525
      9          6           0       -7.822886   -3.600820    1.409296
     10          6           0       -7.266483   -2.204825    1.627327
     11          6           0       -9.346421   -3.527737    1.408415
     12          6           0       -5.815826   -4.627222    0.090683
     13          6           0       -5.887300   -6.145853    0.275083
     14          1           0       -4.867451   -6.975740   -0.348250
     15          7           0       -6.350314    0.603758    2.493115
     16          6           0       -6.650084   -0.425809    3.321013
     17          6           0       -6.363104    0.054909    4.689674
     18          6           0       -6.052942    1.509145    4.605481
     19          6           0       -6.345310    1.773219    3.219781
     20          6           0       -6.352313   -0.840092    5.890760
     21          6           0       -5.579774    2.505345    5.616337
     22          8           0       -5.595670    3.763622    5.390371
     23          6           0       -5.174759    1.968443    6.928108
     24          7           0       -6.972162    2.648853    0.349217
     25          6           0       -6.867804    3.473266    1.397280
     26          6           0       -6.972068    4.908864    0.975229
     27          6           0       -6.926651    4.904800   -0.620915
     28          6           0       -6.883857    3.374083   -0.851883
     29          6           0       -8.226680    5.656050    1.448168
     30          6           0       -5.843377    5.783127   -1.295806
     31          6           0       -4.470359    5.222662   -0.999497
     32          7           0       -6.726577    0.499273   -1.632147
     33          6           0       -6.944102    1.563662   -2.518958
     34          6           0       -7.133096    0.977882   -3.858813
     35          6           0       -7.028187   -0.396527   -3.654269
     36          6           0       -6.814979   -0.654448   -2.269960
     37          6           0       -7.424684    1.699148   -5.050109
     38          6           0       -7.071168   -1.708503   -4.279352
     39          8           0       -7.129134   -2.114068   -5.441096
     40          6           0       -7.138699   -2.808991   -3.130356
     41          6           0       -6.121389   -3.868558   -3.455485
     42          8           0       -4.900171   -3.613332   -3.426293
     43          8           0       -6.728177   -5.063848   -3.515755
     44          6           0       -5.769735   -6.163574   -3.805829
     45          1           0       -7.601118   -2.258676    3.776283
     46          1           0       -6.505041    3.864200    3.283313
     47          1           0       -7.073575    3.524782   -2.961746
     48          1           0       -7.880276   -4.527084   -0.604723
     49          1           0       -7.443205   -4.283094    2.169604
     50          1           0       -9.746587   -3.567230    0.395386
     51          1           0       -9.592389   -2.575133    1.878029
     52          1           0       -9.771539   -4.297935    2.052502
     53          1           0       -5.342489   -4.348105    1.032016
     54          1           0       -5.185963   -4.397746   -0.769515
     55          1           0       -6.882666   -6.528552    0.047714
     56          1           0       -5.746585   -6.368463    1.332837
     57          1           0       -6.779328   -1.816732    5.666312
     58          1           0       -7.037161   -0.404899    6.618289
     59          1           0       -5.357794   -0.927463    6.328516
     60          1           0       -6.016251    1.439228    7.375736
     61          1           0       -4.781674    2.814377    7.490896
     62          1           0       -4.390152    1.226115    6.778813
     63          1           0       -6.132762    5.490054    1.354978
     64          1           0       -7.862464    5.254404   -1.057611
     65          1           0       -8.009361    6.554832    2.025808
     66          1           0       -8.836954    4.959898    2.022824
     67          1           0       -8.914911    5.942490    0.653368
     68          1           0       -5.870551    6.795015   -0.892955
     69          1           0       -5.958841    5.853570   -2.377452
     70          1           0       -4.242021    5.642722   -0.020598
     71          1           0       -3.751931    5.561155   -1.746822
     72          1           0       -4.498062    4.138315   -0.890361
     73          1           0       -6.796097    1.268110   -5.829246
     74          1           0       -7.228173    2.763903   -4.926484
     75          1           0       -8.486455    1.480900   -5.163535
     76          1           0       -8.154693   -3.202530   -3.132555
     77          1           0       -6.134105   -6.681158   -4.693283
     78          1           0       -5.673910   -6.741626   -2.886547
     79          1           0       -4.775603   -5.861652   -4.137315
     80         12           0        6.672940    0.567981   -0.669581
     81          6           0        6.653055   -2.278795    1.515491
     82          6           0        6.050464    2.492733    2.076771
     83          6           0        6.237451    3.033296   -2.618940
     84          6           0        6.153967   -1.636196   -3.318721
     85          7           0        6.407644    0.057100    1.466039
     86          6           0        6.482715   -1.050767    2.188076
     87          6           0        6.449236   -0.821637    3.722992
     88          6           0        5.693670    0.595312    3.738176
     89          6           0        6.099738    1.103668    2.356379
     90          6           0        4.179673    0.469662    3.774961
     91          6           0        7.886693   -0.712778    4.342575
     92          6           0        7.936946   -0.798309    5.869626
     93          1           0        9.076939   -1.465573    6.492245
     94          7           0        6.698583    2.517672   -0.299931
     95          6           0        6.444108    3.126070    0.877505
     96          6           0        6.572029    4.568938    0.620726
     97          6           0        6.760768    4.770212   -0.841660
     98          6           0        6.547454    3.420157   -1.323259
     99          6           0        6.590256    5.592371    1.718767
    100          6           0        7.068106    5.980212   -1.670917
    101          8           0        6.952667    5.968741   -2.947380
    102          6           0        7.417963    7.205704   -0.937932
    103          7           0        6.046236    0.708437   -2.646912
    104          6           0        5.994460    1.897280   -3.272937
    105          6           0        5.783747    1.722994   -4.758078
    106          6           0        5.947231    0.156287   -5.034265
    107          6           0        6.144436   -0.337095   -3.584066
    108          6           0        4.434813    2.196777   -5.298702
    109          6           0        6.989553   -0.264351   -6.106319
    110          6           0        8.385670    0.053791   -5.621528
    111          7           0        6.625477   -1.577319   -0.921473
    112          6           0        6.365748   -2.290829   -2.112072
    113          6           0        6.327290   -3.725169   -1.760489
    114          6           0        6.546189   -3.745222   -0.374782
    115          6           0        6.689437   -2.415891    0.106720
    116          6           0        6.064875   -4.795710   -2.661160
    117          6           0        6.678073   -4.588051    0.791814
    118          8           0        6.732700   -5.801927    0.984818
    119          6           0        6.627151   -3.668974    2.087611
    120          6           0        7.759048   -4.076181    2.990667
    121          8           0        8.940008   -3.906786    2.639580
    122          8           0        7.264558   -4.394780    4.200761
    123          6           0        8.350329   -4.794773    5.135061
    124          1           0        5.631423    3.159258    2.831125
    125          1           0        6.186022    3.841074   -3.352649
    126          1           0        6.094888   -2.392852   -4.103999
    127          1           0        5.876828   -1.554225    4.279261
    128          1           0        6.088546    1.245199    4.514754
    129          1           0        3.857671   -0.555230    3.665172
    130          1           0        3.814519    1.071102    2.952775
    131          1           0        3.785089    0.931359    4.684618
    132          1           0        8.262002    0.308653    4.199150
    133          1           0        8.541447   -1.448587    3.917697
    134          1           0        6.995888   -1.170139    6.292833
    135          1           0        8.029915    0.213761    6.271002
    136          1           0        6.265737    5.162716    2.674531
    137          1           0        5.819851    6.333020    1.478375
    138          1           0        7.553409    6.099763    1.805700
    139          1           0        6.601248    7.473753   -0.271917
    140          1           0        7.690582    7.935754   -1.702513
    141          1           0        8.286473    6.997737   -0.303057
    142          1           0        6.537425    2.259624   -5.321196
    143          1           0        5.010575   -0.293825   -5.394701
    144          1           0        4.527421    2.951033   -6.102812
    145          1           0        3.855384    2.589580   -4.473778
    146          1           0        3.787964    1.408899   -5.680876
    147          1           0        6.841419    0.309705   -7.024285
    148          1           0        6.936533   -1.315015   -6.371428
    149          1           0        8.499160    1.112420   -5.873565
    150          1           0        9.120463   -0.556896   -6.142283
    151          1           0        8.453271   -0.034501   -4.530981
    152          1           0        6.776613   -5.577462   -2.431371
    153          1           0        6.147964   -4.473254   -3.696960
    154          1           0        5.033620   -5.033207   -2.386647
    155          1           0        5.654349   -3.818800    2.557496
    156          1           0        8.095697   -5.789509    5.513673
    157          1           0        8.422842   -3.976962    5.876462
    158          1           0        9.332904   -4.973743    4.714365
 ---------------------------------------------------------------------

 SCF Done:  E(RCAM-B3LYP) =  -4069.81187664     A.U. after   19 cycles

 Excitation energies and oscillator strengths:

 Excited State   1:      Singlet-A      1.6738 eV  740.76 nm  f=0.3290  <S**2>=0.000
     310 -> 316        0.15933
     311 -> 313       -0.26887
     312 -> 314        0.63116
 This state for optimization and/or second-order correction.
 Total Energy, E(TD-HF/TD-DFT) =  -4069.75036745
 Copying the excited state density for this state as the 1-particle RhoCI density.

 Excited State   2:      Singlet-A      1.6799 eV  738.06 nm  f=0.4021  <S**2>=0.000
     309 -> 315        0.16122
     311 -> 313        0.63076
     312 -> 314        0.26885

 Excited State   3:      Singlet-A      2.1856 eV  567.27 nm  f=0.1009  <S**2>=0.000
     310 -> 314        0.64250
     312 -> 316       -0.27293

 Excited State   4:      Singlet-A      2.1918 eV  565.67 nm  f=0.0980  <S**2>=0.000
     309 -> 313        0.64076
     311 -> 315       -0.27765

 Excited State   5:      Singlet-A      2.6503 eV  467.81 nm  f=0.0000  <S**2>=0.000
     312 -> 313        0.70710

 The electronic state is 1-A.
 Alpha  occ. eigenvalues --  -46.87853 -46.87558 -19.26319 -19.26301 -19.19118
 Alpha  occ. eigenvalues --  -19.19046 -19.18906 -19.18624 -19.18218 -19.17975
 Alpha  occ. eigenvalues --  -14.42501 -14.42401 -14.41506 -14.41249 -14.39463
 Alpha  occ. eigenvalues --  -14.39252 -14.38642 -14.38498 -10.39106 -10.39045
 Alpha  occ. eigenvalues --  -10.35541 -10.35303 -10.34436 -10.34154 -10.31744
 Alpha  occ. eigenvalues --  -10.31682 -10.31450 -10.31217 -10.30959 -10.30936
 Alpha  occ. eigenvalues --  -10.30622 -10.30567 -10.30295 -10.30269 -10.30262
 Alpha  occ. eigenvalues --  -10.30024 -10.29978 -10.29779 -10.29691 -10.29332
 Alpha  occ. eigenvalues --  -10.29316 -10.29303 -10.28775 -10.28658 -10.28628
 Alpha  occ. eigenvalues --  -10.28523 -10.28421 -10.28311 -10.28146 -10.28072
 Alpha  occ. eigenvalues --  -10.27903 -10.27851 -10.27778 -10.27649 -10.27571
 Alpha  occ. eigenvalues --  -10.27562 -10.27549 -10.27514 -10.27455 -10.27390
 Alpha  occ. eigenvalues --  -10.27378 -10.27371 -10.27369 -10.27233 -10.27198
 Alpha  occ. eigenvalues --  -10.26984 -10.26714 -10.26646 -10.26524 -10.26337
 Alpha  occ. eigenvalues --  -10.26262 -10.26246 -10.26076 -10.26002 -10.25961
 Alpha  occ. eigenvalues --  -10.25893 -10.25820 -10.25735 -10.25498 -10.25220
 Alpha  occ. eigenvalues --  -10.24888 -10.24848 -10.24776 -10.24755 -10.24614
 Alpha  occ. eigenvalues --  -10.24584  -3.16596  -3.16308  -1.91478  -1.91190
 Alpha  occ. eigenvalues --   -1.91064  -1.90906  -1.90778  -1.90615  -1.16652
 Alpha  occ. eigenvalues --   -1.16610  -1.08673  -1.08587  -1.07309  -1.06902
 Alpha  occ. eigenvalues --   -1.06877  -1.06668  -1.04632  -1.04401  -1.03817
 Alpha  occ. eigenvalues --   -1.03562  -1.03292  -1.02931  -1.02468  -1.02007
 Alpha  occ. eigenvalues --   -0.92022  -0.91898  -0.89578  -0.89380  -0.89218
 Alpha  occ. eigenvalues --   -0.89080  -0.88346  -0.88096  -0.87923  -0.87721
 Alpha  occ. eigenvalues --   -0.87691  -0.87587  -0.87346  -0.87027  -0.85019
 Alpha  occ. eigenvalues --   -0.84923  -0.83995  -0.83755  -0.83050  -0.82835
 Alpha  occ. eigenvalues --   -0.82694  -0.82575  -0.81622  -0.81528  -0.80645
 Alpha  occ. eigenvalues --   -0.80362  -0.78860  -0.78539  -0.77268  -0.77057
 Alpha  occ. eigenvalues --   -0.76968  -0.76815  -0.75960  -0.75764  -0.74952
 Alpha  occ. eigenvalues --   -0.74683  -0.72828  -0.72597  -0.71721  -0.71481
 Alpha  occ. eigenvalues --   -0.69968  -0.69633  -0.68916  -0.68749  -0.67698
 Alpha  occ. eigenvalues --   -0.67509  -0.67258  -0.67130  -0.65322  -0.65198
 Alpha  occ. eigenvalues --   -0.64901  -0.64677  -0.64665  -0.64572  -0.64326
 Alpha  occ. eigenvalues --   -0.64089  -0.62332  -0.62209  -0.60510  -0.60238
 Alpha  occ. eigenvalues --   -0.59844  -0.59718  -0.59039  -0.58894  -0.58556
 Alpha  occ. eigenvalues --   -0.58332  -0.57626  -0.57484  -0.57365  -0.57134
 Alpha  occ. eigenvalues --   -0.56365  -0.56113  -0.56007  -0.55827  -0.55582
 Alpha  occ. eigenvalues --   -0.55390  -0.55375  -0.55145  -0.54567  -0.54394
 Alpha  occ. eigenvalues --   -0.53926  -0.53843  -0.53361  -0.53271  -0.53132
 Alpha  occ. eigenvalues --   -0.53064  -0.52961  -0.52826  -0.52818  -0.52588
 Alpha  occ. eigenvalues --   -0.52499  -0.52282  -0.51966  -0.51779  -0.51658
 Alpha  occ. eigenvalues --   -0.51588  -0.51243  -0.51113  -0.50654  -0.50384
 Alpha  occ. eigenvalues --   -0.50091  -0.49984  -0.49895  -0.49747  -0.49566
 Alpha  occ. eigenvalues --   -0.49406  -0.49267  -0.49132  -0.49123  -0.49027
 Alpha  occ. eigenvalues --   -0.48634  -0.48531  -0.48502  -0.48482  -0.48266
 Alpha  occ. eigenvalues --   -0.48247  -0.47746  -0.47507  -0.47353  -0.47019
 Alpha  occ. eigenvalues --   -0.46847  -0.46611  -0.46589  -0.46478  -0.46414
 Alpha  occ. eigenvalues --   -0.46212  -0.46170  -0.45980  -0.45860  -0.45740
 Alpha  occ. eigenvalues --   -0.45260  -0.45086  -0.44625  -0.44566  -0.44436
 Alpha  occ. eigenvalues --   -0.44392  -0.44203  -0.44126  -0.44072  -0.44047
 Alpha  occ. eigenvalues --   -0.43978  -0.43860  -0.43534  -0.43483  -0.43431
 Alpha  occ. eigenvalues --   -0.43298  -0.43077  -0.42870  -0.42809  -0.42746
 Alpha  occ. eigenvalues --   -0.42695  -0.42440  -0.42059  -0.41868  -0.41754
 Alpha  occ. eigenvalues --   -0.41581  -0.41568  -0.41377  -0.41189  -0.40918
 Alpha  occ. eigenvalues --   -0.40896  -0.40891  -0.40643  -0.40624  -0.40617
 Alpha  occ. eigenvalues --   -0.40378  -0.40256  -0.40169  -0.39503  -0.39301
 Alpha  occ. eigenvalues --   -0.38522  -0.38233  -0.37774  -0.37589  -0.37375
 Alpha  occ. eigenvalues --   -0.37300  -0.37158  -0.37115  -0.36748  -0.36713
 Alpha  occ. eigenvalues --   -0.36235  -0.36118  -0.34340  -0.34155  -0.33808
 Alpha  occ. eigenvalues --   -0.33803  -0.33240  -0.33075  -0.31434  -0.31183
 Alpha  occ. eigenvalues --   -0.31090  -0.30875  -0.30076  -0.29881  -0.29514
 Alpha  occ. eigenvalues --   -0.29378  -0.29231  -0.29114  -0.24135  -0.23934
 Alpha  occ. eigenvalues --   -0.21183  -0.21015
 Alpha virt. eigenvalues --   -0.08833  -0.08693  -0.01809  -0.01579  -0.00125
 Alpha virt. eigenvalues --    0.00060   0.02145   0.02300   0.03057   0.03320
 Alpha virt. eigenvalues --    0.04679   0.04819   0.05069   0.05214   0.06165

 Mulliken charges:
               1
     1  Mg   0.838644
     2  C   -0.002910
     3  C   -0.093967
     4  C   -0.046117
     5  C   -0.063992
     6  N   -0.256816
     7  C   -0.052300
     8  C   -0.013988
     9  C   -0.086998
    10  C    0.046300
    11  C    0.104778
    12  C    0.053393
    13  C   -0.072176
    14  H    0.037035
    15  N   -0.433103
    16  C    0.168267
    17  C   -0.177212
    18  C   -0.004304
    19  C    0.148655
    20  C    0.110146
    21  C    0.011860
    22  O   -0.249998
    23  C    0.062674
    24  N   -0.341167
    25  C    0.041273
    26  C   -0.028125
    27  C   -0.023997
    28  C    0.074890
    29  C    0.076172
    30  C    0.035145
    31  C   -0.004503
    32  N   -0.310523
    33  C    0.080501
    34  C   -0.169686
    35  C    0.008409
    36  C    0.082997
    37  C    0.127312
    38  C    0.046128
    39  O   -0.188249
    40  C   -0.005307
    41  C    0.212912
    42  O   -0.257151
    43  O   -0.304770
    44  C    0.157630
    45  H   -0.017464
    46  H   -0.017102
    47  H   -0.041392
    48  H    0.001085
    49  H   -0.003807
    50  H    0.025521
    51  H    0.016341
    52  H    0.016842
    53  H    0.011212
    54  H    0.044152
    55  H    0.017845
    56  H    0.018148
    57  H    0.006169
    58  H    0.026820
    59  H    0.039166
    60  H    0.037682
    61  H    0.035055
    62  H    0.030953
    63  H    0.016192
    64  H    0.009591
    65  H    0.023043
    66  H    0.012619
    67  H    0.004883
    68  H    0.006319
    69  H    0.004967
    70  H    0.008268
    71  H    0.018491
    72  H    0.028928
    73  H    0.047585
    74  H    0.009186
    75  H    0.046155
    76  H    0.035310
    77  H    0.043040
    78  H    0.046726
    79  H    0.053705
    80  Mg   0.838166
    81  C   -0.016989
    82  C   -0.087914
    83  C   -0.045409
    84  C   -0.063975
    85  N   -0.254544
    86  C   -0.049847
    87  C   -0.015106
    88  C   -0.090485
    89  C    0.045739
    90  C    0.114377
    91  C    0.062597
    92  C   -0.077674
    93  H    0.034551
    94  N   -0.423522
    95  C    0.162925
    96  C   -0.174631
    97  C   -0.007841
    98  C    0.152169
    99  C    0.099371
   100  C    0.015489
   101  O   -0.253177
   102  C    0.061230
   103  N   -0.349970
   104  C    0.037813
   105  C   -0.020062
   106  C   -0.034948
   107  C    0.088884
   108  C    0.073269
   109  C    0.034663
   110  C   -0.007628
   111  N   -0.324128
   112  C    0.078422
   113  C   -0.162773
   114  C    0.002106
   115  C    0.096318
   116  C    0.131482
   117  C    0.042349
   118  O   -0.188424
   119  C    0.000922
   120  C    0.211157
   121  O   -0.251019
   122  O   -0.305779
   123  C    0.152110
   124  H   -0.019702
   125  H   -0.015506
   126  H   -0.039964
   127  H   -0.001183
   128  H   -0.004567
   129  H    0.022102
   130  H    0.015113
   131  H    0.015804
   132  H    0.013990
   133  H    0.037627
   134  H    0.020360
   135  H    0.019555
   136  H    0.008700
   137  H    0.026204
   138  H    0.039537
   139  H    0.038233
   140  H    0.036205
   141  H    0.033764
   142  H    0.014131
   143  H    0.013739
   144  H    0.024851
   145  H    0.011901
   146  H    0.007237
   147  H    0.006445
   148  H    0.003820
   149  H    0.010792
   150  H    0.017700
   151  H    0.029850
   152  H    0.045554
   153  H    0.008779
   154  H    0.047602
   155  H    0.034633
   156  H    0.043500
   157  H    0.049355
   158  H    0.053577
 Sum of Mulliken charges =  -0.00000

 Dipole moment (field-independent basis, Debye):
    X=             -3.5104    Y=              1.8414    Z=              6.1438  Tot=              7.3117
 Quadrupole moment (field-independent basis, Debye-Ang):
   XX=           -519.1697   YY=           -508.6118   ZZ=           -490.3068
   XY=             36.6702   XZ=             -8.8797   YZ=             -8.8665

 Normal termination of Gaussian 16 at Sat Sep 11 11:38:20 2021.
