 Gaussian 16, Revision A.03,
 Gaussian 16:  ES64L-G16RevA.03 25-Dec-2016

 -----------------------------------
 #p cam-b3lyp/Def2SVP td=(nstates=5)
 -----------------------------------

 --------------------------------
 TDDFT excited states in gaussian
 --------------------------------
 Symbolic Z-matrix:
 Charge =  0 Multiplicity = 1

                         Standard orientation:
 ---------------------------------------------------------------------
 Center     Atomic      Atomic             Coordinates (Angstroms)
 Number     Number       Type             X           Y           Z
 ---------------------------------------------------------------------
      1         12           0        5.519997    0.121791    0.038526
      2          6           0        5.344025   -3.321056   -0.924832
      3          6           0        6.344896    0.830443   -3.195731
      4          6           0        6.124234    3.095866    0.958523
      5          6           0        5.802483   -0.968372    3.336617
      6          7           0        5.778394   -1.167418   -1.742434
      7          6           0        5.623431   -2.463980   -1.991602
      8          6           0        5.711214   -2.816768   -3.506597
      9          6           0        6.572761   -1.571460   -4.005537
     10          6           0        6.182919   -0.563407   -2.938871
     11          6           0        8.078448   -1.804534   -3.934227
     12          6           0        4.303626   -2.850884   -4.191625
     13          6           0        4.267184   -3.500756   -5.577876
     14          1           0        3.093908   -4.272517   -5.958870
     15          7           0        5.664265    1.785230   -1.017414
     16          6           0        5.994902    1.886892   -2.327234
     17          6           0        5.965599    3.330991   -2.644096
     18          6           0        5.776818    4.073346   -1.366847
     19          6           0        5.875072    3.002072   -0.408674
     20          6           0        6.059936    3.869462   -4.038692
     21          6           0        5.555161    5.520297   -1.058084
     22          8           0        5.648032    5.984323    0.129615
     23          6           0        5.310414    6.407707   -2.209451
     24          7           0        6.128704    0.950279    1.855313
     25          6           0        6.260430    2.273341    2.000708
     26          6           0        6.425906    2.650344    3.443076
     27          6           0        6.135544    1.323629    4.282881
     28          6           0        5.921738    0.340941    3.105221
     29          6           0        7.799742    3.211786    3.834698
     30          6           0        5.043916    1.409989    5.378923
     31          6           0        3.688393    1.609102    4.738605
     32          7           0        5.391256   -1.780266    1.076144
     33          6           0        5.563737   -2.004789    2.449648
     34          6           0        5.491691   -3.462179    2.661530
     35          6           0        5.297597   -3.988792    1.386049
     36          6           0        5.277578   -2.929524    0.434292
     37          6           0        5.659733   -4.132823    3.905086
     38          6           0        5.127095   -5.201805    0.602859
     39          8           0        4.969511   -6.393345    0.872846
     40          6           0        5.272221   -4.827777   -0.938202
     41          6           0        4.126838   -5.470665   -1.671756
     42          8           0        2.952226   -5.096576   -1.477569
     43          8           0        4.608369   -6.251382   -2.651119
     44          6           0        3.522731   -6.896372   -3.436952
     45          1           0        6.837708    1.143359   -4.118315
     46          1           0        6.228073    4.116083    1.333773
     47          1           0        5.797593   -1.375798    4.349254
     48          1           0        6.237299   -3.745745   -3.727186
     49          1           0        6.255259   -1.224709   -4.988734
     50          1           0        8.313052   -2.741936   -3.430085
     51          1           0        8.477438   -0.959830   -3.372288
     52          1           0        8.527268   -1.743467   -4.925998
     53          1           0        4.007316   -1.835521   -4.454876
     54          1           0        3.571992   -3.337742   -3.545865
     55          1           0        5.177735   -4.066630   -5.776853
     56          1           0        4.271460   -2.708607   -6.326663
     57          1           0        6.358773    3.097483   -4.746711
     58          1           0        6.884432    4.582059   -4.049765
     59          1           0        5.140728    4.365955   -4.349951
     60          1           0        6.160238    6.356386   -2.890416
     61          1           0        5.085336    7.388059   -1.791000
     62          1           0        4.449284    6.035593   -2.765270
     63          1           0        5.710013    3.419150    3.730931
     64          1           0        7.020475    0.975054    4.815859
     65          1           0        7.754621    4.200873    4.291181
     66          1           0        8.426692    3.220595    2.943549
     67          1           0        8.380371    2.575258    4.501872
     68          1           0        5.222603    2.268670    6.025208
     69          1           0        4.997578    0.523102    6.011011
     70          1           0        3.651502    2.685770    4.576567
     71          1           0        2.896647    1.288997    5.416752
     72          1           0        3.635948    1.130403    3.760554
     73          1           0        4.883044   -4.896329    3.947284
     74          1           0        5.580082   -3.440033    4.742522
     75          1           0        6.667778   -4.529677    3.785884
     76          1           0        6.236714   -5.214959   -1.265258
     77          1           0        3.698869   -7.971642   -3.405245
     78          1           0        3.518278   -6.412976   -4.414046
     79          1           0        2.520319   -6.839401   -3.011202
     80         12           0       -5.013251    1.172471    0.447240
     81          6           0       -7.182806   -1.678820    0.241733
     82          6           0       -6.316120    2.191540   -2.535818
     83          6           0       -2.805275    3.449947    0.374039
     84          6           0       -3.114682   -0.613068    2.760895
     85          7           0       -6.546400    0.286007   -0.877865
     86          6           0       -7.346718   -0.767930   -0.822625
     87          6           0       -8.434656   -0.808088   -1.929124
     88          6           0       -7.698879    0.108713   -3.023188
     89          6           0       -6.821338    0.943213   -2.092488
     90          6           0       -6.792967   -0.677542   -3.956169
     91          6           0       -9.788267   -0.168044   -1.459981
     92          6           0      -10.983070   -0.448331   -2.374110
     93          1           0      -12.298392   -0.626765   -1.765381
     94          7           0       -4.936409    2.853354   -0.605050
     95          6           0       -5.544031    3.103993   -1.783719
     96          6           0       -5.157795    4.474895   -2.151968
     97          6           0       -4.140671    4.953640   -1.176776
     98          6           0       -3.900775    3.736746   -0.427309
     99          6           0       -5.799343    5.225034   -3.282946
    100          6           0       -3.482254    6.282976   -0.963354
    101          8           0       -2.452852    6.411408   -0.210583
    102          6           0       -4.020961    7.412750   -1.734651
    103          7           0       -3.105319    1.313245    1.261065
    104          6           0       -2.376443    2.434837    1.124362
    105          6           0       -1.161036    2.408124    2.020171
    106          6           0       -1.354859    1.135749    2.969421
    107          6           0       -2.662425    0.571161    2.372001
    108          6           0        0.188073    2.310821    1.308253
    109          6           0       -1.288887    1.383995    4.501317
    110          6           0       -2.475352    2.210882    4.941721
    111          7           0       -5.201926   -0.708571    1.493252
    112          6           0       -4.279214   -1.277651    2.398151
    113          6           0       -4.791609   -2.615523    2.758651
    114          6           0       -5.974477   -2.742295    2.014835
    115          6           0       -6.173929   -1.574703    1.229696
    116          6           0       -4.152817   -3.544655    3.627432
    117          6           0       -7.094180   -3.602726    1.707242
    118          8           0       -7.504437   -4.680875    2.135041
    119          6           0       -7.860357   -3.004849    0.449504
    120          6           0       -9.331721   -2.998519    0.761840
    121          8           0       -9.782681   -2.274185    1.666600
    122          8           0       -9.988331   -3.678787   -0.195484
    123          6           0      -11.452624   -3.691118    0.064346
    124          1           0       -6.490910    2.483658   -3.571671
    125          1           0       -2.068183    4.250651    0.469217
    126          1           0       -2.631449   -1.191778    3.550985
    127          1           0       -8.629691   -1.791864   -2.338913
    128          1           0       -8.408226    0.742807   -3.548639
    129          1           0       -6.701736   -1.710145   -3.653603
    130          1           0       -5.830275   -0.184963   -3.915674
    131          1           0       -7.138787   -0.578855   -4.989128
    132          1           0       -9.723715    0.922686   -1.564253
    133          1           0      -10.023132   -0.466130   -0.456684
    134          1           0      -10.776468   -1.256312   -3.086438
    135          1           0      -11.150882    0.428314   -3.004471
    136          1           0       -6.393558    4.559491   -3.921204
    137          1           0       -4.990832    5.575066   -3.933823
    138          1           0       -6.377253    6.086903   -2.942551
    139          1           0       -3.953691    7.189657   -2.796798
    140          1           0       -3.480397    8.292631   -1.380409
    141          1           0       -5.086493    7.518653   -1.502175
    142          1           0       -1.112739    3.299773    2.633146
    143          1           0       -0.577431    0.376889    2.797444
    144          1           0        0.876763    3.138363    1.563124
    145          1           0        0.009666    2.279421    0.241606
    146          1           0        0.734337    1.384644    1.478495
    147          1           0       -0.396714    1.962580    4.753138
    148          1           0       -1.256019    0.470645    5.085865
    149          1           0       -2.156585    3.234849    4.724973
    150          1           0       -2.665050    2.073119    6.004295
    151          1           0       -3.353840    2.000687    4.320660
    152          1           0       -4.924078   -3.955423    4.265329
    153          1           0       -3.366199   -3.068828    4.209328
    154          1           0       -3.751967   -4.251642    2.896157
    155          1           0       -7.626525   -3.637450   -0.407653
    156          1           0      -11.765040   -4.739812    0.082655
    157          1           0      -11.899772   -3.045860   -0.715043
    158          1           0      -11.792077   -3.352315    1.036167
 ---------------------------------------------------------------------

 SCF Done:  E(RCAM-B3LYP) =  -4069.81182432     A.U. after   19 cycles

 Excitation energies and oscillator strengths:

 Excited State   1:      Singlet-A      1.6559 eV  748.75 nm  f=0.0037  <S**2>=0.000
     309 -> 315       -0.11203
     310 -> 316       -0.12636
     311 -> 313       -0.45427
     312 -> 314        0.51562
 This state for optimization and/or second-order correction.
 Total Energy, E(TD-HF/TD-DFT) =  -4069.75097158
 Copying the excited state density for this state as the 1-particle RhoCI density.

 Excited State   2:      Singlet-A      1.6977 eV  730.32 nm  f=0.7128  <S**2>=0.000
     309 -> 315        0.13525
     310 -> 316       -0.11825
     311 -> 313        0.51373
     312 -> 314        0.45259

 Excited State   3:      Singlet-A      2.1836 eV  567.81 nm  f=0.0705  <S**2>=0.000
     309 -> 313       -0.19175
     310 -> 314        0.61426
     312 -> 316        0.25882

 Excited State   4:      Singlet-A      2.1955 eV  564.73 nm  f=0.1227  <S**2>=0.000
     309 -> 313        0.61119
     310 -> 314        0.18901
     311 -> 315       -0.26746

 Excited State   5:      Singlet-A      2.4801 eV  499.92 nm  f=0.0000  <S**2>=0.000
     312 -> 313        0.70672

 The electronic state is 1-A.
 Alpha  occ. eigenvalues --  -46.87870 -46.87486 -19.26315 -19.26217 -19.19058
 Alpha  occ. eigenvalues --  -19.19022 -19.18794 -19.18576 -19.18210 -19.17875
 Alpha  occ. eigenvalues --  -14.42512 -14.42328 -14.41524 -14.41181 -14.39459
 Alpha  occ. eigenvalues --  -14.39184 -14.38658 -14.38419 -10.39119 -10.38948
 Alpha  occ. eigenvalues --  -10.35423 -10.35258 -10.34432 -10.34052 -10.31700
 Alpha  occ. eigenvalues --  -10.31640 -10.31472 -10.31136 -10.30955 -10.30874
 Alpha  occ. eigenvalues --  -10.30637 -10.30570 -10.30275 -10.30215 -10.30179
 Alpha  occ. eigenvalues --  -10.30001 -10.29965 -10.29703 -10.29682 -10.29306
 Alpha  occ. eigenvalues --  -10.29266 -10.29225 -10.28797 -10.28586 -10.28585
 Alpha  occ. eigenvalues --  -10.28556 -10.28416 -10.28240 -10.28169 -10.28002
 Alpha  occ. eigenvalues --  -10.27842 -10.27825 -10.27787 -10.27625 -10.27614
 Alpha  occ. eigenvalues --  -10.27542 -10.27504 -10.27498 -10.27460 -10.27359
 Alpha  occ. eigenvalues --  -10.27319 -10.27314 -10.27302 -10.27202 -10.27191
 Alpha  occ. eigenvalues --  -10.26884 -10.26753 -10.26575 -10.26368 -10.26327
 Alpha  occ. eigenvalues --  -10.26325 -10.26281 -10.26097 -10.25982 -10.25908
 Alpha  occ. eigenvalues --  -10.25893 -10.25742 -10.25577 -10.25500 -10.25222
 Alpha  occ. eigenvalues --  -10.24975 -10.24884 -10.24851 -10.24690 -10.24592
 Alpha  occ. eigenvalues --  -10.24515  -3.16612  -3.16236  -1.91494  -1.91118
 Alpha  occ. eigenvalues --   -1.91080  -1.90922  -1.90707  -1.90543  -1.16665
 Alpha  occ. eigenvalues --   -1.16509  -1.08668  -1.08483  -1.07189  -1.06832
 Alpha  occ. eigenvalues --   -1.06806  -1.06680  -1.04640  -1.04329  -1.03828
 Alpha  occ. eigenvalues --   -1.03490  -1.03297  -1.02860  -1.02476  -1.01934
 Alpha  occ. eigenvalues --   -0.92028  -0.91815  -0.89624  -0.89318  -0.89242
 Alpha  occ. eigenvalues --   -0.89010  -0.88383  -0.88044  -0.87929  -0.87734
 Alpha  occ. eigenvalues --   -0.87589  -0.87515  -0.87293  -0.86979  -0.85032
 Alpha  occ. eigenvalues --   -0.84854  -0.84051  -0.83707  -0.82986  -0.82800
 Alpha  occ. eigenvalues --   -0.82684  -0.82512  -0.81634  -0.81439  -0.80642
 Alpha  occ. eigenvalues --   -0.80286  -0.78835  -0.78473  -0.77293  -0.76997
 Alpha  occ. eigenvalues --   -0.76987  -0.76747  -0.75975  -0.75688  -0.74978
 Alpha  occ. eigenvalues --   -0.74635  -0.72840  -0.72518  -0.71731  -0.71415
 Alpha  occ. eigenvalues --   -0.70052  -0.69592  -0.68921  -0.68680  -0.67688
 Alpha  occ. eigenvalues --   -0.67437  -0.67253  -0.67067  -0.65344  -0.65124
 Alpha  occ. eigenvalues --   -0.64918  -0.64687  -0.64602  -0.64498  -0.64361
 Alpha  occ. eigenvalues --   -0.64032  -0.62349  -0.62125  -0.60482  -0.60184
 Alpha  occ. eigenvalues --   -0.59857  -0.59643  -0.59051  -0.58821  -0.58563
 Alpha  occ. eigenvalues --   -0.58258  -0.57633  -0.57388  -0.57371  -0.57070
 Alpha  occ. eigenvalues --   -0.56356  -0.56034  -0.56019  -0.55744  -0.55549
 Alpha  occ. eigenvalues --   -0.55425  -0.55304  -0.55074  -0.54602  -0.54327
 Alpha  occ. eigenvalues --   -0.53946  -0.53772  -0.53353  -0.53246  -0.53067
 Alpha  occ. eigenvalues --   -0.52992  -0.52975  -0.52773  -0.52753  -0.52581
 Alpha  occ. eigenvalues --   -0.52547  -0.52243  -0.51976  -0.51651  -0.51649
 Alpha  occ. eigenvalues --   -0.51521  -0.51265  -0.51033  -0.50575  -0.50354
 Alpha  occ. eigenvalues --   -0.50131  -0.49940  -0.49838  -0.49705  -0.49542
 Alpha  occ. eigenvalues --   -0.49347  -0.49255  -0.49143  -0.49050  -0.48944
 Alpha  occ. eigenvalues --   -0.48646  -0.48528  -0.48451  -0.48399  -0.48199
 Alpha  occ. eigenvalues --   -0.48196  -0.47747  -0.47448  -0.47341  -0.46963
 Alpha  occ. eigenvalues --   -0.46877  -0.46602  -0.46541  -0.46426  -0.46412
 Alpha  occ. eigenvalues --   -0.46230  -0.46102  -0.45907  -0.45876  -0.45643
 Alpha  occ. eigenvalues --   -0.45287  -0.45043  -0.44636  -0.44551  -0.44365
 Alpha  occ. eigenvalues --   -0.44313  -0.44227  -0.44135  -0.44045  -0.43979
 Alpha  occ. eigenvalues --   -0.43922  -0.43792  -0.43549  -0.43448  -0.43400
 Alpha  occ. eigenvalues --   -0.43228  -0.43091  -0.42800  -0.42783  -0.42733
 Alpha  occ. eigenvalues --   -0.42720  -0.42390  -0.42111  -0.41808  -0.41762
 Alpha  occ. eigenvalues --   -0.41590  -0.41504  -0.41312  -0.41198  -0.40950
 Alpha  occ. eigenvalues --   -0.40828  -0.40817  -0.40661  -0.40592  -0.40557
 Alpha  occ. eigenvalues --   -0.40324  -0.40273  -0.40104  -0.39602  -0.39258
 Alpha  occ. eigenvalues --   -0.38561  -0.38178  -0.37802  -0.37519  -0.37406
 Alpha  occ. eigenvalues --   -0.37316  -0.37095  -0.37045  -0.36769  -0.36626
 Alpha  occ. eigenvalues --   -0.36258  -0.36053  -0.34351  -0.34080  -0.33813
 Alpha  occ. eigenvalues --   -0.33717  -0.33248  -0.33000  -0.31330  -0.31134
 Alpha  occ. eigenvalues --   -0.31090  -0.30804  -0.30072  -0.29779  -0.29489
 Alpha  occ. eigenvalues --   -0.29376  -0.29165  -0.29025  -0.24146  -0.23859
 Alpha  occ. eigenvalues --   -0.21190  -0.20943
 Alpha virt. eigenvalues --   -0.08826  -0.08619  -0.01810  -0.01519  -0.00078
 Alpha virt. eigenvalues --    0.00120   0.02147   0.02388   0.02672   0.03386
 Alpha virt. eigenvalues --    0.04655   0.04888   0.05058   0.05310   0.06091

 Mulliken charges:
               1
     1  Mg   0.835968
     2  C   -0.002803
     3  C   -0.093900
     4  C   -0.046082
     5  C   -0.064456
     6  N   -0.256663
     7  C   -0.052657
     8  C   -0.013931
     9  C   -0.087065
    10  C    0.046496
    11  C    0.104768
    12  C    0.053426
    13  C   -0.071782
    14  H    0.036091
    15  N   -0.433515
    16  C    0.168821
    17  C   -0.176786
    18  C   -0.003253
    19  C    0.149012
    20  C    0.110209
    21  C    0.013616
    22  O   -0.248976
    23  C    0.062029
    24  N   -0.340898
    25  C    0.041047
    26  C   -0.028409
    27  C   -0.023876
    28  C    0.074096
    29  C    0.076056
    30  C    0.035593
    31  C   -0.007687
    32  N   -0.310334
    33  C    0.079374
    34  C   -0.170443
    35  C    0.008424
    36  C    0.082308
    37  C    0.127418
    38  C    0.045957
    39  O   -0.188162
    40  C   -0.005293
    41  C    0.212990
    42  O   -0.257281
    43  O   -0.304771
    44  C    0.157545
    45  H   -0.017372
    46  H   -0.016477
    47  H   -0.042006
    48  H    0.001067
    49  H   -0.003975
    50  H    0.025614
    51  H    0.016515
    52  H    0.016790
    53  H    0.011174
    54  H    0.044131
    55  H    0.017996
    56  H    0.017842
    57  H    0.005672
    58  H    0.027066
    59  H    0.040277
    60  H    0.036619
    61  H    0.037025
    62  H    0.032832
    63  H    0.016480
    64  H    0.009916
    65  H    0.023668
    66  H    0.012923
    67  H    0.004901
    68  H    0.007047
    69  H    0.004709
    70  H    0.009462
    71  H    0.017928
    72  H    0.028008
    73  H    0.047367
    74  H    0.008617
    75  H    0.046322
    76  H    0.035339
    77  H    0.043245
    78  H    0.046293
    79  H    0.053937
    80  Mg   0.838077
    81  C   -0.016962
    82  C   -0.088200
    83  C   -0.046023
    84  C   -0.062722
    85  N   -0.254520
    86  C   -0.049561
    87  C   -0.015129
    88  C   -0.090531
    89  C    0.045791
    90  C    0.114528
    91  C    0.062623
    92  C   -0.077647
    93  H    0.034531
    94  N   -0.423294
    95  C    0.162735
    96  C   -0.175458
    97  C   -0.008273
    98  C    0.151928
    99  C    0.099768
   100  C    0.014826
   101  O   -0.253013
   102  C    0.061314
   103  N   -0.349834
   104  C    0.037382
   105  C   -0.020532
   106  C   -0.035499
   107  C    0.089051
   108  C    0.071503
   109  C    0.032587
   110  C   -0.007588
   111  N   -0.324351
   112  C    0.078494
   113  C   -0.161945
   114  C    0.002423
   115  C    0.096498
   116  C    0.131609
   117  C    0.042841
   118  O   -0.187645
   119  C    0.000771
   120  C    0.211157
   121  O   -0.251243
   122  O   -0.305576
   123  C    0.152142
   124  H   -0.020545
   125  H   -0.015414
   126  H   -0.039304
   127  H   -0.000740
   128  H   -0.004854
   129  H    0.022812
   130  H    0.014444
   131  H    0.015446
   132  H    0.013800
   133  H    0.037656
   134  H    0.020658
   135  H    0.019294
   136  H    0.008324
   137  H    0.024923
   138  H    0.039305
   139  H    0.037344
   140  H    0.036080
   141  H    0.033840
   142  H    0.014487
   143  H    0.015100
   144  H    0.028850
   145  H    0.010952
   146  H    0.006177
   147  H    0.007749
   148  H    0.003471
   149  H    0.010797
   150  H    0.017149
   151  H    0.030171
   152  H    0.045372
   153  H    0.008655
   154  H    0.050025
   155  H    0.035324
   156  H    0.043787
   157  H    0.049228
   158  H    0.053424
 Sum of Mulliken charges =  -0.00000

 Dipole moment (field-independent basis, Debye):
    X=              2.3190    Y=              4.0901    Z=             -7.3988  Tot=              8.7663
 Quadrupole moment (field-independent basis, Debye-Ang):
   XX=           -481.3976   YY=           -560.0090   ZZ=           -453.5343
   XY=            -19.1273   XZ=             28.3049   YZ=              3.0466

 Normal termination of Gaussian 16 at Sat Sep 11 00:15:00 2021.
