 Gaussian 16, Revision A.03,
 Gaussian 16:  ES64L-G16RevA.03 25-Dec-2016

 -----------------------------------
 #p cam-b3lyp/Def2SVP td=(nstates=5)
 -----------------------------------

 --------------------------------
 TDDFT excited states in gaussian
 --------------------------------
 Symbolic Z-matrix:
 Charge =  0 Multiplicity = 1

                         Standard orientation:
 ---------------------------------------------------------------------
 Center     Atomic      Atomic             Coordinates (Angstroms)
 Number     Number       Type             X           Y           Z
 ---------------------------------------------------------------------
      1         12           0        3.119623    2.035102    0.784637
      2          6           0        4.691364   -1.165321    0.469778
      3          6           0        4.349811    2.777868   -2.310197
      4          6           0        2.131506    5.015853    1.226639
      5          6           0        2.996870    1.472221    4.221752
      6          7           0        4.349270    0.870496   -0.640953
      7          6           0        4.835514   -0.366465   -0.666749
      8          6           0        5.447340   -0.761197   -2.044149
      9          6           0        5.785097    0.695830   -2.596405
     10          6           0        4.743504    1.493079   -1.831289
     11          6           0        7.171981    1.191423   -2.199615
     12          6           0        4.415921   -1.497554   -2.963760
     13          6           0        5.015165   -2.201523   -4.184697
     14          1           0        4.426803   -3.456230   -4.628417
     15          7           0        2.797288    3.484527   -0.518480
     16          6           0        3.372187    3.620081   -1.737662
     17          6           0        2.806349    4.855978   -2.319956
     18          6           0        1.999815    5.528669   -1.263981
     19          6           0        2.302541    4.706252   -0.120581
     20          6           0        3.010201    5.261196   -3.747539
     21          6           0        1.107449    6.729316   -1.280105
     22          8           0        0.687333    7.279013   -0.204973
     23          6           0        0.805796    7.305903   -2.602828
     24          7           0        2.830344    3.196350    2.495034
     25          6           0        2.338881    4.437502    2.411439
     26          6           0        1.954524    4.964689    3.762099
     27          6           0        2.060308    3.727486    4.766038
     28          6           0        2.596040    2.664698    3.775208
     29          6           0        2.804400    6.127183    4.293447
     30          6           0        0.799337    3.388955    5.600165
     31          6           0       -0.298559    2.886271    4.689654
     32          7           0        3.562634    0.380625    2.117864
     33          6           0        3.460386    0.374203    3.516498
     34          6           0        3.970728   -0.928826    3.980969
     35          6           0        4.352288   -1.587729    2.813877
     36          6           0        4.120891   -0.739247    1.693686
     37          6           0        4.089356   -1.341890    5.337339
     38          6           0        4.924544   -2.801698    2.254719
     39          8           0        5.231748   -3.904722    2.709094
     40          6           0        5.280230   -2.530202    0.726451
     41          6           0        4.750026   -3.687007   -0.076042
     42          8           0        3.522108   -3.883433   -0.180920
     43          8           0        5.751213   -4.234003   -0.782415
     44          6           0        5.286940   -5.369332   -1.623623
     45          1           0        4.876255    3.206532   -3.165209
     46          1           0        1.687787    5.995447    1.416236
     47          1           0        2.911037    1.192860    5.273438
     48          1           0        6.358494   -1.356570   -1.982892
     49          1           0        5.610176    0.775073   -3.669180
     50          1           0        7.650427    0.513141   -1.493256
     51          1           0        7.012145    2.167619   -1.741373
     52          1           0        7.786107    1.371700   -3.082297
     53          1           0        3.789416   -0.759257   -3.464230
     54          1           0        3.827480   -2.212770   -2.387974
     55          1           0        6.097916   -2.296850   -4.098251
     56          1           0        4.868190   -1.561139   -5.054471
     57          1           0        3.780521    4.659678   -4.228505
     58          1           0        3.421159    6.270503   -3.736452
     59          1           0        2.079135    5.249580   -4.314384
     60          1           0        1.736930    7.597569   -3.089108
     61          1           0        0.083234    8.101866   -2.426197
     62          1           0        0.360454    6.534060   -3.231221
     63          1           0        0.930688    5.336417    3.759940
     64          1           0        2.841871    3.872004    5.512327
     65          1           0        2.224384    7.017102    4.539068
     66          1           0        3.569840    6.351821    3.551200
     67          1           0        3.412026    5.887782    5.165739
     68          1           0        0.421202    4.282607    6.095489
     69          1           0        0.980176    2.635944    6.367317
     70          1           0       -0.752276    3.806823    4.324198
     71          1           0       -1.018984    2.293193    5.253974
     72          1           0        0.109743    2.359415    3.826985
     73          1           0        3.733818   -2.371529    5.374845
     74          1           0        3.510203   -0.698475    5.999307
     75          1           0        5.163707   -1.236396    5.487325
     76          1           0        6.365382   -2.453263    0.666051
     77          1           0        5.893765   -6.234963   -1.357764
     78          1           0        5.323008   -5.024294   -2.657089
     79          1           0        4.285855   -5.747345   -1.413208
     80         12           0       -4.134969   -0.897063   -0.567136
     81          6           0       -1.589837   -3.418395   -0.356839
     82          6           0       -2.216869    0.629518   -2.938864
     83          6           0       -6.131802    1.566141   -0.454312
     84          6           0       -5.260996   -1.970538    2.551422
     85          7           0       -2.176560   -1.423540   -1.450161
     86          6           0       -1.331928   -2.437507   -1.337031
     87          6           0       -0.186561   -2.440492   -2.384739
     88          6           0       -0.170048   -0.871676   -2.727418
     89          6           0       -1.619617   -0.531840   -2.386912
     90          6           0        0.737048   -0.065417   -1.812844
     91          6           0       -0.535640   -3.301047   -3.649484
     92          6           0        0.649304   -3.601280   -4.570088
     93          1           0        0.695444   -4.895042   -5.245754
     94          7           0       -4.433192    0.574892   -1.864439
     95          6           0       -3.554188    1.051089   -2.771009
     96          6           0       -4.247965    2.145292   -3.467844
     97          6           0       -5.549399    2.384474   -2.786819
     98          6           0       -5.409694    1.512725   -1.637635
     99          6           0       -3.703984    2.795135   -4.706873
    100          6           0       -6.719949    3.263259   -3.108904
    101          8           0       -7.645302    3.492992   -2.252307
    102          6           0       -6.703515    3.921410   -4.423460
    103          7           0       -5.365805   -0.147258    0.931261
    104          6           0       -6.172431    0.903779    0.701945
    105          6           0       -7.159412    1.090169    1.829565
    106          6           0       -7.005898   -0.206089    2.753551
    107          6           0       -5.842881   -0.905862    2.016590
    108          6           0       -6.968913    2.346179    2.679565
    109          6           0       -8.295934   -1.021922    3.041454
    110          6           0       -8.788216   -1.674830    1.769935
    111          7           0       -3.675686   -2.525678    0.776259
    112          6           0       -4.248260   -2.773832    2.043009
    113          6           0       -3.532964   -3.927670    2.625620
    114          6           0       -2.570921   -4.258938    1.659585
    115          6           0       -2.665678   -3.361374    0.561900
    116          6           0       -3.773885   -4.494034    3.909096
    117          6           0       -1.489763   -5.157185    1.323526
    118          8           0       -1.014194   -6.172211    1.830760
    119          6           0       -0.722920   -4.574246    0.059198
    120          6           0       -0.530374   -5.695424   -0.924888
    121          8           0       -1.509634   -6.225288   -1.478879
    122          8           0        0.779175   -5.809768   -1.211886
    123          6           0        1.019549   -6.901687   -2.192584
    124          1           0       -1.592530    1.306572   -3.522528
    125          1           0       -6.910690    2.330972   -0.411390
    126          1           0       -5.617184   -2.427096    3.477356
    127          1           0        0.779070   -2.747490   -2.001250
    128          1           0        0.023995   -0.699968   -3.782982
    129          1           0        1.131067   -0.664922   -1.005706
    130          1           0        0.124222    0.737151   -1.423754
    131          1           0        1.528645    0.414927   -2.395067
    132          1           0       -1.155238   -2.702726   -4.329807
    133          1           0       -1.014430   -4.218127   -3.366016
    134          1           0        1.610628   -3.384727   -4.088520
    135          1           0        0.613171   -2.912893   -5.417932
    136          1           0       -2.654206    2.524826   -4.875101
    137          1           0       -3.679788    3.873820   -4.517906
    138          1           0       -4.320525    2.604430   -5.587890
    139          1           0       -5.810001    4.535253   -4.508859
    140          1           0       -7.663783    4.434284   -4.505525
    141          1           0       -6.631538    3.151183   -5.199468
    142          1           0       -8.173705    1.134681    1.452309
    143          1           0       -6.633622    0.050117    3.756345
    144          1           0       -7.866945    2.991586    2.712028
    145          1           0       -6.120271    2.894602    2.292805
    146          1           0       -6.675649    2.164878    3.712199
    147          1           0       -9.095884   -0.358692    3.379623
    148          1           0       -8.164708   -1.782833    3.803546
    149          1           0       -9.357659   -0.875381    1.286503
    150          1           0       -9.422766   -2.528705    1.998624
    151          1           0       -7.951642   -1.929751    1.109025
    152          1           0       -3.761662   -5.568440    3.782568
    153          1           0       -4.720277   -4.152447    4.323119
    154          1           0       -2.917444   -4.097659    4.461064
    155          1           0        0.227283   -4.169844    0.410123
    156          1           0        1.747181   -7.582724   -1.740471
    157          1           0        1.316218   -6.399192   -3.132392
    158          1           0        0.198554   -7.577578   -2.401333
 ---------------------------------------------------------------------

 SCF Done:  E(RCAM-B3LYP) =  -4069.81358874     A.U. after   19 cycles

 Excitation energies and oscillator strengths:

 Excited State   1:      Singlet-A      1.6338 eV  758.88 nm  f=0.0008  <S**2>=0.000
     309 -> 315        0.11692
     310 -> 316       -0.11400
     311 -> 313        0.48881
     312 -> 314        0.48489
 This state for optimization and/or second-order correction.
 Total Energy, E(TD-HF/TD-DFT) =  -4069.75354841
 Copying the excited state density for this state as the 1-particle RhoCI density.

 Excited State   2:      Singlet-A      1.7122 eV  724.10 nm  f=0.6702  <S**2>=0.000
     309 -> 315       -0.13043
     310 -> 316       -0.12927
     311 -> 313       -0.48134
     312 -> 314        0.48527

 Excited State   3:      Singlet-A      2.1330 eV  581.27 nm  f=0.0005  <S**2>=0.000
     312 -> 313        0.70451

 Excited State   4:      Singlet-A      2.1755 eV  569.90 nm  f=0.0360  <S**2>=0.000
     309 -> 313       -0.29724
     310 -> 314        0.57375
     311 -> 315        0.12056
     312 -> 316        0.23549

 Excited State   5:      Singlet-A      2.1970 eV  564.33 nm  f=0.1421  <S**2>=0.000
     309 -> 313        0.56600
     310 -> 314        0.29198
     311 -> 315       -0.25033
     312 -> 316        0.13159

 The electronic state is 1-A.
 Alpha  occ. eigenvalues --  -46.88081 -46.87296 -19.26629 -19.25558 -19.19449
 Alpha  occ. eigenvalues --  -19.19082 -19.18496 -19.18415 -19.18390 -19.17470
 Alpha  occ. eigenvalues --  -14.42782 -14.42132 -14.41740 -14.40993 -14.39703
 Alpha  occ. eigenvalues --  -14.38991 -14.38891 -14.38215 -10.39454 -10.38379
 Alpha  occ. eigenvalues --  -10.35718 -10.35101 -10.34622 -10.33612 -10.31979
 Alpha  occ. eigenvalues --  -10.31750 -10.31308 -10.31288 -10.30907 -10.30881
 Alpha  occ. eigenvalues --  -10.30782 -10.30601 -10.30494 -10.30174 -10.30016
 Alpha  occ. eigenvalues --  -10.29961 -10.29915 -10.29841 -10.29559 -10.29524
 Alpha  occ. eigenvalues --  -10.29211 -10.29115 -10.29105 -10.29031 -10.28696
 Alpha  occ. eigenvalues --  -10.28519 -10.28414 -10.28150 -10.28078 -10.28077
 Alpha  occ. eigenvalues --  -10.27985 -10.27880 -10.27845 -10.27796 -10.27746
 Alpha  occ. eigenvalues --  -10.27707 -10.27648 -10.27620 -10.27459 -10.27377
 Alpha  occ. eigenvalues --  -10.27335 -10.27286 -10.27261 -10.27105 -10.27098
 Alpha  occ. eigenvalues --  -10.27041 -10.26714 -10.26563 -10.26342 -10.26318
 Alpha  occ. eigenvalues --  -10.26299 -10.26204 -10.26187 -10.25999 -10.25917
 Alpha  occ. eigenvalues --  -10.25710 -10.25611 -10.25595 -10.25519 -10.25151
 Alpha  occ. eigenvalues --  -10.25113 -10.25067 -10.24816 -10.24513 -10.24461
 Alpha  occ. eigenvalues --  -10.24314  -3.16820  -3.16047  -1.91701  -1.91290
 Alpha  occ. eigenvalues --   -1.91131  -1.90929  -1.90517  -1.90354  -1.16976
 Alpha  occ. eigenvalues --   -1.15889  -1.08846  -1.08043  -1.07479  -1.07012
 Alpha  occ. eigenvalues --   -1.06673  -1.06267  -1.04917  -1.04107  -1.04055
 Alpha  occ. eigenvalues --   -1.03529  -1.03290  -1.02708  -1.02677  -1.01736
 Alpha  occ. eigenvalues --   -0.92285  -0.91486  -0.89769  -0.89609  -0.89149
 Alpha  occ. eigenvalues --   -0.88759  -0.88527  -0.88128  -0.88018  -0.87905
 Alpha  occ. eigenvalues --   -0.87582  -0.87425  -0.87320  -0.86823  -0.85380
 Alpha  occ. eigenvalues --   -0.84642  -0.84158  -0.83556  -0.83248  -0.82999
 Alpha  occ. eigenvalues --   -0.82661  -0.82287  -0.81892  -0.81117  -0.80912
 Alpha  occ. eigenvalues --   -0.80022  -0.79097  -0.78308  -0.77542  -0.77259
 Alpha  occ. eigenvalues --   -0.76814  -0.76511  -0.76247  -0.75437  -0.75141
 Alpha  occ. eigenvalues --   -0.74462  -0.73059  -0.72337  -0.71972  -0.71208
 Alpha  occ. eigenvalues --   -0.70112  -0.69483  -0.69240  -0.68480  -0.67944
 Alpha  occ. eigenvalues --   -0.67647  -0.67219  -0.66868  -0.65679  -0.65158
 Alpha  occ. eigenvalues --   -0.64939  -0.64833  -0.64518  -0.64390  -0.64215
 Alpha  occ. eigenvalues --   -0.63861  -0.62598  -0.61724  -0.60728  -0.60181
 Alpha  occ. eigenvalues --   -0.60022  -0.59387  -0.59279  -0.58795  -0.58590
 Alpha  occ. eigenvalues --   -0.58000  -0.57878  -0.57577  -0.57011  -0.56754
 Alpha  occ. eigenvalues --   -0.56600  -0.56325  -0.55847  -0.55822  -0.55593
 Alpha  occ. eigenvalues --   -0.55365  -0.55074  -0.54867  -0.54771  -0.54346
 Alpha  occ. eigenvalues --   -0.54022  -0.53594  -0.53577  -0.53511  -0.53228
 Alpha  occ. eigenvalues --   -0.53105  -0.52888  -0.52758  -0.52631  -0.52464
 Alpha  occ. eigenvalues --   -0.52370  -0.52140  -0.52100  -0.52014  -0.51520
 Alpha  occ. eigenvalues --   -0.51474  -0.51313  -0.50894  -0.50780  -0.50322
 Alpha  occ. eigenvalues --   -0.50232  -0.50199  -0.49866  -0.49682  -0.49575
 Alpha  occ. eigenvalues --   -0.49529  -0.49421  -0.49164  -0.48917  -0.48773
 Alpha  occ. eigenvalues --   -0.48733  -0.48715  -0.48686  -0.48159  -0.48070
 Alpha  occ. eigenvalues --   -0.48004  -0.47958  -0.47588  -0.47253  -0.47097
 Alpha  occ. eigenvalues --   -0.46946  -0.46790  -0.46636  -0.46438  -0.46362
 Alpha  occ. eigenvalues --   -0.46199  -0.46094  -0.45937  -0.45681  -0.45438
 Alpha  occ. eigenvalues --   -0.45382  -0.44890  -0.44866  -0.44815  -0.44453
 Alpha  occ. eigenvalues --   -0.44405  -0.44307  -0.44158  -0.44095  -0.43815
 Alpha  occ. eigenvalues --   -0.43796  -0.43747  -0.43700  -0.43514  -0.43314
 Alpha  occ. eigenvalues --   -0.43173  -0.43061  -0.42905  -0.42866  -0.42537
 Alpha  occ. eigenvalues --   -0.42292  -0.42262  -0.42204  -0.41989  -0.41892
 Alpha  occ. eigenvalues --   -0.41620  -0.41438  -0.41254  -0.41217  -0.41147
 Alpha  occ. eigenvalues --   -0.41087  -0.40832  -0.40784  -0.40509  -0.40407
 Alpha  occ. eigenvalues --   -0.40372  -0.40109  -0.39813  -0.39636  -0.39157
 Alpha  occ. eigenvalues --   -0.38733  -0.38200  -0.38045  -0.37635  -0.37593
 Alpha  occ. eigenvalues --   -0.37325  -0.37029  -0.36928  -0.36826  -0.36496
 Alpha  occ. eigenvalues --   -0.36218  -0.35750  -0.34587  -0.34127  -0.33871
 Alpha  occ. eigenvalues --   -0.33497  -0.33246  -0.32779  -0.31613  -0.31349
 Alpha  occ. eigenvalues --   -0.30973  -0.30568  -0.30253  -0.29740  -0.29595
 Alpha  occ. eigenvalues --   -0.29344  -0.28977  -0.28806  -0.24396  -0.23634
 Alpha  occ. eigenvalues --   -0.21436  -0.20756
 Alpha virt. eigenvalues --   -0.09075  -0.08414  -0.02050  -0.01326  -0.00370
 Alpha virt. eigenvalues --    0.00317   0.01952   0.02643   0.02976   0.03675
 Alpha virt. eigenvalues --    0.04218   0.04577   0.04859   0.05367   0.05850

 Mulliken charges:
               1
     1  Mg   0.825445
     2  C   -0.005429
     3  C   -0.096288
     4  C   -0.044057
     5  C   -0.062861
     6  N   -0.256413
     7  C   -0.057373
     8  C   -0.009676
     9  C   -0.086681
    10  C    0.042541
    11  C    0.104873
    12  C    0.037878
    13  C   -0.075524
    14  H    0.041504
    15  N   -0.431218
    16  C    0.165551
    17  C   -0.179325
    18  C   -0.004311
    19  C    0.149234
    20  C    0.110487
    21  C    0.012659
    22  O   -0.248104
    23  C    0.062971
    24  N   -0.338737
    25  C    0.040081
    26  C   -0.028207
    27  C   -0.024235
    28  C    0.075356
    29  C    0.075904
    30  C    0.034819
    31  C   -0.004793
    32  N   -0.309836
    33  C    0.081937
    34  C   -0.168363
    35  C    0.010309
    36  C    0.079963
    37  C    0.126598
    38  C    0.047198
    39  O   -0.184647
    40  C   -0.006628
    41  C    0.214630
    42  O   -0.253584
    43  O   -0.304480
    44  C    0.154952
    45  H   -0.018128
    46  H   -0.016153
    47  H   -0.040318
    48  H    0.001908
    49  H   -0.004987
    50  H    0.026303
    51  H    0.018147
    52  H    0.017066
    53  H    0.011225
    54  H    0.050553
    55  H    0.020336
    56  H    0.018025
    57  H    0.005427
    58  H    0.027913
    59  H    0.036735
    60  H    0.037720
    61  H    0.036838
    62  H    0.028598
    63  H    0.017461
    64  H    0.010048
    65  H    0.023894
    66  H    0.012549
    67  H    0.005215
    68  H    0.006891
    69  H    0.005105
    70  H    0.009412
    71  H    0.018577
    72  H    0.029628
    73  H    0.050455
    74  H    0.009683
    75  H    0.046571
    76  H    0.035953
    77  H    0.044261
    78  H    0.044637
    79  H    0.055623
    80  Mg   0.835975
    81  C   -0.018661
    82  C   -0.087758
    83  C   -0.045752
    84  C   -0.066690
    85  N   -0.254419
    86  C   -0.049978
    87  C   -0.019291
    88  C   -0.079949
    89  C    0.043224
    90  C    0.060894
    91  C    0.063598
    92  C   -0.077707
    93  H    0.030831
    94  N   -0.423395
    95  C    0.162612
    96  C   -0.175298
    97  C   -0.008367
    98  C    0.151854
    99  C    0.100173
   100  C    0.015190
   101  O   -0.253929
   102  C    0.061452
   103  N   -0.350374
   104  C    0.037092
   105  C   -0.019473
   106  C   -0.034699
   107  C    0.089589
   108  C    0.073920
   109  C    0.034967
   110  C   -0.007529
   111  N   -0.324435
   112  C    0.079293
   113  C   -0.164194
   114  C    0.003652
   115  C    0.094940
   116  C    0.131572
   117  C    0.042768
   118  O   -0.185382
   119  C    0.001802
   120  C    0.206197
   121  O   -0.255152
   122  O   -0.292530
   123  C    0.153053
   124  H   -0.021799
   125  H   -0.016499
   126  H   -0.041544
   127  H    0.017012
   128  H   -0.008655
   129  H    0.049778
   130  H    0.022296
   131  H    0.032130
   132  H    0.011481
   133  H    0.037563
   134  H    0.022365
   135  H    0.016093
   136  H    0.005857
   137  H    0.023818
   138  H    0.038510
   139  H    0.037352
   140  H    0.035544
   141  H    0.033147
   142  H    0.013738
   143  H    0.011276
   144  H    0.024410
   145  H    0.012301
   146  H    0.004225
   147  H    0.005508
   148  H    0.003171
   149  H    0.010656
   150  H    0.017317
   151  H    0.030638
   152  H    0.046021
   153  H    0.007267
   154  H    0.047003
   155  H    0.055948
   156  H    0.041803
   157  H    0.045270
   158  H    0.052019
 Sum of Mulliken charges =  -0.00000

 Dipole moment (field-independent basis, Debye):
    X=              4.2869    Y=              5.4685    Z=             -4.5922  Tot=              8.3289
 Quadrupole moment (field-independent basis, Debye-Ang):
   XX=           -508.1240   YY=           -561.0024   ZZ=           -453.3526
   XY=             14.6383   XZ=            -38.9933   YZ=             10.8487

 Normal termination of Gaussian 16 at Thu Sep  9 06:02:35 2021.
