 Gaussian 16, Revision A.03,
 Gaussian 16:  ES64L-G16RevA.03 25-Dec-2016

 -----------------------------------
 #p cam-b3lyp/Def2SVP td=(nstates=5)
 -----------------------------------

 --------------------------------
 TDDFT excited states in gaussian
 --------------------------------
 Symbolic Z-matrix:
 Charge =  0 Multiplicity = 1

                         Standard orientation:
 ---------------------------------------------------------------------
 Center     Atomic      Atomic             Coordinates (Angstroms)
 Number     Number       Type             X           Y           Z
 ---------------------------------------------------------------------
      1         12           0       -6.480934   -0.848048    0.182295
      2          6           0       -6.721256    2.718237    0.372219
      3          6           0       -7.411152   -0.587609   -3.090308
      4          6           0       -6.717306   -4.009636    0.110782
      5          6           0       -6.686427   -0.899571    3.660913
      6          7           0       -6.974260    0.899096   -1.084497
      7          6           0       -6.970194    2.216568   -0.907235
      8          6           0       -7.181009    3.018110   -2.226501
      9          6           0       -7.934834    1.902875   -3.080900
     10          6           0       -7.381304    0.662003   -2.402841
     11          6           0       -9.450064    1.922966   -2.907189
     12          6           0       -5.826263    3.432355   -2.893428
     13          6           0       -5.937415    4.487332   -3.997975
     14          1           0       -4.874994    5.472095   -4.135267
     15          7           0       -6.510795   -2.096269   -1.348686
     16          6           0       -6.903480   -1.815953   -2.614587
     17          6           0       -6.741596   -3.071411   -3.378982
     18          6           0       -6.403403   -4.152484   -2.412028
     19          6           0       -6.558041   -3.459133   -1.158740
     20          6           0       -6.858866   -3.147658   -4.870352
     21          6           0       -6.014401   -5.586182   -2.589003
     22          8           0       -5.990073   -6.409975   -1.611585
     23          6           0       -5.744598   -6.028098   -3.969206
     24          7           0       -6.894635   -2.274653    1.649022
     25          6           0       -6.878804   -3.581477    1.364514
     26          6           0       -6.921071   -4.412531    2.612513
     27          6           0       -6.723343   -3.395656    3.827676
     28          6           0       -6.681235   -2.072665    3.023816
     29          6           0       -8.203997   -5.226238    2.831587
     30          6           0       -5.567686   -3.695937    4.814947
     31          6           0       -4.237693   -3.521485    4.116532
     32          7           0       -6.492480    0.628749    1.772887
     33          6           0       -6.608521    0.384861    3.149015
     34          6           0       -6.677181    1.697969    3.816174
     35          6           0       -6.612577    2.620351    2.773637
     36          6           0       -6.536503    1.927087    1.531908
     37          6           0       -6.842887    1.915663    5.212449
     38          6           0       -6.614941    4.030127    2.418131
     39          8           0       -6.567556    5.084644    3.053145
     40          6           0       -6.808215    4.149085    0.841959
     41          6           0       -5.780214    5.120928    0.330056
     42          8           0       -4.563750    4.845173    0.369320
     43          8           0       -6.396015    6.109414   -0.336446
     44          6           0       -5.430548    7.092780   -0.895927
     45          1           0       -7.920593   -0.647800   -4.054044
     46          1           0       -6.692274   -5.100930    0.140581
     47          1           0       -6.666150   -0.836204    4.750420
     48          1           0       -7.813079    3.900619   -2.126057
     49          1           0       -7.639672    1.925130   -4.129760
     50          1           0       -9.752096    2.618097   -2.123932
     51          1           0       -9.725730    0.903110   -2.638123
     52          1           0       -9.946114    2.126899   -3.856464
     53          1           0       -5.441017    2.594799   -3.474931
     54          1           0       -5.113740    3.771963   -2.140896
     55          1           0       -6.912020    4.976109   -3.985677
     56          1           0       -5.901757    3.978360   -4.961239
     57          1           0       -7.276819   -2.231887   -5.286556
     58          1           0       -7.603637   -3.911637   -5.092528
     59          1           0       -5.912146   -3.408527   -5.343637
     60          1           0       -6.632737   -5.863871   -4.579770
     61          1           0       -5.394687   -7.056949   -3.892549
     62          1           0       -4.960341   -5.400765   -4.393873
     63          1           0       -6.113435   -5.143309    2.623244
     64          1           0       -7.607870   -3.340207    4.462666
     65          1           0       -8.029667   -6.296475    2.945192
     66          1           0       -8.876605   -5.025889    1.998071
     67          1           0       -8.808800   -4.906542    3.679776
     68          1           0       -5.618326   -4.729805    5.154798
     69          1           0       -5.578169   -3.055901    5.697271
     70          1           0       -4.097812   -4.479243    3.616569
     71          1           0       -3.446203   -3.342034    4.844923
     72          1           0       -4.291683   -2.755019    3.343162
     73          1           0       -6.149120    2.712093    5.481439
     74          1           0       -6.643420    1.007719    5.781180
     75          1           0       -7.892054    2.208645    5.248025
     76          1           0       -7.825037    4.503901    0.676725
     77          1           0       -5.716004    8.074154   -0.516912
     78          1           0       -5.431572    6.947747   -1.976376
     79          1           0       -4.404938    7.021966   -0.531992
     80         12           0        6.752099   -0.693258   -0.035236
     81          6           0        6.184825    2.843225    0.189565
     82          6           0        5.530474   -0.536020   -3.216040
     83          6           0        6.816583   -3.864626   -0.110685
     84          6           0        6.837602   -0.760556    3.448135
     85          7           0        5.988458    0.993431   -1.245265
     86          6           0        5.878181    2.302524   -1.076546
     87          6           0        5.489988    3.085900   -2.359198
     88          6           0        4.770467    1.894410   -3.160154
     89          6           0        5.494811    0.705431   -2.532198
     90          6           0        3.288267    1.769264   -2.849096
     91          6           0        6.744184    3.623425   -3.133839
     92          6           0        6.435095    4.655039   -4.221038
     93          1           0        7.389192    5.737711   -4.444656
     94          7           0        6.716268   -1.942188   -1.577132
     95          6           0        6.201727   -1.707662   -2.802497
     96          6           0        6.405042   -2.947211   -3.568220
     97          6           0        6.932882   -3.987896   -2.644592
     98          6           0        6.820302   -3.296187   -1.376142
     99          6           0        6.179641   -3.034692   -5.049760
    100          6           0        7.441350   -5.380443   -2.864767
    101          8           0        7.627233   -6.191406   -1.889766
    102          6           0        7.626315   -5.797509   -4.262375
    103          7           0        6.606675   -2.142172    1.448627
    104          6           0        6.718226   -3.448927    1.152186
    105          6           0        6.858105   -4.282184    2.403790
    106          6           0        7.060998   -3.235834    3.596084
    107          6           0        6.907404   -1.918122    2.805238
    108          6           0        5.679169   -5.199697    2.727328
    109          6           0        8.319347   -3.420313    4.487825
    110          6           0        9.567599   -3.133449    3.684723
    111          7           0        6.736646    0.775065    1.549641
    112          6           0        6.752952    0.529479    2.940148
    113          6           0        6.614573    1.836448    3.614747
    114          6           0        6.503344    2.756653    2.561483
    115          6           0        6.547564    2.069383    1.318431
    116          6           0        6.555846    2.044332    5.021674
    117          6           0        6.347909    4.152018    2.218724
    118          8           0        6.339979    5.206543    2.852476
    119          6           0        6.007688    4.256995    0.669650
    120          6           0        6.891807    5.316282    0.070675
    121          8           0        8.124224    5.157194    0.021216
    122          8           0        6.124100    6.238721   -0.537692
    123          6           0        6.956170    7.304691   -1.156721
    124          1           0        4.955566   -0.637803   -4.136912
    125          1           0        6.948629   -4.948660   -0.080350
    126          1           0        6.953714   -0.686572    4.531519
    127          1           0        4.793877    3.900787   -2.200582
    128          1           0        4.981454    1.950402   -4.224907
    129          1           0        2.987400    2.429128   -2.048963
    130          1           0        3.133266    0.736330   -2.566130
    131          1           0        2.698158    1.924909   -3.756769
    132          1           0        7.155997    2.815874   -3.752728
    133          1           0        7.470357    4.022729   -2.452778
    134          1           0        5.416404    5.052237   -4.134721
    135          1           0        6.444995    4.151035   -5.190526
    136          1           0        5.635166   -2.159883   -5.426144
    137          1           0        5.496521   -3.873823   -5.220273
    138          1           0        7.102388   -3.211419   -5.606499
    139          1           0        6.680176   -5.715276   -4.792023
    140          1           0        8.079609   -6.789491   -4.213774
    141          1           0        8.319629   -5.100722   -4.746566
    142          1           0        7.729480   -4.922908    2.346434
    143          1           0        6.228664   -3.270118    4.314328
    144          1           0        5.966993   -6.263934    2.820169
    145          1           0        4.928239   -5.074540    1.958582
    146          1           0        5.129244   -4.943653    3.631336
    147          1           0        8.397363   -4.457544    4.822821
    148          1           0        8.315949   -2.794959    5.374343
    149          1           0        9.750735   -4.079675    3.166848
    150          1           0       10.395639   -2.876722    4.342353
    151          1           0        9.377340   -2.370885    2.920559
    152          1           0        7.183853    2.898673    5.236642
    153          1           0        6.882884    1.162048    5.567931
    154          1           0        5.485958    2.231360    5.146706
    155          1           0        4.950149    4.509273    0.582873
    156          1           0        6.607069    8.258962   -0.750280
    157          1           0        6.864167    7.158767   -2.249415
    158          1           0        8.007397    7.335300   -0.895127
 ---------------------------------------------------------------------

 SCF Done:  E(RCAM-B3LYP) =  -4069.81158626     A.U. after   19 cycles

 Excitation energies and oscillator strengths:

 Excited State   1:      Singlet-A      1.6653 eV  744.51 nm  f=0.0063  <S**2>=0.000
     309 -> 315       -0.11058
     310 -> 316        0.13083
     311 -> 313       -0.44156
     312 -> 314        0.52582
 This state for optimization and/or second-order correction.
 Total Energy, E(TD-HF/TD-DFT) =  -4069.75038729
 Copying the excited state density for this state as the 1-particle RhoCI density.

 Excited State   2:      Singlet-A      1.6893 eV  733.93 nm  f=0.7369  <S**2>=0.000
     309 -> 315        0.13638
     310 -> 316        0.11377
     311 -> 313        0.52461
     312 -> 314        0.44063

 Excited State   3:      Singlet-A      2.1845 eV  567.55 nm  f=0.0410  <S**2>=0.000
     309 -> 313       -0.20005
     310 -> 314        0.61121
     312 -> 316       -0.25847

 Excited State   4:      Singlet-A      2.1933 eV  565.28 nm  f=0.1482  <S**2>=0.000
     309 -> 313        0.60875
     310 -> 314        0.19830
     311 -> 315       -0.26531

 Excited State   5:      Singlet-A      2.6436 eV  469.00 nm  f=0.0000  <S**2>=0.000
     312 -> 313        0.70709

 The electronic state is 1-A.
 Alpha  occ. eigenvalues --  -46.87866 -46.87546 -19.26339 -19.26219 -19.19077
 Alpha  occ. eigenvalues --  -19.19035 -19.18884 -19.18625 -19.18218 -19.17912
 Alpha  occ. eigenvalues --  -14.42522 -14.42382 -14.41515 -14.41246 -14.39472
 Alpha  occ. eigenvalues --  -14.39241 -14.38652 -14.38481 -10.39137 -10.38962
 Alpha  occ. eigenvalues --  -10.35519 -10.35305 -10.34439 -10.34088 -10.31732
 Alpha  occ. eigenvalues --  -10.31639 -10.31474 -10.31187 -10.30985 -10.30911
 Alpha  occ. eigenvalues --  -10.30635 -10.30570 -10.30282 -10.30274 -10.30242
 Alpha  occ. eigenvalues --  -10.30039 -10.29979 -10.29779 -10.29695 -10.29330
 Alpha  occ. eigenvalues --  -10.29323 -10.29290 -10.28837 -10.28661 -10.28599
 Alpha  occ. eigenvalues --  -10.28573 -10.28433 -10.28288 -10.28198 -10.28017
 Alpha  occ. eigenvalues --  -10.27884 -10.27856 -10.27798 -10.27653 -10.27571
 Alpha  occ. eigenvalues --  -10.27559 -10.27556 -10.27502 -10.27471 -10.27422
 Alpha  occ. eigenvalues --  -10.27398 -10.27365 -10.27359 -10.27277 -10.27215
 Alpha  occ. eigenvalues --  -10.26903 -10.26818 -10.26595 -10.26494 -10.26351
 Alpha  occ. eigenvalues --  -10.26306 -10.26234 -10.26083 -10.26054 -10.25880
 Alpha  occ. eigenvalues --  -10.25869 -10.25824 -10.25716 -10.25482 -10.25299
 Alpha  occ. eigenvalues --  -10.24893 -10.24852 -10.24751 -10.24740 -10.24651
 Alpha  occ. eigenvalues --  -10.24578  -3.16609  -3.16296  -1.91490  -1.91178
 Alpha  occ. eigenvalues --   -1.91077  -1.90919  -1.90767  -1.90604  -1.16688
 Alpha  occ. eigenvalues --   -1.16514  -1.08674  -1.08516  -1.07286  -1.06879
 Alpha  occ. eigenvalues --   -1.06818  -1.06698  -1.04652  -1.04379  -1.03827
 Alpha  occ. eigenvalues --   -1.03550  -1.03300  -1.02926  -1.02477  -1.01996
 Alpha  occ. eigenvalues --   -0.92036  -0.91863  -0.89579  -0.89388  -0.89272
 Alpha  occ. eigenvalues --   -0.89032  -0.88346  -0.88118  -0.87926  -0.87746
 Alpha  occ. eigenvalues --   -0.87671  -0.87573  -0.87348  -0.87028  -0.85064
 Alpha  occ. eigenvalues --   -0.84888  -0.83992  -0.83775  -0.83040  -0.82846
 Alpha  occ. eigenvalues --   -0.82724  -0.82545  -0.81647  -0.81477  -0.80663
 Alpha  occ. eigenvalues --   -0.80330  -0.78867  -0.78532  -0.77288  -0.77037
 Alpha  occ. eigenvalues --   -0.77006  -0.76786  -0.75991  -0.75718  -0.74956
 Alpha  occ. eigenvalues --   -0.74696  -0.72838  -0.72585  -0.71737  -0.71464
 Alpha  occ. eigenvalues --   -0.69964  -0.69662  -0.68950  -0.68717  -0.67707
 Alpha  occ. eigenvalues --   -0.67491  -0.67309  -0.67103  -0.65364  -0.65156
 Alpha  occ. eigenvalues --   -0.64918  -0.64688  -0.64657  -0.64540  -0.64330
 Alpha  occ. eigenvalues --   -0.64099  -0.62356  -0.62159  -0.60511  -0.60241
 Alpha  occ. eigenvalues --   -0.59881  -0.59679  -0.59051  -0.58879  -0.58567
 Alpha  occ. eigenvalues --   -0.58310  -0.57642  -0.57422  -0.57370  -0.57128
 Alpha  occ. eigenvalues --   -0.56374  -0.56093  -0.56043  -0.55771  -0.55589
 Alpha  occ. eigenvalues --   -0.55395  -0.55346  -0.55137  -0.54580  -0.54377
 Alpha  occ. eigenvalues --   -0.53978  -0.53797  -0.53365  -0.53297  -0.53122
 Alpha  occ. eigenvalues --   -0.53032  -0.52979  -0.52836  -0.52791  -0.52577
 Alpha  occ. eigenvalues --   -0.52493  -0.52308  -0.51963  -0.51755  -0.51698
 Alpha  occ. eigenvalues --   -0.51553  -0.51257  -0.51084  -0.50654  -0.50394
 Alpha  occ. eigenvalues --   -0.50094  -0.49992  -0.49874  -0.49768  -0.49590
 Alpha  occ. eigenvalues --   -0.49384  -0.49280  -0.49168  -0.49086  -0.48980
 Alpha  occ. eigenvalues --   -0.48655  -0.48525  -0.48506  -0.48440  -0.48271
 Alpha  occ. eigenvalues --   -0.48238  -0.47765  -0.47489  -0.47364  -0.47018
 Alpha  occ. eigenvalues --   -0.46863  -0.46637  -0.46601  -0.46445  -0.46423
 Alpha  occ. eigenvalues --   -0.46220  -0.46164  -0.45970  -0.45878  -0.45698
 Alpha  occ. eigenvalues --   -0.45260  -0.45103  -0.44637  -0.44582  -0.44397
 Alpha  occ. eigenvalues --   -0.44367  -0.44209  -0.44165  -0.44083  -0.44010
 Alpha  occ. eigenvalues --   -0.43978  -0.43833  -0.43553  -0.43458  -0.43437
 Alpha  occ. eigenvalues --   -0.43272  -0.43090  -0.42813  -0.42779  -0.42757
 Alpha  occ. eigenvalues --   -0.42711  -0.42455  -0.42074  -0.41861  -0.41767
 Alpha  occ. eigenvalues --   -0.41615  -0.41547  -0.41352  -0.41208  -0.40946
 Alpha  occ. eigenvalues --   -0.40901  -0.40873  -0.40632  -0.40629  -0.40596
 Alpha  occ. eigenvalues --   -0.40388  -0.40334  -0.40128  -0.39498  -0.39332
 Alpha  occ. eigenvalues --   -0.38533  -0.38248  -0.37840  -0.37553  -0.37384
 Alpha  occ. eigenvalues --   -0.37344  -0.37160  -0.37088  -0.36770  -0.36651
 Alpha  occ. eigenvalues --   -0.36255  -0.36106  -0.34352  -0.34138  -0.33829
 Alpha  occ. eigenvalues --   -0.33738  -0.33252  -0.33062  -0.31414  -0.31183
 Alpha  occ. eigenvalues --   -0.31102  -0.30858  -0.30077  -0.29815  -0.29517
 Alpha  occ. eigenvalues --   -0.29383  -0.29220  -0.29089  -0.24147  -0.23919
 Alpha  occ. eigenvalues --   -0.21194  -0.21004
 Alpha virt. eigenvalues --   -0.08841  -0.08679  -0.01817  -0.01573  -0.00128
 Alpha virt. eigenvalues --    0.00076   0.02144   0.02333   0.03039   0.03327
 Alpha virt. eigenvalues --    0.04639   0.04842   0.05041   0.05294   0.06080

 Mulliken charges:
               1
     1  Mg   0.838444
     2  C   -0.003091
     3  C   -0.094515
     4  C   -0.045777
     5  C   -0.063845
     6  N   -0.256739
     7  C   -0.052572
     8  C   -0.013930
     9  C   -0.086934
    10  C    0.046135
    11  C    0.104800
    12  C    0.053627
    13  C   -0.071558
    14  H    0.035496
    15  N   -0.433119
    16  C    0.168233
    17  C   -0.177456
    18  C   -0.004076
    19  C    0.148602
    20  C    0.110241
    21  C    0.012214
    22  O   -0.249401
    23  C    0.062585
    24  N   -0.341145
    25  C    0.041195
    26  C   -0.028202
    27  C   -0.024032
    28  C    0.074901
    29  C    0.076113
    30  C    0.035075
    31  C   -0.004502
    32  N   -0.310543
    33  C    0.080501
    34  C   -0.169412
    35  C    0.008564
    36  C    0.082998
    37  C    0.127229
    38  C    0.046367
    39  O   -0.187802
    40  C   -0.005411
    41  C    0.213041
    42  O   -0.257196
    43  O   -0.304784
    44  C    0.157548
    45  H   -0.017706
    46  H   -0.016716
    47  H   -0.041226
    48  H    0.001150
    49  H   -0.004392
    50  H    0.025631
    51  H    0.016577
    52  H    0.016639
    53  H    0.010522
    54  H    0.043986
    55  H    0.018302
    56  H    0.017559
    57  H    0.005688
    58  H    0.026953
    59  H    0.038835
    60  H    0.037381
    61  H    0.035800
    62  H    0.030883
    63  H    0.016625
    64  H    0.009629
    65  H    0.023333
    66  H    0.012554
    67  H    0.004873
    68  H    0.006492
    69  H    0.004886
    70  H    0.008829
    71  H    0.018134
    72  H    0.028876
    73  H    0.048076
    74  H    0.009236
    75  H    0.046168
    76  H    0.035274
    77  H    0.043389
    78  H    0.045986
    79  H    0.053906
    80  Mg   0.837983
    81  C   -0.016655
    82  C   -0.087870
    83  C   -0.045552
    84  C   -0.064799
    85  N   -0.254556
    86  C   -0.049371
    87  C   -0.015188
    88  C   -0.090648
    89  C    0.045929
    90  C    0.114338
    91  C    0.062591
    92  C   -0.077629
    93  H    0.034486
    94  N   -0.423456
    95  C    0.162858
    96  C   -0.174905
    97  C   -0.007983
    98  C    0.152055
    99  C    0.099548
   100  C    0.015411
   101  O   -0.253355
   102  C    0.061290
   103  N   -0.349993
   104  C    0.037503
   105  C   -0.019808
   106  C   -0.034832
   107  C    0.089045
   108  C    0.073689
   109  C    0.034758
   110  C   -0.007617
   111  N   -0.324245
   112  C    0.078686
   113  C   -0.162884
   114  C    0.002733
   115  C    0.096186
   116  C    0.131349
   117  C    0.042913
   118  O   -0.187264
   119  C    0.000658
   120  C    0.211128
   121  O   -0.251394
   122  O   -0.305216
   123  C    0.152158
   124  H   -0.020256
   125  H   -0.015774
   126  H   -0.040489
   127  H    0.000060
   128  H   -0.005044
   129  H    0.024466
   130  H    0.014411
   131  H    0.015421
   132  H    0.013632
   133  H    0.037636
   134  H    0.020918
   135  H    0.019113
   136  H    0.008307
   137  H    0.025598
   138  H    0.039399
   139  H    0.037971
   140  H    0.036130
   141  H    0.033717
   142  H    0.014166
   143  H    0.012446
   144  H    0.024881
   145  H    0.011923
   146  H    0.005563
   147  H    0.006052
   148  H    0.003613
   149  H    0.010810
   150  H    0.017753
   151  H    0.030194
   152  H    0.045931
   153  H    0.008195
   154  H    0.047995
   155  H    0.036680
   156  H    0.044054
   157  H    0.049149
   158  H    0.053309
 Sum of Mulliken charges =  -0.00000

 Dipole moment (field-independent basis, Debye):
    X=             -4.3636    Y=             -2.5931    Z=             -7.2759  Tot=              8.8715
 Quadrupole moment (field-independent basis, Debye-Ang):
   XX=           -518.8942   YY=           -553.2626   ZZ=           -447.3565
   XY=             -6.3724   XZ=              8.3731   YZ=            -47.0191

 Normal termination of Gaussian 16 at Sat Sep 11 14:58:01 2021.
