 Gaussian 16, Revision A.03,
 Gaussian 16:  ES64L-G16RevA.03 25-Dec-2016

 -----------------------------------
 #p cam-b3lyp/Def2SVP td=(nstates=5)
 -----------------------------------

 --------------------------------
 TDDFT excited states in gaussian
 --------------------------------
 Symbolic Z-matrix:
 Charge =  0 Multiplicity = 1

                         Standard orientation:
 ---------------------------------------------------------------------
 Center     Atomic      Atomic             Coordinates (Angstroms)
 Number     Number       Type             X           Y           Z
 ---------------------------------------------------------------------
      1         12           0       -6.539090   -0.706810    0.180358
      2          6           0       -6.702231    2.868882    0.174713
      3          6           0       -7.465120   -0.605793   -3.102222
      4          6           0       -6.843730   -3.861731    0.281771
      5          6           0       -6.743889   -0.563474    3.656444
      6          7           0       -6.995204    0.978651   -1.180462
      7          6           0       -6.962593    2.303452   -1.075545
      8          6           0       -7.156714    3.035975   -2.436832
      9          6           0       -7.934883    1.892202   -3.229444
     10          6           0       -7.407941    0.678625   -2.484134
     11          6           0       -9.449237    1.954483   -3.058118
     12          6           0       -5.793673    3.383758   -3.124508
     13          6           0       -5.882572    4.378873   -4.285196
     14          1           0       -4.799198    5.331478   -4.475441
     15          7           0       -6.596678   -2.035991   -1.280056
     16          6           0       -6.983856   -1.816944   -2.559664
     17          6           0       -6.849514   -3.115548   -3.254115
     18          6           0       -6.534261   -4.149145   -2.229231
     19          6           0       -6.673254   -3.385082   -1.015862
     20          6           0       -6.969157   -3.270729   -4.739158
     21          6           0       -6.176406   -5.598444   -2.327237
     22          8           0       -6.169383   -6.367857   -1.306194
     23          6           0       -5.916909   -6.120938   -3.681011
     24          7           0       -6.982766   -2.041759    1.722660
     25          6           0       -6.995308   -3.362228    1.510090
     26          6           0       -7.054885   -4.122648    2.801659
     27          6           0       -6.834626   -3.045316    3.959500
     28          6           0       -6.764358   -1.769507    3.084488
     29          6           0       -8.354976   -4.895255    3.064057
     30          6           0       -5.685224   -3.316014    4.962504
     31          6           0       -4.352127   -3.208798    4.256491
     32          7           0       -6.517932    0.854708    1.687759
     33          6           0       -6.638517    0.689043    3.075091
     34          6           0       -6.678462    2.037864    3.669360
     35          6           0       -6.594478    2.900211    2.577962
     36          6           0       -6.534023    2.138564    1.376076
     37          6           0       -6.838722    2.335156    5.051520
     38          6           0       -6.566571    4.288146    2.145855
     39          8           0       -6.496100    5.374558    2.722253
     40          6           0       -6.758028    4.324832    0.565404
     41          6           0       -5.709534    5.244784    0.001793
     42          8           0       -4.499291    4.945387    0.056909
     43          8           0       -6.304179    6.208390   -0.718211
     44          6           0       -5.317980    7.138592   -1.330003
     45          1           0       -7.976229   -0.707609   -4.061566
     46          1           0       -6.842260   -4.950046    0.371249
     47          1           0       -6.721697   -0.441043    4.740866
     48          1           0       -7.769524    3.936102   -2.385251
     49          1           0       -7.639839    1.850657   -4.277750
     50          1           0       -9.735789    2.697788   -2.314272
     51          1           0       -9.746730    0.957068   -2.733843
     52          1           0       -9.941246    2.116836   -4.017465
     53          1           0       -5.426902    2.507516   -3.659054
     54          1           0       -5.073601    3.748566   -2.391201
     55          1           0       -6.846386    4.888523   -4.300319
     56          1           0       -5.858402    3.817309   -5.219145
     57          1           0       -7.367443   -2.370292   -5.205126
     58          1           0       -7.730367   -4.029459   -4.919706
     59          1           0       -6.028531   -3.577487   -5.196821
     60          1           0       -6.801601   -5.971224   -4.300247
     61          1           0       -5.589262   -7.151370   -3.547940
     62          1           0       -5.119499   -5.534863   -4.138834
     63          1           0       -6.263216   -4.869013    2.852904
     64          1           0       -7.717427   -2.936118    4.589906
     65          1           0       -8.203745   -5.961188    3.236166
     66          1           0       -9.023521   -4.726334    2.220372
     67          1           0       -8.952304   -4.516644    3.893074
     68          1           0       -5.758012   -4.328404    5.358376
     69          1           0       -5.681436   -2.628584    5.808481
     70          1           0       -4.233218   -4.195274    3.809773
     71          1           0       -3.556578   -3.006896    4.974508
     72          1           0       -4.389941   -2.484808    3.442307
     73          1           0       -6.127779    3.129943    5.277003
     74          1           0       -6.658625    1.455595    5.669210
     75          1           0       -7.881298    2.652233    5.070303
     76          1           0       -7.767032    4.691950    0.380317
     77          1           0       -5.581980    8.145169   -1.005442
     78          1           0       -5.322682    6.934716   -2.400898
     79          1           0       -4.293955    7.065666   -0.962044
     80         12           0        6.695031   -0.849666   -0.035408
     81          6           0        6.535176    2.707615    0.411000
     82          6           0        5.772293   -0.334042   -3.278441
     83          6           0        6.388286   -3.992628   -0.343786
     84          6           0        6.479011   -1.154601    3.429564
     85          7           0        6.241615    0.994414   -1.169444
     86          6           0        6.273905    2.293202   -0.911657
     87          6           0        6.090693    3.200943   -2.157452
     88          6           0        5.304514    2.163210   -3.097605
     89          6           0        5.827092    0.854833   -2.507920
     90          6           0        3.797091    2.203466   -2.909473
     91          6           0        7.460482    3.627654   -2.792749
     92          6           0        7.368613    4.758551   -3.819576
     93          1           0        8.459993    5.726325   -3.888659
     94          7           0        6.640690   -1.980966   -1.665065
     95          6           0        6.262428   -1.604617   -2.904646
     96          6           0        6.380590   -2.807125   -3.743807
     97          6           0        6.701559   -3.963545   -2.863798
     98          6           0        6.565814   -3.347589   -1.559089
     99          6           0        6.271641   -2.768845   -5.240491
    100          6           0        7.057612   -5.391154   -3.148982
    101          8           0        7.063235   -6.280931   -2.226426
    102          6           0        7.308452   -5.735756   -4.556046
    103          7           0        6.254316   -2.363070    1.320215
    104          6           0        6.234287   -3.651353    0.935719
    105          6           0        6.168513   -4.575553    2.128161
    106          6           0        6.393450   -3.642774    3.407582
    107          6           0        6.464506   -2.267346    2.708634
    108          6           0        4.865916   -5.358350    2.292055
    109          6           0        7.541567   -4.040334    4.375278
    110          6           0        8.878079   -3.859205    3.692411
    111          7           0        6.721094    0.502414    1.649601
    112          6           0        6.591241    0.166350    3.014987
    113          6           0        6.552991    1.433485    3.773502
    114          6           0        6.640780    2.427225    2.786967
    115          6           0        6.707275    1.822519    1.502673
    116          6           0        6.401399    1.554653    5.183630
    117          6           0        6.681614    3.850492    2.539245
    118          8           0        6.745847    4.854102    3.248020
    119          6           0        6.487617    4.098016    0.981207
    120          6           0        7.538523    5.075875    0.531860
    121          8           0        8.743061    4.768194    0.563664
    122          8           0        6.939717    6.124474   -0.061639
    123          6           0        7.941598    7.116753   -0.534339
    124          1           0        5.268772   -0.303056   -4.245070
    125          1           0        6.387554   -5.084311   -0.385102
    126          1           0        6.511670   -1.166615    4.521112
    127          1           0        5.485507    4.084015   -1.991010
    128          1           0        5.609351    2.261962   -4.136204
    129          1           0        3.510635    2.841932   -2.087019
    130          1           0        3.497219    1.181588   -2.717408
    131          1           0        3.308002    2.490343   -3.844805
    132          1           0        7.823933    2.817311   -3.437724
    133          1           0        8.169174    3.888084   -2.030801
    134          1           0        6.400715    5.272957   -3.780721
    135          1           0        7.399956    4.321687   -4.820674
    136          1           0        5.868547   -1.810355   -5.590081
    137          1           0        5.510407   -3.503472   -5.524574
    138          1           0        7.210344   -3.022292   -5.737767
    139          1           0        6.426650   -5.501954   -5.147842
    140          1           0        7.634944   -6.777495   -4.548055
    141          1           0        8.117858   -5.100546   -4.932860
    142          1           0        6.959289   -5.314619    2.088707
    143          1           0        5.505566   -3.620058    4.056419
    144          1           0        5.016408   -6.453918    2.326119
    145          1           0        4.202434   -5.090721    1.480451
    146          1           0        4.276336   -5.095484    3.168689
    147          1           0        7.467351   -5.098870    4.636339
    148          1           0        7.538048   -3.478711    5.303484
    149          1           0        8.990316   -4.784985    3.120204
    150          1           0        9.672570   -3.751076    4.428029
    151          1           0        8.844663   -3.030586    2.975526
    152          1           0        7.106194    2.308286    5.508905
    153          1           0        6.574231    0.604728    5.685165
    154          1           0        5.354626    1.864822    5.241334
    155          1           0        5.478598    4.485088    0.834127
    156          1           0        7.675479    8.078430   -0.084845
    157          1           0        7.925028    7.055133   -1.638724
    158          1           0        8.963305    6.999105   -0.192671
 ---------------------------------------------------------------------

 SCF Done:  E(RCAM-B3LYP) =  -4069.81160730     A.U. after   19 cycles

 Excitation energies and oscillator strengths:

 Excited State   1:      Singlet-A      1.6655 eV  744.42 nm  f=0.0084  <S**2>=0.000
     309 -> 315       -0.10994
     310 -> 316        0.13143
     311 -> 313       -0.43885
     312 -> 314        0.52808
 This state for optimization and/or second-order correction.
 Total Energy, E(TD-HF/TD-DFT) =  -4069.75040116
 Copying the excited state density for this state as the 1-particle RhoCI density.

 Excited State   2:      Singlet-A      1.6892 eV  733.99 nm  f=0.7353  <S**2>=0.000
     309 -> 315        0.13697
     310 -> 316        0.11302
     311 -> 313        0.52688
     312 -> 314        0.43793

 Excited State   3:      Singlet-A      2.1845 eV  567.57 nm  f=0.0411  <S**2>=0.000
     309 -> 313       -0.19809
     310 -> 314        0.61188
     312 -> 316       -0.25865

 Excited State   4:      Singlet-A      2.1935 eV  565.23 nm  f=0.1477  <S**2>=0.000
     309 -> 313        0.60937
     310 -> 314        0.19630
     311 -> 315       -0.26568

 Excited State   5:      Singlet-A      2.6490 eV  468.04 nm  f=0.0000  <S**2>=0.000
     312 -> 313        0.70710

 The electronic state is 1-A.
 Alpha  occ. eigenvalues --  -46.87853 -46.87548 -19.26341 -19.26222 -19.19076
 Alpha  occ. eigenvalues --  -19.19038 -19.18865 -19.18629 -19.18210 -19.17918
 Alpha  occ. eigenvalues --  -14.42509 -14.42384 -14.41503 -14.41248 -14.39458
 Alpha  occ. eigenvalues --  -14.39243 -14.38640 -14.38484 -10.39135 -10.38965
 Alpha  occ. eigenvalues --  -10.35499 -10.35309 -10.34431 -10.34093 -10.31739
 Alpha  occ. eigenvalues --  -10.31639 -10.31463 -10.31189 -10.30972 -10.30913
 Alpha  occ. eigenvalues --  -10.30623 -10.30558 -10.30285 -10.30261 -10.30245
 Alpha  occ. eigenvalues --  -10.30040 -10.29969 -10.29780 -10.29682 -10.29332
 Alpha  occ. eigenvalues --  -10.29309 -10.29293 -10.28826 -10.28653 -10.28599
 Alpha  occ. eigenvalues --  -10.28568 -10.28420 -10.28291 -10.28187 -10.28016
 Alpha  occ. eigenvalues --  -10.27888 -10.27843 -10.27786 -10.27638 -10.27560
 Alpha  occ. eigenvalues --  -10.27551 -10.27547 -10.27493 -10.27460 -10.27422
 Alpha  occ. eigenvalues --  -10.27401 -10.27367 -10.27362 -10.27276 -10.27208
 Alpha  occ. eigenvalues --  -10.26909 -10.26806 -10.26593 -10.26466 -10.26357
 Alpha  occ. eigenvalues --  -10.26296 -10.26229 -10.26071 -10.26055 -10.25871
 Alpha  occ. eigenvalues --  -10.25867 -10.25826 -10.25721 -10.25473 -10.25294
 Alpha  occ. eigenvalues --  -10.24881 -10.24839 -10.24755 -10.24737 -10.24652
 Alpha  occ. eigenvalues --  -10.24579  -3.16596  -3.16298  -1.91477  -1.91180
 Alpha  occ. eigenvalues --   -1.91064  -1.90906  -1.90769  -1.90606  -1.16689
 Alpha  occ. eigenvalues --   -1.16517  -1.08667  -1.08522  -1.07266  -1.06883
 Alpha  occ. eigenvalues --   -1.06822  -1.06698  -1.04640  -1.04381  -1.03815
 Alpha  occ. eigenvalues --   -1.03552  -1.03287  -1.02928  -1.02465  -1.01998
 Alpha  occ. eigenvalues --   -0.92025  -0.91866  -0.89569  -0.89390  -0.89261
 Alpha  occ. eigenvalues --   -0.89032  -0.88336  -0.88118  -0.87915  -0.87734
 Alpha  occ. eigenvalues --   -0.87674  -0.87574  -0.87331  -0.87031  -0.85052
 Alpha  occ. eigenvalues --   -0.84888  -0.83984  -0.83776  -0.83022  -0.82849
 Alpha  occ. eigenvalues --   -0.82712  -0.82546  -0.81641  -0.81479  -0.80653
 Alpha  occ. eigenvalues --   -0.80332  -0.78852  -0.78535  -0.77277  -0.77037
 Alpha  occ. eigenvalues --   -0.76998  -0.76787  -0.75983  -0.75719  -0.74947
 Alpha  occ. eigenvalues --   -0.74696  -0.72826  -0.72587  -0.71727  -0.71465
 Alpha  occ. eigenvalues --   -0.69956  -0.69663  -0.68939  -0.68718  -0.67695
 Alpha  occ. eigenvalues --   -0.67493  -0.67296  -0.67103  -0.65354  -0.65157
 Alpha  occ. eigenvalues --   -0.64908  -0.64679  -0.64659  -0.64541  -0.64320
 Alpha  occ. eigenvalues --   -0.64100  -0.62352  -0.62161  -0.60496  -0.60243
 Alpha  occ. eigenvalues --   -0.59869  -0.59679  -0.59041  -0.58881  -0.58557
 Alpha  occ. eigenvalues --   -0.58313  -0.57635  -0.57426  -0.57360  -0.57130
 Alpha  occ. eigenvalues --   -0.56362  -0.56096  -0.56039  -0.55772  -0.55575
 Alpha  occ. eigenvalues --   -0.55388  -0.55349  -0.55138  -0.54575  -0.54378
 Alpha  occ. eigenvalues --   -0.53967  -0.53797  -0.53352  -0.53285  -0.53124
 Alpha  occ. eigenvalues --   -0.53034  -0.52971  -0.52819  -0.52792  -0.52579
 Alpha  occ. eigenvalues --   -0.52486  -0.52309  -0.51953  -0.51759  -0.51685
 Alpha  occ. eigenvalues --   -0.51554  -0.51248  -0.51087  -0.50633  -0.50397
 Alpha  occ. eigenvalues --   -0.50083  -0.49976  -0.49875  -0.49769  -0.49576
 Alpha  occ. eigenvalues --   -0.49386  -0.49268  -0.49158  -0.49089  -0.48981
 Alpha  occ. eigenvalues --   -0.48647  -0.48510  -0.48496  -0.48441  -0.48271
 Alpha  occ. eigenvalues --   -0.48242  -0.47754  -0.47491  -0.47352  -0.47020
 Alpha  occ. eigenvalues --   -0.46853  -0.46626  -0.46602  -0.46445  -0.46412
 Alpha  occ. eigenvalues --   -0.46211  -0.46166  -0.45972  -0.45871  -0.45701
 Alpha  occ. eigenvalues --   -0.45250  -0.45103  -0.44628  -0.44568  -0.44399
 Alpha  occ. eigenvalues --   -0.44368  -0.44198  -0.44154  -0.44072  -0.44011
 Alpha  occ. eigenvalues --   -0.43980  -0.43836  -0.43547  -0.43447  -0.43438
 Alpha  occ. eigenvalues --   -0.43273  -0.43080  -0.42815  -0.42781  -0.42752
 Alpha  occ. eigenvalues --   -0.42706  -0.42456  -0.42065  -0.41862  -0.41757
 Alpha  occ. eigenvalues --   -0.41604  -0.41549  -0.41352  -0.41197  -0.40936
 Alpha  occ. eigenvalues --   -0.40883  -0.40873  -0.40631  -0.40623  -0.40596
 Alpha  occ. eigenvalues --   -0.40388  -0.40322  -0.40128  -0.39491  -0.39333
 Alpha  occ. eigenvalues --   -0.38523  -0.38248  -0.37830  -0.37551  -0.37373
 Alpha  occ. eigenvalues --   -0.37332  -0.37161  -0.37089  -0.36767  -0.36653
 Alpha  occ. eigenvalues --   -0.36248  -0.36107  -0.34340  -0.34140  -0.33826
 Alpha  occ. eigenvalues --   -0.33741  -0.33240  -0.33064  -0.31395  -0.31187
 Alpha  occ. eigenvalues --   -0.31090  -0.30860  -0.30070  -0.29821  -0.29502
 Alpha  occ. eigenvalues --   -0.29371  -0.29223  -0.29093  -0.24135  -0.23921
 Alpha  occ. eigenvalues --   -0.21182  -0.21006
 Alpha virt. eigenvalues --   -0.08827  -0.08681  -0.01804  -0.01575  -0.00113
 Alpha virt. eigenvalues --    0.00073   0.02154   0.02329   0.03055   0.03327
 Alpha virt. eigenvalues --    0.04650   0.04842   0.05043   0.05291   0.06088

 Mulliken charges:
               1
     1  Mg   0.838524
     2  C   -0.003088
     3  C   -0.094453
     4  C   -0.045775
     5  C   -0.063870
     6  N   -0.256732
     7  C   -0.052582
     8  C   -0.013954
     9  C   -0.086938
    10  C    0.046165
    11  C    0.104802
    12  C    0.053613
    13  C   -0.071528
    14  H    0.035375
    15  N   -0.433131
    16  C    0.168303
    17  C   -0.177365
    18  C   -0.003998
    19  C    0.148633
    20  C    0.110230
    21  C    0.012310
    22  O   -0.249411
    23  C    0.062519
    24  N   -0.341127
    25  C    0.041198
    26  C   -0.028190
    27  C   -0.024039
    28  C    0.074881
    29  C    0.076128
    30  C    0.035100
    31  C   -0.004502
    32  N   -0.310526
    33  C    0.080451
    34  C   -0.169467
    35  C    0.008531
    36  C    0.083016
    37  C    0.127243
    38  C    0.046307
    39  O   -0.187940
    40  C   -0.005418
    41  C    0.213008
    42  O   -0.257230
    43  O   -0.304751
    44  C    0.157618
    45  H   -0.017698
    46  H   -0.016714
    47  H   -0.041274
    48  H    0.001086
    49  H   -0.004360
    50  H    0.025602
    51  H    0.016582
    52  H    0.016624
    53  H    0.010679
    54  H    0.043966
    55  H    0.018247
    56  H    0.017624
    57  H    0.005674
    58  H    0.026940
    59  H    0.039051
    60  H    0.037322
    61  H    0.035889
    62  H    0.031125
    63  H    0.016605
    64  H    0.009610
    65  H    0.023316
    66  H    0.012566
    67  H    0.004851
    68  H    0.006442
    69  H    0.004872
    70  H    0.008794
    71  H    0.018004
    72  H    0.028959
    73  H    0.048016
    74  H    0.009217
    75  H    0.046134
    76  H    0.035248
    77  H    0.043309
    78  H    0.046021
    79  H    0.053728
    80  Mg   0.838067
    81  C   -0.016656
    82  C   -0.087835
    83  C   -0.045597
    84  C   -0.064786
    85  N   -0.254585
    86  C   -0.049367
    87  C   -0.015152
    88  C   -0.090657
    89  C    0.045917
    90  C    0.114369
    91  C    0.062576
    92  C   -0.077671
    93  H    0.034530
    94  N   -0.423448
    95  C    0.162862
    96  C   -0.174944
    97  C   -0.008024
    98  C    0.152067
    99  C    0.099561
   100  C    0.015385
   101  O   -0.253348
   102  C    0.061291
   103  N   -0.350006
   104  C    0.037541
   105  C   -0.019833
   106  C   -0.034794
   107  C    0.089038
   108  C    0.073682
   109  C    0.034764
   110  C   -0.007623
   111  N   -0.324237
   112  C    0.078702
   113  C   -0.162877
   114  C    0.002690
   115  C    0.096220
   116  C    0.131352
   117  C    0.042868
   118  O   -0.187340
   119  C    0.000688
   120  C    0.211155
   121  O   -0.251366
   122  O   -0.305270
   123  C    0.152144
   124  H   -0.020199
   125  H   -0.015765
   126  H   -0.040507
   127  H   -0.000038
   128  H   -0.004957
   129  H    0.024240
   130  H    0.014475
   131  H    0.015584
   132  H    0.013643
   133  H    0.037626
   134  H    0.020951
   135  H    0.019179
   136  H    0.008389
   137  H    0.025500
   138  H    0.039425
   139  H    0.037893
   140  H    0.036118
   141  H    0.033754
   142  H    0.014159
   143  H    0.012453
   144  H    0.024922
   145  H    0.011951
   146  H    0.005626
   147  H    0.006061
   148  H    0.003581
   149  H    0.010819
   150  H    0.017744
   151  H    0.030185
   152  H    0.045911
   153  H    0.008191
   154  H    0.047958
   155  H    0.036480
   156  H    0.044058
   157  H    0.049219
   158  H    0.053321
 Sum of Mulliken charges =  -0.00000

 Dipole moment (field-independent basis, Debye):
    X=             -4.2236    Y=             -2.2602    Z=             -7.4776  Tot=              8.8804
 Quadrupole moment (field-independent basis, Debye-Ang):
   XX=           -517.8034   YY=           -551.2354   ZZ=           -447.9790
   XY=             -2.2445   XZ=              0.0292   YZ=            -48.1954

 Normal termination of Gaussian 16 at Sat Sep 11 17:32:07 2021.
