 Gaussian 16, Revision A.03,
 Gaussian 16:  ES64L-G16RevA.03 25-Dec-2016

 -----------------------------------
 #p cam-b3lyp/Def2SVP td=(nstates=5)
 -----------------------------------

 --------------------------------
 TDDFT excited states in gaussian
 --------------------------------
 Symbolic Z-matrix:
 Charge =  0 Multiplicity = 1

                         Standard orientation:
 ---------------------------------------------------------------------
 Center     Atomic      Atomic             Coordinates (Angstroms)
 Number     Number       Type             X           Y           Z
 ---------------------------------------------------------------------
      1         12           0        5.056064   -1.277840    0.124147
      2          6           0        6.013992    1.898430   -1.219689
      3          6           0        6.300110   -0.218541    3.119694
      4          6           0        4.636352   -4.224961    1.217282
      5          6           0        4.944136   -2.464021   -3.150927
      6          7           0        6.009170    0.621020    0.745891
      7          6           0        6.263303    1.781613    0.149560
      8          6           0        6.749415    2.888052    1.132851
      9          6           0        7.326487    1.958413    2.292487
     10          6           0        6.470822    0.724999    2.063463
     11          6           0        8.792006    1.582307    2.099358
     12          6           0        5.573161    3.783714    1.648552
     13          6           0        5.996159    5.078876    2.347824
     14          1           0        5.177258    6.268880    2.172787
     15          7           0        4.958753   -1.955176    1.977414
     16          6           0        5.509263   -1.387140    3.077214
     17          6           0        5.157186   -2.268879    4.210906
     18          6           0        4.519472   -3.493944    3.653563
     19          6           0        4.705450   -3.282663    2.240711
     20          6           0        5.384869   -1.897141    5.643987
     21          6           0        3.858194   -4.673623    4.293251
     22          8           0        3.578798   -5.735080    3.637645
     23          6           0        3.623190   -4.587249    5.745957
     24          7           0        5.035948   -3.147374   -0.804332
     25          6           0        4.773931   -4.259995   -0.109779
     26          6           0        4.534467   -5.428080   -1.019820
     27          6           0        4.447563   -4.827292   -2.496727
     28          6           0        4.750799   -3.344928   -2.166705
     29          6           0        5.596640   -6.535463   -0.981030
     30          6           0        3.173634   -5.154993   -3.315344
     31          6           0        1.974456   -4.476204   -2.692193
     32          7           0        5.235998   -0.417661   -1.860484
     33          6           0        5.179187   -1.100889   -3.083858
     34          6           0        5.460821   -0.114507   -4.143008
     35          6           0        5.679671    1.078310   -3.456613
     36          6           0        5.569261    0.845846   -2.055877
     37          6           0        5.546464   -0.389407   -5.536396
     38          6           0        6.005399    2.489935   -3.579384
     39          8           0        6.123075    3.273912   -4.522266
     40          6           0        6.355005    3.051323   -2.130783
     41          6           0        5.599424    4.339337   -1.947952
     42          8           0        4.353493    4.345651   -1.877375
     43          8           0        6.462378    5.322322   -1.648628
     44          6           0        5.774244    6.621873   -1.425488
     45          1           0        6.867522   -0.085725    4.042919
     46          1           0        4.382868   -5.235408    1.544665
     47          1           0        4.843113   -2.743196   -4.201312
     48          1           0        7.539759    3.528748    0.741329
     49          1           0        7.134403    2.374605    3.281229
     50          1           0        9.162703    1.909771    1.128136
     51          1           0        8.825608    0.495125    2.172842
     52          1           0        9.399938    1.957238    2.923143
     53          1           0        5.074336    3.280176    2.476612
     54          1           0        4.884170    4.020570    0.837061
     55          1           0        7.046176    5.307162    2.162734
     56          1           0        5.939249    4.919891    3.424711
     57          1           0        6.018259   -1.015442    5.733256
     58          1           0        5.971236   -2.699282    6.091706
     59          1           0        4.449276   -1.776661    6.190323
     60          1           0        4.575570   -4.443328    6.256651
     61          1           0        3.062051   -5.481894    6.013509
     62          1           0        3.026041   -3.699146    5.954845
     63          1           0        3.594915   -5.924317   -0.780201
     64          1           0        5.265905   -5.174097   -3.128168
     65          1           0        5.194791   -7.519298   -0.737532
     66          1           0        6.365831   -6.239822   -0.268127
     67          1           0        6.178797   -6.642681   -1.895915
     68          1           0        2.978934   -6.226827   -3.300902
     69          1           0        3.240233   -4.844031   -4.357994
     70          1           0        1.682693   -5.171307   -1.905721
     71          1           0        1.177372   -4.361786   -3.427568
     72          1           0        2.253173   -3.538374   -2.211281
     73          1           0        5.012472    0.416520   -6.039689
     74          1           0        5.114367   -1.360827   -5.775640
     75          1           0        6.626476   -0.365785   -5.680869
     76          1           0        7.433736    3.202314   -2.105052
     77          1           0        6.223235    7.344075   -2.107446
     78          1           0        5.838771    6.827190   -0.356804
     79          1           0        4.728678    6.672437   -1.731385
     80         12           0       -5.221937    1.262928    0.391926
     81          6           0       -5.872872   -2.120252   -0.612783
     82          6           0       -4.253426    1.872947   -2.821246
     83          6           0       -4.215361    4.117899    1.342362
     84          6           0       -5.140172    0.122717    3.684185
     85          7           0       -5.121391   -0.036469   -1.395179
     86          6           0       -5.452695   -1.288706   -1.671742
     87          6           0       -5.403332   -1.648771   -3.180871
     88          6           0       -4.356613   -0.529528   -3.661021
     89          6           0       -4.611452    0.521957   -2.583009
     90          6           0       -2.907936   -0.976995   -3.558787
     91          6           0       -6.795295   -1.472467   -3.883281
     92          6           0       -6.896270   -2.097218   -5.276565
     93          1           0       -8.167902   -2.688539   -5.683720
     94          7           0       -4.828499    2.900822   -0.657398
     95          6           0       -4.472776    2.968439   -1.957461
     96          6           0       -4.276339    4.397331   -2.247027
     97          6           0       -4.384597    5.153917   -0.970093
     98          6           0       -4.461352    4.060843   -0.021739
     99          6           0       -4.094148    4.927861   -3.639424
    100          6           0       -4.401661    6.618759   -0.653625
    101          8           0       -4.263773    7.050252    0.545380
    102          6           0       -4.490841    7.535952   -1.799182
    103          7           0       -4.536789    1.980068    2.219112
    104          6           0       -4.212578    3.275558    2.375698
    105          6           0       -4.012822    3.615538    3.833402
    106          6           0       -4.509021    2.330684    4.646128
    107          6           0       -4.840918    1.395342    3.462755
    108          6           0       -2.581467    3.957307    4.246684
    109          6           0       -5.594526    2.561367    5.732932
    110          6           0       -6.897446    2.967885    5.082915
    111          7           0       -5.639460   -0.599939    1.403586
    112          6           0       -5.516247   -0.866760    2.784794
    113          6           0       -5.800159   -2.303635    2.977661
    114          6           0       -6.048260   -2.781735    1.682146
    115          6           0       -5.907690   -1.722226    0.745566
    116          6           0       -5.758755   -3.000607    4.218070
    117          6           0       -6.386694   -3.944081    0.892763
    118          8           0       -6.709731   -5.103482    1.148035
    119          6           0       -6.164165   -3.595014   -0.641842
    120          6           0       -7.377117   -4.054719   -1.403379
    121          8           0       -8.484486   -3.523196   -1.208856
    122          8           0       -6.990760   -4.890156   -2.384774
    123          6           0       -8.157821   -5.364496   -3.175213
    124          1           0       -3.715258    2.113020   -3.738644
    125          1           0       -3.972502    5.107345    1.736697
    126          1           0       -5.230972   -0.288864    4.691668
    127          1           0       -5.017303   -2.637136   -3.399675
    128          1           0       -4.616564   -0.140556   -4.642087
    129          1           0       -2.815627   -1.934095   -3.067282
    130          1           0       -2.402242   -0.208621   -2.988759
    131          1           0       -2.441810   -0.974175   -4.548264
    132          1           0       -6.934854   -0.414738   -4.141098
    133          1           0       -7.585742   -1.845880   -3.261677
    134          1           0       -6.068795   -2.787892   -5.479553
    135          1           0       -6.774313   -1.306695   -6.021007
    136          1           0       -3.892363    4.120602   -4.354276
    137          1           0       -3.175330    5.524220   -3.636700
    138          1           0       -4.924627    5.559734   -3.961442
    139          1           0       -3.649967    7.362970   -2.466610
    140          1           0       -4.580431    8.534737   -1.367569
    141          1           0       -5.397411    7.299140   -2.367215
    142          1           0       -4.618414    4.467090    4.118405
    143          1           0       -3.685897    1.856247    5.200405
    144          1           0       -2.489301    4.954411    4.717179
    145          1           0       -1.948247    3.889550    3.372056
    146          1           0       -2.114488    3.245896    4.925670
    147          1           0       -5.304455    3.385798    6.388921
    148          1           0       -5.766871    1.694514    6.362102
    149          1           0       -6.771088    4.043654    4.928509
    150          1           0       -7.736511    2.759867    5.743767
    151          1           0       -7.006450    2.503756    4.095823
    152          1           0       -6.629090   -3.642760    4.243587
    153          1           0       -5.746720   -2.312328    5.060636
    154          1           0       -4.810653   -3.534253    4.110390
    155          1           0       -5.258167   -4.108184   -0.966508
    156          1           0       -8.135262   -6.458431   -3.153180
    157          1           0       -8.065797   -4.878614   -4.164760
    158          1           0       -9.146339   -5.165311   -2.778234
 ---------------------------------------------------------------------

 SCF Done:  E(RCAM-B3LYP) =  -4069.81191573     A.U. after   19 cycles

 Excitation energies and oscillator strengths:

 Excited State   1:      Singlet-A      1.6610 eV  746.46 nm  f=0.0830  <S**2>=0.000
     309 -> 315        0.11336
     310 -> 316        0.12687
     311 -> 313        0.45556
     312 -> 314        0.51397
 This state for optimization and/or second-order correction.
 Total Energy, E(TD-HF/TD-DFT) =  -4069.75087654
 Copying the excited state density for this state as the 1-particle RhoCI density.

 Excited State   2:      Singlet-A      1.6930 eV  732.32 nm  f=0.6283  <S**2>=0.000
     309 -> 315        0.13383
     310 -> 316       -0.11815
     311 -> 313        0.51248
     312 -> 314       -0.45437

 Excited State   3:      Singlet-A      2.1856 eV  567.29 nm  f=0.0431  <S**2>=0.000
     309 -> 313        0.26306
     310 -> 314        0.58701
     311 -> 315       -0.11042
     312 -> 316       -0.24823

 Excited State   4:      Singlet-A      2.1941 eV  565.09 nm  f=0.1452  <S**2>=0.000
     309 -> 313        0.58438
     310 -> 314       -0.26069
     311 -> 315       -0.25508
     312 -> 316        0.11443

 Excited State   5:      Singlet-A      2.4820 eV  499.53 nm  f=0.0000  <S**2>=0.000
     312 -> 313        0.70709

 The electronic state is 1-A.
 Alpha  occ. eigenvalues --  -46.87884 -46.87491 -19.26374 -19.26235 -19.19121
 Alpha  occ. eigenvalues --  -19.19036 -19.18867 -19.18535 -19.18278 -19.17890
 Alpha  occ. eigenvalues --  -14.42533 -14.42324 -14.41536 -14.41200 -14.39487
 Alpha  occ. eigenvalues --  -14.39175 -14.38682 -14.38433 -10.39179 -10.38964
 Alpha  occ. eigenvalues --  -10.35498 -10.35210 -10.34497 -10.34070 -10.31757
 Alpha  occ. eigenvalues --  -10.31659 -10.31496 -10.31136 -10.30983 -10.30840
 Alpha  occ. eigenvalues --  -10.30667 -10.30599 -10.30288 -10.30237 -10.30189
 Alpha  occ. eigenvalues --  -10.30012 -10.29980 -10.29754 -10.29723 -10.29338
 Alpha  occ. eigenvalues --  -10.29253 -10.29229 -10.28813 -10.28569 -10.28554
 Alpha  occ. eigenvalues --  -10.28530 -10.28451 -10.28225 -10.28186 -10.27956
 Alpha  occ. eigenvalues --  -10.27888 -10.27822 -10.27812 -10.27670 -10.27592
 Alpha  occ. eigenvalues --  -10.27554 -10.27525 -10.27489 -10.27477 -10.27424
 Alpha  occ. eigenvalues --  -10.27316 -10.27284 -10.27280 -10.27253 -10.27200
 Alpha  occ. eigenvalues --  -10.26899 -10.26755 -10.26547 -10.26446 -10.26300
 Alpha  occ. eigenvalues --  -10.26299 -10.26215 -10.26115 -10.26071 -10.25987
 Alpha  occ. eigenvalues --  -10.25809 -10.25782 -10.25717 -10.25493 -10.25327
 Alpha  occ. eigenvalues --  -10.24931 -10.24869 -10.24829 -10.24699 -10.24659
 Alpha  occ. eigenvalues --  -10.24529  -3.16627  -3.16241  -1.91508  -1.91123
 Alpha  occ. eigenvalues --   -1.91095  -1.90937  -1.90712  -1.90548  -1.16725
 Alpha  occ. eigenvalues --   -1.16526  -1.08739  -1.08502  -1.07264  -1.06821
 Alpha  occ. eigenvalues --   -1.06787  -1.06743  -1.04664  -1.04321  -1.03846
 Alpha  occ. eigenvalues --   -1.03495  -1.03323  -1.02876  -1.02500  -1.01945
 Alpha  occ. eigenvalues --   -0.92063  -0.91823  -0.89615  -0.89361  -0.89257
 Alpha  occ. eigenvalues --   -0.88979  -0.88375  -0.88100  -0.87979  -0.87754
 Alpha  occ. eigenvalues --   -0.87635  -0.87515  -0.87349  -0.86918  -0.85052
 Alpha  occ. eigenvalues --   -0.84835  -0.84031  -0.83767  -0.83034  -0.82757
 Alpha  occ. eigenvalues --   -0.82720  -0.82483  -0.81674  -0.81456  -0.80679
 Alpha  occ. eigenvalues --   -0.80286  -0.78883  -0.78448  -0.77305  -0.77012
 Alpha  occ. eigenvalues --   -0.76984  -0.76759  -0.76005  -0.75672  -0.74981
 Alpha  occ. eigenvalues --   -0.74679  -0.72868  -0.72536  -0.71753  -0.71426
 Alpha  occ. eigenvalues --   -0.70009  -0.69655  -0.68947  -0.68663  -0.67724
 Alpha  occ. eigenvalues --   -0.67441  -0.67281  -0.67036  -0.65363  -0.65112
 Alpha  occ. eigenvalues --   -0.64942  -0.64704  -0.64617  -0.64504  -0.64360
 Alpha  occ. eigenvalues --   -0.64075  -0.62388  -0.62144  -0.60520  -0.60164
 Alpha  occ. eigenvalues --   -0.59881  -0.59625  -0.59075  -0.58837  -0.58592
 Alpha  occ. eigenvalues --   -0.58270  -0.57681  -0.57407  -0.57395  -0.57088
 Alpha  occ. eigenvalues --   -0.56401  -0.56061  -0.56036  -0.55745  -0.55597
 Alpha  occ. eigenvalues --   -0.55433  -0.55285  -0.55128  -0.54618  -0.54372
 Alpha  occ. eigenvalues --   -0.53964  -0.53745  -0.53384  -0.53294  -0.53073
 Alpha  occ. eigenvalues --   -0.53003  -0.52977  -0.52822  -0.52750  -0.52547
 Alpha  occ. eigenvalues --   -0.52469  -0.52303  -0.52037  -0.51739  -0.51686
 Alpha  occ. eigenvalues --   -0.51488  -0.51290  -0.51054  -0.50637  -0.50277
 Alpha  occ. eigenvalues --   -0.50121  -0.49987  -0.49811  -0.49723  -0.49585
 Alpha  occ. eigenvalues --   -0.49314  -0.49303  -0.49173  -0.49028  -0.48943
 Alpha  occ. eigenvalues --   -0.48681  -0.48545  -0.48514  -0.48402  -0.48254
 Alpha  occ. eigenvalues --   -0.48159  -0.47773  -0.47429  -0.47375  -0.46946
 Alpha  occ. eigenvalues --   -0.46887  -0.46624  -0.46560  -0.46450  -0.46390
 Alpha  occ. eigenvalues --   -0.46256  -0.46108  -0.45950  -0.45922  -0.45684
 Alpha  occ. eigenvalues --   -0.45284  -0.45083  -0.44676  -0.44578  -0.44368
 Alpha  occ. eigenvalues --   -0.44312  -0.44235  -0.44163  -0.44098  -0.43970
 Alpha  occ. eigenvalues --   -0.43930  -0.43763  -0.43589  -0.43462  -0.43423
 Alpha  occ. eigenvalues --   -0.43231  -0.43115  -0.42797  -0.42788  -0.42756
 Alpha  occ. eigenvalues --   -0.42753  -0.42418  -0.42104  -0.41836  -0.41793
 Alpha  occ. eigenvalues --   -0.41603  -0.41514  -0.41308  -0.41219  -0.40946
 Alpha  occ. eigenvalues --   -0.40877  -0.40829  -0.40658  -0.40567  -0.40532
 Alpha  occ. eigenvalues --   -0.40367  -0.40287  -0.40072  -0.39546  -0.39326
 Alpha  occ. eigenvalues --   -0.38550  -0.38230  -0.37811  -0.37504  -0.37407
 Alpha  occ. eigenvalues --   -0.37337  -0.37128  -0.37031  -0.36806  -0.36651
 Alpha  occ. eigenvalues --   -0.36281  -0.36084  -0.34375  -0.34091  -0.33870
 Alpha  occ. eigenvalues --   -0.33729  -0.33276  -0.33009  -0.31397  -0.31119
 Alpha  occ. eigenvalues --   -0.31097  -0.30807  -0.30138  -0.29798  -0.29535
 Alpha  occ. eigenvalues --   -0.29419  -0.29142  -0.29038  -0.24168  -0.23868
 Alpha  occ. eigenvalues --   -0.21217  -0.20946
 Alpha virt. eigenvalues --   -0.08862  -0.08615  -0.01832  -0.01519  -0.00132
 Alpha virt. eigenvalues --    0.00158   0.02101   0.02365   0.03017   0.03382
 Alpha virt. eigenvalues --    0.04644   0.04895   0.05000   0.05296   0.06126

 Mulliken charges:
               1
     1  Mg   0.838751
     2  C   -0.002923
     3  C   -0.094105
     4  C   -0.045662
     5  C   -0.064321
     6  N   -0.256866
     7  C   -0.052424
     8  C   -0.014047
     9  C   -0.087024
    10  C    0.046544
    11  C    0.104760
    12  C    0.053456
    13  C   -0.072213
    14  H    0.037097
    15  N   -0.433259
    16  C    0.168642
    17  C   -0.177022
    18  C   -0.003684
    19  C    0.148902
    20  C    0.110166
    21  C    0.012624
    22  O   -0.248758
    23  C    0.062359
    24  N   -0.341127
    25  C    0.041264
    26  C   -0.028441
    27  C   -0.023854
    28  C    0.074661
    29  C    0.076022
    30  C    0.035199
    31  C   -0.004652
    32  N   -0.310251
    33  C    0.079972
    34  C   -0.170746
    35  C    0.008085
    36  C    0.082576
    37  C    0.127572
    38  C    0.045488
    39  O   -0.189133
    40  C   -0.005051
    41  C    0.212700
    42  O   -0.257541
    43  O   -0.304670
    44  C    0.157774
    45  H   -0.017328
    46  H   -0.016257
    47  H   -0.042043
    48  H    0.000965
    49  H   -0.003835
    50  H    0.025509
    51  H    0.016469
    52  H    0.016900
    53  H    0.011186
    54  H    0.044193
    55  H    0.017794
    56  H    0.018016
    57  H    0.005993
    58  H    0.027211
    59  H    0.039554
    60  H    0.037360
    61  H    0.036461
    62  H    0.031226
    63  H    0.017170
    64  H    0.009535
    65  H    0.023824
    66  H    0.012663
    67  H    0.004775
    68  H    0.007028
    69  H    0.003964
    70  H    0.010230
    71  H    0.016111
    72  H    0.028759
    73  H    0.046328
    74  H    0.008571
    75  H    0.046299
    76  H    0.035315
    77  H    0.042832
    78  H    0.046973
    79  H    0.053411
    80  Mg   0.837979
    81  C   -0.016683
    82  C   -0.086785
    83  C   -0.044866
    84  C   -0.065282
    85  N   -0.254504
    86  C   -0.050010
    87  C   -0.015056
    88  C   -0.090464
    89  C    0.045379
    90  C    0.113722
    91  C    0.062561
    92  C   -0.077635
    93  H    0.034324
    94  N   -0.423854
    95  C    0.162823
    96  C   -0.172376
    97  C   -0.007459
    98  C    0.152702
    99  C    0.098487
   100  C    0.016118
   101  O   -0.253770
   102  C    0.060979
   103  N   -0.349957
   104  C    0.037658
   105  C   -0.019801
   106  C   -0.034489
   107  C    0.088687
   108  C    0.073757
   109  C    0.034954
   110  C   -0.007556
   111  N   -0.323976
   112  C    0.078136
   113  C   -0.163515
   114  C    0.002264
   115  C    0.095888
   116  C    0.131423
   117  C    0.042273
   118  O   -0.188433
   119  C    0.000896
   120  C    0.211222
   121  O   -0.251195
   122  O   -0.305681
   123  C    0.152141
   124  H   -0.017555
   125  H   -0.015869
   126  H   -0.041435
   127  H   -0.001224
   128  H   -0.004274
   129  H    0.021829
   130  H    0.016785
   131  H    0.016391
   132  H    0.013964
   133  H    0.037433
   134  H    0.020396
   135  H    0.019741
   136  H    0.009567
   137  H    0.029162
   138  H    0.039184
   139  H    0.039751
   140  H    0.035725
   141  H    0.033513
   142  H    0.014052
   143  H    0.011217
   144  H    0.024286
   145  H    0.013137
   146  H    0.004068
   147  H    0.005424
   148  H    0.003131
   149  H    0.010779
   150  H    0.017525
   151  H    0.030602
   152  H    0.045582
   153  H    0.007681
   154  H    0.047047
   155  H    0.034976
   156  H    0.043557
   157  H    0.049401
   158  H    0.053427
 Sum of Mulliken charges =  -0.00000

 Dipole moment (field-independent basis, Debye):
    X=              4.6283    Y=              1.4614    Z=              0.7889  Tot=              4.9172
 Quadrupole moment (field-independent basis, Debye-Ang):
   XX=           -523.4258   YY=           -537.0352   ZZ=           -459.1906
   XY=            -17.8678   XZ=             49.6598   YZ=             31.4147

 Normal termination of Gaussian 16 at Fri Sep 10 11:19:42 2021.
