 Gaussian 16, Revision A.03,
 Gaussian 16:  ES64L-G16RevA.03 25-Dec-2016

 -----------------------------------
 #p cam-b3lyp/Def2SVP td=(nstates=5)
 -----------------------------------

 --------------------------------
 TDDFT excited states in gaussian
 --------------------------------
 Symbolic Z-matrix:
 Charge =  0 Multiplicity = 1

                         Standard orientation:
 ---------------------------------------------------------------------
 Center     Atomic      Atomic             Coordinates (Angstroms)
 Number     Number       Type             X           Y           Z
 ---------------------------------------------------------------------
      1         12           0        6.453122    1.001436    0.256449
      2          6           0        7.210280   -2.439618   -0.374481
      3          6           0        7.279627    1.625177   -2.994843
      4          6           0        6.230158    4.097126    0.907303
      5          6           0        6.787867    0.299263    3.653589
      6          7           0        7.141142   -0.322600   -1.378850
      7          6           0        7.333322   -1.631719   -1.507090
      8          6           0        7.604150   -2.075453   -2.975806
      9          6           0        8.155343   -0.697162   -3.557611
     10          6           0        7.456951    0.262814   -2.610712
     11          6           0        9.663481   -0.530000   -3.402439
     12          6           0        6.297352   -2.526033   -3.711324
     13          6           0        6.514586   -3.276939   -5.028254
     14          1           0        5.599902   -4.352495   -5.380221
     15          7           0        6.242319    2.552176   -0.949211
     16          6           0        6.620296    2.625423   -2.248078
     17          6           0        6.249469    3.982174   -2.704583
     18          6           0        5.798487    4.755355   -1.514247
     19          6           0        6.100988    3.828844   -0.453375
     20          6           0        6.294917    4.408477   -4.139835
     21          6           0        5.200954    6.117810   -1.356761
     22          8           0        5.097684    6.687619   -0.216925
     23          6           0        4.815599    6.813604   -2.597895
     24          7           0        6.716002    2.106875    2.007601
     25          6           0        6.501391    3.426899    2.029121
     26          6           0        6.473737    3.952759    3.433630
     27          6           0        6.472724    2.670830    4.385687
     28          6           0        6.588891    1.571398    3.301241
     29          6           0        7.634286    4.878031    3.824796
     30          6           0        5.326295    2.565888    5.422561
     31          6           0        4.008296    2.356981    4.710990
     32          7           0        6.740062   -0.776652    1.467694
     33          6           0        6.874762   -0.834034    2.862412
     34          6           0        7.157798   -2.238307    3.211663
     35          6           0        7.184681   -2.901644    1.986467
     36          6           0        6.960342   -1.966120    0.936344
     37          6           0        7.408674   -2.737300    4.520289
     38          6           0        7.375189   -4.178864    1.318430
     39          8           0        7.505072   -5.344175    1.696151
     40          6           0        7.520427   -3.910142   -0.244427
     41          6           0        6.622962   -4.883877   -0.958362
     42          8           0        5.382061   -4.808273   -0.849656
     43          8           0        7.347163   -5.594150   -1.836763
     44          6           0        6.511287   -6.558970   -2.600037
     45          1           0        7.736247    1.975734   -3.922501
     46          1           0        6.049942    5.137547    1.185662
     47          1           0        6.820430   -0.009816    4.699946
     48          1           0        8.359859   -2.853748   -3.083439
     49          1           0        7.824777   -0.526634   -4.581998
     50          1           0       10.093211   -1.330567   -2.800487
     51          1           0        9.800418    0.432582   -2.909309
     52          1           0       10.145351   -0.439025   -4.376246
     53          1           0        5.772950   -1.646084   -4.083821
     54          1           0        5.671591   -3.128383   -3.051836
     55          1           0        7.548966   -3.605275   -5.133911
     56          1           0        6.367790   -2.575491   -5.849607
     57          1           0        6.823038    3.682477   -4.756729
     58          1           0        6.912831    5.304989   -4.186285
     59          1           0        5.302413    4.625184   -4.535192
     60          1           0        5.693011    6.925006   -3.235302
     61          1           0        4.324965    7.734992   -2.286170
     62          1           0        4.113187    6.188278   -3.149740
     63          1           0        5.570644    4.533804    3.615936
     64          1           0        7.380698    2.606302    4.985763
     65          1           0        7.312809    5.857100    4.180859
     66          1           0        8.294853    4.972707    2.963414
     67          1           0        8.312108    4.469455    4.573822
     68          1           0        5.241535    3.492543    5.989192
     69          1           0        5.463780    1.752689    6.135342
     70          1           0        3.712522    3.370867    4.443810
     71          1           0        3.280495    1.902527    5.384034
     72          1           0        4.140818    1.800899    3.782714
     73          1           0        6.847722   -3.667996    4.604590
     74          1           0        7.103816   -2.020615    5.282540
     75          1           0        8.489607   -2.871233    4.481543
     76          1           0        8.570231   -4.063268   -0.492592
     77          1           0        6.949569   -7.546722   -2.456898
     78          1           0        6.448325   -6.176156   -3.618807
     79          1           0        5.501497   -6.725320   -2.223219
     80         12           0       -6.620691   -1.062938    0.105715
     81          6           0       -6.940213    2.354676   -0.941611
     82          6           0       -5.956632    0.115039    3.237160
     83          6           0       -5.890888   -4.030414    0.959471
     84          6           0       -6.176766   -1.903626   -3.247180
     85          7           0       -6.493870    0.990402    0.918108
     86          6           0       -6.695010    2.209014    0.439729
     87          6           0       -6.709293    3.328025    1.515442
     88          6           0       -5.836628    2.588930    2.642866
     89          6           0       -6.136805    1.138001    2.272191
     90          6           0       -4.342006    2.820298    2.494861
     91          6           0       -8.157905    3.646563    2.027372
     92          6           0       -8.282105    4.933231    2.846414
     93          1           0       -9.501182    5.726494    2.715830
     94          7           0       -6.495560   -1.887177    1.906696
     95          6           0       -6.241743   -1.258374    3.073509
     96          6           0       -6.234340   -2.308872    4.103345
     97          6           0       -6.340954   -3.629980    3.426562
     98          6           0       -6.223079   -3.226034    2.039835
     99          6           0       -6.212985   -2.006862    5.573636
    100          6           0       -6.507007   -5.027190    3.942736
    101          8           0       -6.337199   -6.048689    3.187390
    102          6           0       -6.782463   -5.166656    5.380143
    103          7           0       -5.898290   -2.698210   -0.955600
    104          6           0       -5.717603   -3.887364   -0.354614
    105          6           0       -5.457758   -4.976653   -1.367685
    106          6           0       -5.742463   -4.313067   -2.794628
    107          6           0       -6.044488   -2.866592   -2.345316
    108          6           0       -4.050843   -5.574030   -1.356111
    109          6           0       -6.769018   -5.031467   -3.712646
    110          6           0       -8.152667   -4.939518   -3.110619
    111          7           0       -6.746019   -0.028450   -1.786953
    112          6           0       -6.496420   -0.563589   -3.069688
    113          6           0       -6.596290    0.551471   -4.033594
    114          6           0       -6.876566    1.671112   -3.235888
    115          6           0       -6.926470    1.284999   -1.869158
    116          6           0       -6.387276    0.457893   -5.438470
    117          6           0       -7.131048    3.093766   -3.238211
    118          8           0       -7.297756    3.944991   -4.110770
    119          6           0       -7.058447    3.622567   -1.741050
    120          6           0       -8.259499    4.494808   -1.497765
    121          8           0       -9.405113    4.011087   -1.511404
    122          8           0       -7.847543    5.704392   -1.076380
    123          6           0       -9.003434    6.601824   -0.811145
    124          1           0       -5.515526    0.380376    4.198368
    125          1           0       -5.738443   -5.087746    1.188127
    126          1           0       -6.148327   -2.101444   -4.320831
    127          1           0       -6.226589    4.250986    1.217254
    128          1           0       -6.208061    2.812511    3.639562
    129          1           0       -4.104403    3.348613    1.583504
    130          1           0       -3.891070    1.836589    2.490467
    131          1           0       -3.949561    3.327771    3.380744
    132          1           0       -8.437781    2.909804    2.791319
    133          1           0       -8.853985    3.668929    1.211537
    134          1           0       -7.395760    5.571701    2.747944
    135          1           0       -8.305615    4.668927    3.906419
    136          1           0       -5.968589   -0.954636    5.764644
    137          1           0       -5.372233   -2.563099    6.002145
    138          1           0       -7.132054   -2.310466    6.079403
    139          1           0       -5.975755   -4.709788    5.948432
    140          1           0       -6.957859   -6.231972    5.542072
    141          1           0       -7.692538   -4.604736    5.618091
    142          1           0       -6.137363   -5.807804   -1.224758
    143          1           0       -4.832890   -4.267104   -3.411382
    144          1           0       -4.043267   -6.670069   -1.205439
    145          1           0       -3.476609   -5.080020   -0.583618
    146          1           0       -3.457693   -5.375966   -2.247264
    147          1           0       -6.532251   -6.095816   -3.785268
    148          1           0       -6.794555   -4.637558   -4.723178
    149          1           0       -8.163997   -5.763682   -2.391103
    150          1           0       -8.913521   -5.073989   -3.876827
    151          1           0       -8.275260   -4.007685   -2.546430
    152          1           0       -7.172680    1.034179   -5.909152
    153          1           0       -6.397033   -0.577102   -5.773801
    154          1           0       -5.393132    0.905801   -5.518010
    155          1           0       -6.123551    4.173857   -1.633311
    156          1           0       -8.851685    7.504170   -1.411507
    157          1           0       -9.038085    6.727610    0.287360
    158          1           0       -9.978344    6.279003   -1.157243
 ---------------------------------------------------------------------

 SCF Done:  E(RCAM-B3LYP) =  -4069.81179755     A.U. after   19 cycles

 Excitation energies and oscillator strengths:

 Excited State   1:      Singlet-A      1.6668 eV  743.86 nm  f=0.0459  <S**2>=0.000
     309 -> 315        0.10663
     310 -> 316        0.13474
     311 -> 313        0.42538
     312 -> 314        0.53892
 This state for optimization and/or second-order correction.
 Total Energy, E(TD-HF/TD-DFT) =  -4069.75054475
 Copying the excited state density for this state as the 1-particle RhoCI density.

 Excited State   2:      Singlet-A      1.6882 eV  734.43 nm  f=0.6960  <S**2>=0.000
     309 -> 315        0.13944
     310 -> 316       -0.10958
     311 -> 313        0.53779
     312 -> 314       -0.42455

 Excited State   3:      Singlet-A      2.1851 eV  567.41 nm  f=0.0486  <S**2>=0.000
     309 -> 313        0.19205
     310 -> 314        0.61380
     312 -> 316       -0.25968

 Excited State   4:      Singlet-A      2.1938 eV  565.16 nm  f=0.1416  <S**2>=0.000
     309 -> 313        0.61125
     310 -> 314       -0.19045
     311 -> 315       -0.26639

 Excited State   5:      Singlet-A      2.6513 eV  467.64 nm  f=0.0000  <S**2>=0.000
     312 -> 313        0.70710

 The electronic state is 1-A.
 Alpha  occ. eigenvalues --  -46.87853 -46.87554 -19.26323 -19.26288 -19.19095
 Alpha  occ. eigenvalues --  -19.19061 -19.18857 -19.18596 -19.18214 -19.17974
 Alpha  occ. eigenvalues --  -14.42503 -14.42392 -14.41511 -14.41248 -14.39456
 Alpha  occ. eigenvalues --  -14.39245 -14.38642 -14.38499 -10.39121 -10.39023
 Alpha  occ. eigenvalues --  -10.35488 -10.35272 -10.34434 -10.34152 -10.31715
 Alpha  occ. eigenvalues --  -10.31704 -10.31457 -10.31213 -10.30956 -10.30916
 Alpha  occ. eigenvalues --  -10.30623 -10.30565 -10.30295 -10.30270 -10.30267
 Alpha  occ. eigenvalues --  -10.30023 -10.29988 -10.29783 -10.29682 -10.29327
 Alpha  occ. eigenvalues --  -10.29307 -10.29303 -10.28790 -10.28624 -10.28582
 Alpha  occ. eigenvalues --  -10.28575 -10.28414 -10.28302 -10.28157 -10.28041
 Alpha  occ. eigenvalues --  -10.27903 -10.27843 -10.27778 -10.27633 -10.27593
 Alpha  occ. eigenvalues --  -10.27565 -10.27537 -10.27504 -10.27456 -10.27395
 Alpha  occ. eigenvalues --  -10.27381 -10.27365 -10.27361 -10.27233 -10.27203
 Alpha  occ. eigenvalues --  -10.26971 -10.26745 -10.26611 -10.26425 -10.26311
 Alpha  occ. eigenvalues --  -10.26295 -10.26270 -10.26083 -10.26038 -10.25911
 Alpha  occ. eigenvalues --  -10.25903 -10.25831 -10.25795 -10.25515 -10.25196
 Alpha  occ. eigenvalues --  -10.24883 -10.24848 -10.24843 -10.24778 -10.24640
 Alpha  occ. eigenvalues --  -10.24575  -3.16596  -3.16304  -1.91478  -1.91186
 Alpha  occ. eigenvalues --   -1.91064  -1.90906  -1.90774  -1.90612  -1.16672
 Alpha  occ. eigenvalues --   -1.16581  -1.08671  -1.08585  -1.07258  -1.06880
 Alpha  occ. eigenvalues --   -1.06845  -1.06683  -1.04633  -1.04392  -1.03819
 Alpha  occ. eigenvalues --   -1.03557  -1.03290  -1.02931  -1.02468  -1.02005
 Alpha  occ. eigenvalues --   -0.92023  -0.91891  -0.89600  -0.89387  -0.89232
 Alpha  occ. eigenvalues --   -0.89053  -0.88366  -0.88100  -0.87924  -0.87726
 Alpha  occ. eigenvalues --   -0.87709  -0.87580  -0.87314  -0.87013  -0.85029
 Alpha  occ. eigenvalues --   -0.84901  -0.84024  -0.83758  -0.83013  -0.82817
 Alpha  occ. eigenvalues --   -0.82694  -0.82552  -0.81634  -0.81515  -0.80646
 Alpha  occ. eigenvalues --   -0.80349  -0.78842  -0.78536  -0.77279  -0.77046
 Alpha  occ. eigenvalues --   -0.76988  -0.76800  -0.75970  -0.75746  -0.74969
 Alpha  occ. eigenvalues --   -0.74675  -0.72832  -0.72600  -0.71727  -0.71468
 Alpha  occ. eigenvalues --   -0.70008  -0.69645  -0.68920  -0.68730  -0.67693
 Alpha  occ. eigenvalues --   -0.67500  -0.67261  -0.67104  -0.65336  -0.65178
 Alpha  occ. eigenvalues --   -0.64910  -0.64679  -0.64672  -0.64559  -0.64344
 Alpha  occ. eigenvalues --   -0.64093  -0.62348  -0.62195  -0.60493  -0.60229
 Alpha  occ. eigenvalues --   -0.59850  -0.59699  -0.59045  -0.58889  -0.58559
 Alpha  occ. eigenvalues --   -0.58326  -0.57632  -0.57475  -0.57369  -0.57130
 Alpha  occ. eigenvalues --   -0.56359  -0.56112  -0.56022  -0.55805  -0.55566
 Alpha  occ. eigenvalues --   -0.55412  -0.55357  -0.55143  -0.54590  -0.54389
 Alpha  occ. eigenvalues --   -0.53939  -0.53816  -0.53353  -0.53264  -0.53127
 Alpha  occ. eigenvalues --   -0.53046  -0.52969  -0.52810  -0.52794  -0.52560
 Alpha  occ. eigenvalues --   -0.52541  -0.52301  -0.51971  -0.51814  -0.51657
 Alpha  occ. eigenvalues --   -0.51564  -0.51255  -0.51111  -0.50606  -0.50363
 Alpha  occ. eigenvalues --   -0.50111  -0.49961  -0.49873  -0.49744  -0.49557
 Alpha  occ. eigenvalues --   -0.49385  -0.49261  -0.49140  -0.49109  -0.49011
 Alpha  occ. eigenvalues --   -0.48643  -0.48526  -0.48488  -0.48468  -0.48260
 Alpha  occ. eigenvalues --   -0.48228  -0.47746  -0.47493  -0.47347  -0.47007
 Alpha  occ. eigenvalues --   -0.46860  -0.46608  -0.46599  -0.46455  -0.46417
 Alpha  occ. eigenvalues --   -0.46223  -0.46168  -0.45982  -0.45873  -0.45739
 Alpha  occ. eigenvalues --   -0.45275  -0.45074  -0.44630  -0.44558  -0.44424
 Alpha  occ. eigenvalues --   -0.44378  -0.44212  -0.44134  -0.44063  -0.44030
 Alpha  occ. eigenvalues --   -0.43975  -0.43841  -0.43546  -0.43470  -0.43442
 Alpha  occ. eigenvalues --   -0.43283  -0.43083  -0.42851  -0.42805  -0.42770
 Alpha  occ. eigenvalues --   -0.42720  -0.42441  -0.42085  -0.41865  -0.41758
 Alpha  occ. eigenvalues --   -0.41583  -0.41573  -0.41361  -0.41194  -0.40930
 Alpha  occ. eigenvalues --   -0.40879  -0.40866  -0.40646  -0.40619  -0.40593
 Alpha  occ. eigenvalues --   -0.40379  -0.40275  -0.40133  -0.39550  -0.39316
 Alpha  occ. eigenvalues --   -0.38546  -0.38229  -0.37795  -0.37563  -0.37392
 Alpha  occ. eigenvalues --   -0.37310  -0.37157  -0.37102  -0.36766  -0.36693
 Alpha  occ. eigenvalues --   -0.36252  -0.36112  -0.34342  -0.34151  -0.33814
 Alpha  occ. eigenvalues --   -0.33789  -0.33241  -0.33072  -0.31388  -0.31154
 Alpha  occ. eigenvalues --   -0.31090  -0.30867  -0.30074  -0.29880  -0.29498
 Alpha  occ. eigenvalues --   -0.29373  -0.29224  -0.29117  -0.24136  -0.23931
 Alpha  occ. eigenvalues --   -0.21183  -0.21012
 Alpha virt. eigenvalues --   -0.08826  -0.08689  -0.01807  -0.01573  -0.00102
 Alpha virt. eigenvalues --    0.00078   0.02148   0.02298   0.03054   0.03323
 Alpha virt. eigenvalues --    0.04666   0.04833   0.05056   0.05235   0.06134

 Mulliken charges:
               1
     1  Mg   0.838608
     2  C   -0.002886
     3  C   -0.093856
     4  C   -0.046080
     5  C   -0.064150
     6  N   -0.256758
     7  C   -0.052485
     8  C   -0.014029
     9  C   -0.087022
    10  C    0.046291
    11  C    0.104766
    12  C    0.053430
    13  C   -0.071817
    14  H    0.035978
    15  N   -0.433209
    16  C    0.168413
    17  C   -0.176884
    18  C   -0.003932
    19  C    0.148734
    20  C    0.110073
    21  C    0.012261
    22  O   -0.249906
    23  C    0.062423
    24  N   -0.341091
    25  C    0.041240
    26  C   -0.028178
    27  C   -0.023865
    28  C    0.074619
    29  C    0.076163
    30  C    0.035270
    31  C   -0.004377
    32  N   -0.310446
    33  C    0.080273
    34  C   -0.169875
    35  C    0.008458
    36  C    0.082868
    37  C    0.127343
    38  C    0.046121
    39  O   -0.188303
    40  C   -0.005344
    41  C    0.212936
    42  O   -0.257141
    43  O   -0.304755
    44  C    0.157659
    45  H   -0.017325
    46  H   -0.016975
    47  H   -0.041786
    48  H    0.001031
    49  H   -0.003831
    50  H    0.025509
    51  H    0.016450
    52  H    0.016859
    53  H    0.011272
    54  H    0.044017
    55  H    0.017984
    56  H    0.018123
    57  H    0.006029
    58  H    0.027014
    59  H    0.040131
    60  H    0.037508
    61  H    0.035838
    62  H    0.031980
    63  H    0.016118
    64  H    0.009543
    65  H    0.023085
    66  H    0.012831
    67  H    0.004784
    68  H    0.006067
    69  H    0.004642
    70  H    0.008377
    71  H    0.016954
    72  H    0.029397
    73  H    0.047571
    74  H    0.008763
    75  H    0.046097
    76  H    0.035261
    77  H    0.043086
    78  H    0.046396
    79  H    0.053664
    80  Mg   0.838087
    81  C   -0.016981
    82  C   -0.087744
    83  C   -0.044990
    84  C   -0.064783
    85  N   -0.254612
    86  C   -0.049881
    87  C   -0.015108
    88  C   -0.090542
    89  C    0.045903
    90  C    0.114345
    91  C    0.062551
    92  C   -0.077794
    93  H    0.034530
    94  N   -0.423654
    95  C    0.163169
    96  C   -0.174294
    97  C   -0.007401
    98  C    0.152234
    99  C    0.099237
   100  C    0.015849
   101  O   -0.252699
   102  C    0.061172
   103  N   -0.349995
   104  C    0.037915
   105  C   -0.020134
   106  C   -0.034564
   107  C    0.088880
   108  C    0.073214
   109  C    0.034758
   110  C   -0.007618
   111  N   -0.323992
   112  C    0.078317
   113  C   -0.163472
   114  C    0.001995
   115  C    0.096143
   116  C    0.131559
   117  C    0.042013
   118  O   -0.188656
   119  C    0.001039
   120  C    0.211152
   121  O   -0.251122
   122  O   -0.305606
   123  C    0.152138
   124  H   -0.019610
   125  H   -0.015001
   126  H   -0.040892
   127  H   -0.000700
   128  H   -0.004527
   129  H    0.022567
   130  H    0.014927
   131  H    0.016262
   132  H    0.013850
   133  H    0.037526
   134  H    0.020866
   135  H    0.019523
   136  H    0.008612
   137  H    0.026628
   138  H    0.039639
   139  H    0.038535
   140  H    0.036503
   141  H    0.033550
   142  H    0.014207
   143  H    0.012416
   144  H    0.025355
   145  H    0.013394
   146  H    0.006128
   147  H    0.006262
   148  H    0.003158
   149  H    0.011010
   150  H    0.017527
   151  H    0.030057
   152  H    0.045618
   153  H    0.008304
   154  H    0.046286
   155  H    0.034844
   156  H    0.043645
   157  H    0.049554
   158  H    0.053421
 Sum of Mulliken charges =  -0.00000

 Dipole moment (field-independent basis, Debye):
    X=              3.7394    Y=              2.4525    Z=              0.5405  Tot=              4.5044
 Quadrupole moment (field-independent basis, Debye-Ang):
   XX=           -522.1405   YY=           -543.8511   ZZ=           -453.3422
   XY=             20.3115   XZ=            -60.3243   YZ=             39.9248

 Normal termination of Gaussian 16 at Sat Sep 11 08:07:08 2021.
