 Gaussian 16, Revision A.03,
 Gaussian 16:  ES64L-G16RevA.03 25-Dec-2016

 -----------------------------------
 #p cam-b3lyp/Def2SVP td=(nstates=5)
 -----------------------------------

 --------------------------------
 TDDFT excited states in gaussian
 --------------------------------
 Symbolic Z-matrix:
 Charge =  0 Multiplicity = 1

                         Standard orientation:
 ---------------------------------------------------------------------
 Center     Atomic      Atomic             Coordinates (Angstroms)
 Number     Number       Type             X           Y           Z
 ---------------------------------------------------------------------
      1         12           0       -7.858838   -0.735933   -0.053689
      2          6           0       -8.063253    2.727706    0.825874
      3          6           0       -8.677546    0.177568   -3.237758
      4          6           0       -8.129958   -3.817406   -0.752001
      5          6           0       -8.179473   -1.464512    3.339249
      6          7           0       -8.289520    1.234206   -0.966768
      7          6           0       -8.275777    2.491094   -0.534087
      8          6           0       -8.433534    3.539318   -1.675889
      9          6           0       -9.171874    2.626935   -2.754967
     10          6           0       -8.655654    1.267465   -2.317608
     11          6           0      -10.691665    2.639896   -2.626243
     12          6           0       -7.052753    4.051755   -2.207477
     13          6           0       -7.115001    5.304578   -3.086063
     14          1           0       -6.037102    6.277840   -2.995266
     15          7           0       -7.852923   -1.659147   -1.800255
     16          6           0       -8.200338   -1.129135   -2.997617
     17          6           0       -8.028150   -2.213143   -3.988555
     18          6           0       -7.734774   -3.468677   -3.243131
     19          6           0       -7.922459   -3.031730   -1.883267
     20          6           0       -8.097088   -1.993493   -5.468674
     21          6           0       -7.357069   -4.846658   -3.686570
     22          8           0       -7.374680   -5.846339   -2.889763
     23          6           0       -7.047144   -5.014290   -5.117964
     24          7           0       -8.337440   -2.414639    1.091091
     25          6           0       -8.327637   -3.640427    0.555993
     26          6           0       -8.420806   -4.699058    1.614557
     27          6           0       -8.251273   -3.943793    3.011191
     28          6           0       -8.167106   -2.489891    2.484548
     29          6           0       -9.719754   -5.516663    1.630901
     30          6           0       -7.132403   -4.452523    3.954454
     31          6           0       -5.778149   -4.168572    3.344154
     32          7           0       -7.905406    0.400450    1.794962
     33          6           0       -8.069608   -0.106281    3.092242
     34          6           0       -8.144745    1.051626    4.002008
     35          6           0       -8.034950    2.159127    3.163419
     36          6           0       -7.926161    1.721416    1.812543
     37          6           0       -8.353809    0.994395    5.408226
     38          6           0       -8.008984    3.611046    3.091902
     39          8           0       -7.970135    4.519628    3.922842
     40          6           0       -8.148785    4.040072    1.564741
     41          6           0       -7.093090    5.074705    1.284828
     42          8           0       -5.881915    4.774725    1.305638
     43          8           0       -7.674898    6.185583    0.807343
     44          6           0       -6.679995    7.241965    0.481188
     45          1           0       -9.155618    0.316617   -4.209383
     46          1           0       -8.118781   -4.893647   -0.936444
     47          1           0       -8.194374   -1.616280    4.420080
     48          1           0       -9.058129    4.396272   -1.423037
     49          1           0       -8.842059    2.848999   -3.769675
     50          1           0      -11.011139    3.173365   -1.731107
     51          1           0      -10.988046    1.592223   -2.571180
     52          1           0      -11.153717    3.034827   -3.531402
     53          1           0       -6.658445    3.337605   -2.930368
     54          1           0       -6.361471    4.224391   -1.381855
     55          1           0       -8.083655    5.798950   -3.007230
     56          1           0       -7.053610    4.993707   -4.129035
     57          1           0       -8.490277   -1.006531   -5.709203
     58          1           0       -8.843080   -2.685563   -5.858860
     59          1           0       -7.138421   -2.173564   -5.955360
     60          1           0       -7.912679   -4.717605   -5.710736
     61          1           0       -6.712096   -6.044348   -5.234467
     62          1           0       -6.241978   -4.330132   -5.387380
     63          1           0       -7.622629   -5.432201    1.505740
     64          1           0       -9.155534   -3.997937    3.617866
     65          1           0       -9.561886   -6.591375    1.537210
     66          1           0      -10.362115   -5.144751    0.833189
     67          1           0      -10.348378   -5.358555    2.506830
     68          1           0       -7.206396   -5.531863    4.082889
     69          1           0       -7.164423   -3.997742    4.944605
     70          1           0       -5.633159   -5.012132    2.670198
     71          1           0       -5.009040   -4.149652    4.117021
     72          1           0       -5.797584   -3.264554    2.735172
     73          1           0       -7.659950    1.710025    5.849138
     74          1           0       -8.183908   -0.010849    5.793221
     75          1           0       -9.400054    1.293583    5.469169
     76          1           0       -9.155356    4.438658    1.441999
     77          1           0       -6.966206    8.135007    1.036880
     78          1           0       -6.647113    7.311543   -0.606232
     79          1           0       -5.667844    7.082725    0.854727
     80         12           0        8.021501   -0.793309    0.204224
     81          6           0        7.836391    2.759259   -0.269106
     82          6           0        7.198093   -1.124684   -3.089222
     83          6           0        7.734611   -3.915276    0.692543
     84          6           0        7.699128   -0.214456    3.625732
     85          7           0        7.597498    0.698966   -1.372356
     86          6           0        7.617592    2.021011   -1.450852
     87          6           0        7.470160    2.582144   -2.890626
     88          6           0        6.716869    1.331827   -3.560056
     89          6           0        7.225139    0.220912   -2.643433
     90          6           0        5.204221    1.401810   -3.432305
     91          6           0        8.857614    2.849326   -3.572991
     92          6           0        8.793969    3.682727   -4.854847
     93          1           0        9.883831    4.613493   -5.134745
     94          7           0        8.021364   -2.300462   -1.086922
     95          6           0        7.680508   -2.253995   -2.391887
     96          6           0        7.828514   -3.628252   -2.895546
     97          6           0        8.125779   -4.520950   -1.742537
     98          6           0        7.947656   -3.596613   -0.640732
     99          6           0        7.765906   -3.970892   -4.355714
    100          6           0        8.495105   -5.970288   -1.646597
    101          8           0        8.475004   -6.597725   -0.529120
    102          6           0        8.790569   -6.656730   -2.912684
    103          7           0        7.543853   -1.919454    1.885289
    104          6           0        7.539917   -3.263241    1.838956
    105          6           0        7.440189   -3.856513    3.224039
    106          6           0        7.622321   -2.628109    4.231720
    107          6           0        7.710579   -1.473438    3.209793
    108          6           0        6.135676   -4.586665    3.542637
    109          6           0        8.741166   -2.755410    5.301611
    110          6           0       10.097621   -2.738193    4.634433
    111          7           0        7.990941    0.941138    1.492184
    112          6           0        7.819895    0.959870    2.893781
    113          6           0        7.754041    2.377133    3.305439
    114          6           0        7.869172    3.090002    2.102499
    115          6           0        7.977412    2.180953    1.015582
    116          6           0        7.558421    2.849286    4.633934
    117          6           0        7.913068    4.404712    1.503921
    118          8           0        7.952058    5.555591    1.937171
    119          6           0        7.766679    4.248060   -0.071016
    120          6           0        8.827849    5.091976   -0.722357
    121          8           0       10.031815    4.815584   -0.578581
    122          8           0        8.244346    5.949778   -1.579140
    123          6           0        9.257200    6.801190   -2.258150
    124          1           0        6.724689   -1.344687   -4.046491
    125          1           0        7.738689   -4.981863    0.928873
    126          1           0        7.697971    0.050305    4.685248
    127          1           0        6.857257    3.471920   -2.970842
    128          1           0        7.053449    1.168079   -4.580479
    129          1           0        4.890339    2.224328   -2.806942
    130          1           0        4.901831    0.458498   -2.996695
    131          1           0        4.743442    1.437461   -4.423646
    132          1           0        9.243501    1.906261   -3.980983
    133          1           0        9.541484    3.301748   -2.881422
    134          1           0        7.823676    4.179590   -4.975712
    135          1           0        8.857740    3.007280   -5.711418
    136          1           0        7.370747   -3.136447   -4.948124
    137          1           0        7.016218   -4.761790   -4.466712
    138          1           0        8.720384   -4.331537   -4.745049
    139          1           0        7.926791   -6.589878   -3.569859
    140          1           0        9.120020   -7.658941   -2.631769
    141          1           0        9.609212   -6.128620   -3.414218
    142          1           0        8.234183   -4.572821    3.396017
    143          1           0        6.714680   -2.451788    4.827486
    144          1           0        6.288569   -5.636285    3.857258
    145          1           0        5.496811   -4.540267    2.670719
    146          1           0        5.518340   -4.117138    4.306608
    147          1           0        8.662304   -3.714268    5.819804
    148          1           0        8.707062   -1.977389    6.056929
    149          1           0       10.230539   -3.777303    4.318695
    150          1           0       10.868567   -2.438855    5.341582
    151          1           0       10.083765   -2.118220    3.730496
    152          1           0        8.250350    3.668370    4.778306
    153          1           0        7.718677    2.059010    5.364386
    154          1           0        6.509371    3.152462    4.580690
    155          1           0        6.761467    4.574272   -0.340651
    156          1           0        8.974162    7.842309   -2.074653
    157          1           0        9.275079    6.462127   -3.310982
    158          1           0       10.268187    6.784990   -1.868170
 ---------------------------------------------------------------------

 SCF Done:  E(RCAM-B3LYP) =  -4069.81168479     A.U. after   19 cycles

 Excitation energies and oscillator strengths:

 Excited State   1:      Singlet-A      1.6702 eV  742.31 nm  f=0.0460  <S**2>=0.000
     309 -> 315       -0.10336
     310 -> 316        0.13816
     311 -> 313       -0.40972
     312 -> 314        0.55060
 This state for optimization and/or second-order correction.
 Total Energy, E(TD-HF/TD-DFT) =  -4069.75030435
 Copying the excited state density for this state as the 1-particle RhoCI density.

 Excited State   2:      Singlet-A      1.6847 eV  735.93 nm  f=0.7090  <S**2>=0.000
     309 -> 315        0.14180
     310 -> 316        0.10506
     311 -> 313        0.54983
     312 -> 314        0.40924

 Excited State   3:      Singlet-A      2.1856 eV  567.29 nm  f=0.0631  <S**2>=0.000
     309 -> 313       -0.13267
     310 -> 314        0.62885
     312 -> 316       -0.26696

 Excited State   4:      Singlet-A      2.1926 eV  565.47 nm  f=0.1313  <S**2>=0.000
     309 -> 313        0.62697
     310 -> 314        0.13168
     311 -> 315       -0.27235

 Excited State   5:      Singlet-A      2.7653 eV  448.36 nm  f=0.0000  <S**2>=0.000
     312 -> 313        0.70710

 The electronic state is 1-A.
 Alpha  occ. eigenvalues --  -46.87834 -46.87589 -19.26294 -19.26292 -19.19101
 Alpha  occ. eigenvalues --  -19.19034 -19.18862 -19.18654 -19.18194 -19.17973
 Alpha  occ. eigenvalues --  -14.42487 -14.42428 -14.41485 -14.41287 -14.39441
 Alpha  occ. eigenvalues --  -14.39282 -14.38622 -14.38526 -10.39095 -10.39029
 Alpha  occ. eigenvalues --  -10.35496 -10.35332 -10.34414 -10.34151 -10.31708
 Alpha  occ. eigenvalues --  -10.31680 -10.31439 -10.31239 -10.30959 -10.30947
 Alpha  occ. eigenvalues --  -10.30605 -10.30543 -10.30325 -10.30288 -10.30246
 Alpha  occ. eigenvalues --  -10.30072 -10.29953 -10.29819 -10.29668 -10.29367
 Alpha  occ. eigenvalues --  -10.29330 -10.29294 -10.28785 -10.28662 -10.28621
 Alpha  occ. eigenvalues --  -10.28577 -10.28401 -10.28335 -10.28153 -10.28081
 Alpha  occ. eigenvalues --  -10.27928 -10.27828 -10.27765 -10.27624 -10.27602
 Alpha  occ. eigenvalues --  -10.27535 -10.27534 -10.27481 -10.27445 -10.27438
 Alpha  occ. eigenvalues --  -10.27416 -10.27414 -10.27398 -10.27303 -10.27182
 Alpha  occ. eigenvalues --  -10.26976 -10.26745 -10.26647 -10.26472 -10.26367
 Alpha  occ. eigenvalues --  -10.26267 -10.26216 -10.26071 -10.26055 -10.25960
 Alpha  occ. eigenvalues --  -10.25868 -10.25861 -10.25754 -10.25464 -10.25321
 Alpha  occ. eigenvalues --  -10.24866 -10.24823 -10.24798 -10.24721 -10.24670
 Alpha  occ. eigenvalues --  -10.24619  -3.16577  -3.16339  -1.91458  -1.91221
 Alpha  occ. eigenvalues --   -1.91045  -1.90887  -1.90810  -1.90647  -1.16644
 Alpha  occ. eigenvalues --   -1.16585  -1.08650  -1.08580  -1.07263  -1.06907
 Alpha  occ. eigenvalues --   -1.06885  -1.06656  -1.04618  -1.04426  -1.03797
 Alpha  occ. eigenvalues --   -1.03593  -1.03270  -1.02967  -1.02447  -1.02039
 Alpha  occ. eigenvalues --   -0.92004  -0.91915  -0.89554  -0.89424  -0.89224
 Alpha  occ. eigenvalues --   -0.89092  -0.88320  -0.88150  -0.87902  -0.87714
 Alpha  occ. eigenvalues --   -0.87710  -0.87617  -0.87319  -0.87059  -0.85019
 Alpha  occ. eigenvalues --   -0.84940  -0.83968  -0.83807  -0.83014  -0.82872
 Alpha  occ. eigenvalues --   -0.82684  -0.82593  -0.81610  -0.81532  -0.80629
 Alpha  occ. eigenvalues --   -0.80378  -0.78838  -0.78568  -0.77254  -0.77081
 Alpha  occ. eigenvalues --   -0.76965  -0.76836  -0.75953  -0.75775  -0.74929
 Alpha  occ. eigenvalues --   -0.74733  -0.72809  -0.72627  -0.71705  -0.71512
 Alpha  occ. eigenvalues --   -0.69940  -0.69690  -0.68910  -0.68766  -0.67676
 Alpha  occ. eigenvalues --   -0.67534  -0.67260  -0.67146  -0.65321  -0.65210
 Alpha  occ. eigenvalues --   -0.64885  -0.64702  -0.64652  -0.64590  -0.64303
 Alpha  occ. eigenvalues --   -0.64135  -0.62319  -0.62215  -0.60483  -0.60274
 Alpha  occ. eigenvalues --   -0.59840  -0.59733  -0.59021  -0.58923  -0.58536
 Alpha  occ. eigenvalues --   -0.58357  -0.57609  -0.57484  -0.57342  -0.57168
 Alpha  occ. eigenvalues --   -0.56345  -0.56135  -0.56000  -0.55827  -0.55559
 Alpha  occ. eigenvalues --   -0.55390  -0.55367  -0.55179  -0.54548  -0.54422
 Alpha  occ. eigenvalues --   -0.53931  -0.53854  -0.53336  -0.53259  -0.53160
 Alpha  occ. eigenvalues --   -0.53080  -0.52944  -0.52840  -0.52800  -0.52612
 Alpha  occ. eigenvalues --   -0.52471  -0.52335  -0.51943  -0.51798  -0.51654
 Alpha  occ. eigenvalues --   -0.51601  -0.51226  -0.51132  -0.50624  -0.50419
 Alpha  occ. eigenvalues --   -0.50067  -0.49961  -0.49918  -0.49800  -0.49553
 Alpha  occ. eigenvalues --   -0.49427  -0.49248  -0.49137  -0.49129  -0.49038
 Alpha  occ. eigenvalues --   -0.48621  -0.48499  -0.48492  -0.48478  -0.48305
 Alpha  occ. eigenvalues --   -0.48277  -0.47731  -0.47532  -0.47333  -0.47054
 Alpha  occ. eigenvalues --   -0.46831  -0.46642  -0.46591  -0.46495  -0.46393
 Alpha  occ. eigenvalues --   -0.46202  -0.46192  -0.46013  -0.45847  -0.45751
 Alpha  occ. eigenvalues --   -0.45234  -0.45138  -0.44606  -0.44548  -0.44448
 Alpha  occ. eigenvalues --   -0.44413  -0.44180  -0.44124  -0.44062  -0.44052
 Alpha  occ. eigenvalues --   -0.44013  -0.43876  -0.43519  -0.43490  -0.43421
 Alpha  occ. eigenvalues --   -0.43320  -0.43059  -0.42868  -0.42831  -0.42724
 Alpha  occ. eigenvalues --   -0.42679  -0.42487  -0.42042  -0.41901  -0.41736
 Alpha  occ. eigenvalues --   -0.41599  -0.41570  -0.41399  -0.41175  -0.40922
 Alpha  occ. eigenvalues --   -0.40906  -0.40868  -0.40665  -0.40640  -0.40604
 Alpha  occ. eigenvalues --   -0.40425  -0.40274  -0.40177  -0.39475  -0.39358
 Alpha  occ. eigenvalues --   -0.38503  -0.38283  -0.37785  -0.37601  -0.37355
 Alpha  occ. eigenvalues --   -0.37300  -0.37198  -0.37136  -0.36733  -0.36710
 Alpha  occ. eigenvalues --   -0.36220  -0.36151  -0.34321  -0.34183  -0.33800
 Alpha  occ. eigenvalues --   -0.33788  -0.33220  -0.33105  -0.31391  -0.31213
 Alpha  occ. eigenvalues --   -0.31071  -0.30903  -0.30053  -0.29878  -0.29489
 Alpha  occ. eigenvalues --   -0.29356  -0.29258  -0.29136  -0.24116  -0.23964
 Alpha  occ. eigenvalues --   -0.21164  -0.21046
 Alpha virt. eigenvalues --   -0.08811  -0.08721  -0.01787  -0.01614  -0.00099
 Alpha virt. eigenvalues --    0.00036   0.02169   0.02283   0.03076   0.03290
 Alpha virt. eigenvalues --    0.04682   0.04794   0.05081   0.05228   0.06142

 Mulliken charges:
               1
     1  Mg   0.838531
     2  C   -0.002945
     3  C   -0.094263
     4  C   -0.045860
     5  C   -0.063940
     6  N   -0.256745
     7  C   -0.052463
     8  C   -0.013985
     9  C   -0.086959
    10  C    0.046235
    11  C    0.104810
    12  C    0.053532
    13  C   -0.071809
    14  H    0.036217
    15  N   -0.433093
    16  C    0.168307
    17  C   -0.177308
    18  C   -0.004103
    19  C    0.148642
    20  C    0.110214
    21  C    0.012168
    22  O   -0.249576
    23  C    0.062564
    24  N   -0.341120
    25  C    0.041195
    26  C   -0.028157
    27  C   -0.024021
    28  C    0.074885
    29  C    0.076140
    30  C    0.035116
    31  C   -0.004499
    32  N   -0.310507
    33  C    0.080472
    34  C   -0.169624
    35  C    0.008473
    36  C    0.083013
    37  C    0.127285
    38  C    0.046233
    39  O   -0.188083
    40  C   -0.005376
    41  C    0.212958
    42  O   -0.257056
    43  O   -0.304833
    44  C    0.157554
    45  H   -0.017662
    46  H   -0.016833
    47  H   -0.041392
    48  H    0.001075
    49  H   -0.004178
    50  H    0.025564
    51  H    0.016461
    52  H    0.016653
    53  H    0.010891
    54  H    0.044196
    55  H    0.018022
    56  H    0.017716
    57  H    0.005824
    58  H    0.026840
    59  H    0.039089
    60  H    0.037394
    61  H    0.035559
    62  H    0.031085
    63  H    0.016548
    64  H    0.009552
    65  H    0.023252
    66  H    0.012549
    67  H    0.004821
    68  H    0.006453
    69  H    0.004785
    70  H    0.008800
    71  H    0.018124
    72  H    0.028906
    73  H    0.047756
    74  H    0.009135
    75  H    0.046121
    76  H    0.035232
    77  H    0.043198
    78  H    0.046276
    79  H    0.053968
    80  Mg   0.837936
    81  C   -0.016785
    82  C   -0.087855
    83  C   -0.045437
    84  C   -0.064576
    85  N   -0.254549
    86  C   -0.049677
    87  C   -0.015104
    88  C   -0.090553
    89  C    0.045818
    90  C    0.114396
    91  C    0.062563
    92  C   -0.077727
    93  H    0.034682
    94  N   -0.423465
    95  C    0.162889
    96  C   -0.174732
    97  C   -0.007861
    98  C    0.152040
    99  C    0.099430
   100  C    0.015512
   101  O   -0.253252
   102  C    0.061237
   103  N   -0.349980
   104  C    0.037547
   105  C   -0.019868
   106  C   -0.034845
   107  C    0.088930
   108  C    0.073612
   109  C    0.034722
   110  C   -0.007648
   111  N   -0.324192
   112  C    0.078524
   113  C   -0.162843
   114  C    0.002455
   115  C    0.096237
   116  C    0.131419
   117  C    0.042637
   118  O   -0.187667
   119  C    0.000785
   120  C    0.211224
   121  O   -0.251142
   122  O   -0.305560
   123  C    0.152090
   124  H   -0.019978
   125  H   -0.015636
   126  H   -0.040262
   127  H   -0.000604
   128  H   -0.004681
   129  H    0.022949
   130  H    0.014666
   131  H    0.015724
   132  H    0.013838
   133  H    0.037680
   134  H    0.020689
   135  H    0.019374
   136  H    0.008501
   137  H    0.025987
   138  H    0.039561
   139  H    0.038178
   140  H    0.036262
   141  H    0.033765
   142  H    0.014246
   143  H    0.012726
   144  H    0.024940
   145  H    0.011833
   146  H    0.005866
   147  H    0.006179
   148  H    0.003741
   149  H    0.010837
   150  H    0.017837
   151  H    0.030089
   152  H    0.045920
   153  H    0.008478
   154  H    0.047806
   155  H    0.035445
   156  H    0.043883
   157  H    0.049294
   158  H    0.053501
 Sum of Mulliken charges =  -0.00000

 Dipole moment (field-independent basis, Debye):
    X=             -3.9197    Y=             -2.2930    Z=             -7.5800  Tot=              8.8362
 Quadrupole moment (field-independent basis, Debye-Ang):
   XX=           -517.6726   YY=           -547.9850   ZZ=           -451.0024
   XY=            -15.6723   XZ=              2.9180   YZ=            -45.0376

 Normal termination of Gaussian 16 at Sun Sep 12 05:24:37 2021.
