 Gaussian 16, Revision A.03,
 Gaussian 16:  ES64L-G16RevA.03 25-Dec-2016

 -----------------------------------
 #p cam-b3lyp/Def2SVP td=(nstates=5)
 -----------------------------------

 --------------------------------
 TDDFT excited states in gaussian
 --------------------------------
 Symbolic Z-matrix:
 Charge =  0 Multiplicity = 1

                         Standard orientation:
 ---------------------------------------------------------------------
 Center     Atomic      Atomic             Coordinates (Angstroms)
 Number     Number       Type             X           Y           Z
 ---------------------------------------------------------------------
      1         12           0        5.488724   -0.411294    0.296400
      2          6           0        5.592088    2.708728   -1.454883
      3          6           0        6.176161    1.335466    3.145843
      4          6           0        5.851787   -3.189322    1.782120
      5          6           0        5.938867   -1.984627   -2.780556
      6          7           0        5.818644    1.745560    0.670272
      7          6           0        5.771778    2.844341   -0.076491
      8          6           0        5.856082    4.159835    0.754017
      9          6           0        6.594402    3.593340    2.048608
     10          6           0        6.142109    2.145747    1.972251
     11          6           0        8.115893    3.638357    1.950931
     12          6           0        4.441862    4.732607    1.105649
     13          6           0        4.431226    6.172645    1.626736
     14          1           0        3.321477    7.040755    1.263153
     15          7           0        5.463764   -0.846566    2.223253
     16          6           0        5.754903   -0.008122    3.246745
     17          6           0        5.592729   -0.802706    4.483280
     18          6           0        5.368555   -2.220690    4.086843
     19          6           0        5.581238   -2.145666    2.663989
     20          6           0        5.608548   -0.201974    5.855366
     21          6           0        5.028551   -3.450472    4.867975
     22          8           0        5.107150   -4.621577    4.361113
     23          6           0        4.681679   -3.252423    6.286953
     24          7           0        6.063359   -2.307955   -0.359427
     25          6           0        6.082450   -3.351063    0.477559
     26          6           0        6.246642   -4.643982   -0.264964
     27          6           0        6.091910   -4.287080   -1.813652
     28          6           0        5.938311   -2.751238   -1.687681
     29          6           0        7.574710   -5.380293   -0.041155
     30          6           0        5.021695   -5.072291   -2.612715
     31          6           0        3.639994   -4.698202   -2.124804
     32          7           0        5.549543    0.204717   -1.783955
     33          6           0        5.771615   -0.615079   -2.899882
     34          6           0        5.831663    0.267719   -4.079343
     35          6           0        5.655745    1.549695   -3.562201
     36          6           0        5.522170    1.475022   -2.146266
     37          6           0        6.085304   -0.145016   -5.417158
     38          6           0        5.574177    2.967493   -3.873733
     39          8           0        5.527155    3.625430   -4.914118
     40          6           0        5.651641    3.785501   -2.509662
     41          6           0        4.550552    4.810416   -2.531160
     42          8           0        3.352435    4.463019   -2.496572
     43          8           0        5.076293    6.031571   -2.349725
     44          6           0        4.033722    7.092162   -2.331099
     45          1           0        6.619059    1.743677    4.056417
     46          1           0        5.874649   -4.179684    2.241575
     47          1           0        5.992165   -2.412145   -3.783472
     48          1           0        6.456092    4.947543    0.298027
     49          1           0        6.225968    4.057721    2.963118
     50          1           0        8.442546    3.933364    0.953840
     51          1           0        8.452184    2.626475    2.177856
     52          1           0        8.535387    4.275326    2.730080
     53          1           0        4.052343    4.215185    1.982353
     54          1           0        3.770086    4.653791    0.250178
     55          1           0        5.382967    6.670997    1.440343
     56          1           0        4.349675    6.142086    2.713298
     57          1           0        5.957643    0.829692    5.836873
     58          1           0        6.367322   -0.735266    6.427705
     59          1           0        4.642823   -0.290434    6.353243
     60          1           0        5.517299   -2.774111    6.798327
     61          1           0        4.381401   -4.230040    6.662384
     62          1           0        3.844057   -2.557363    6.351993
     63          1           0        5.473064   -5.357383    0.016216
     64          1           0        7.015559   -4.458154   -2.367076
     65          1           0        7.453747   -6.399219    0.327441
     66          1           0        8.178418   -4.785700    0.643890
     67          1           0        8.223398   -5.428849   -0.915376
     68          1           0        5.139246   -6.143513   -2.452680
     69          1           0        5.067005   -4.890444   -3.686554
     70          1           0        3.505759   -5.342351   -1.256538
     71          1           0        2.894537   -4.914897   -2.890668
     72          1           0        3.607625   -3.666716   -1.773413
     73          1           0        5.379277    0.400040   -6.043584
     74          1           0        5.964303   -1.222271   -5.528883
     75          1           0        7.121191    0.173132   -5.533673
     76          1           0        6.638661    4.245676   -2.475731
     77          1           0        4.303602    7.821006   -3.095418
     78          1           0        3.965290    7.441348   -1.300666
     79          1           0        3.039932    6.797189   -2.669791
     80         12           0       -5.071644   -0.950365   -0.063462
     81          6           0       -7.674293    1.509110    0.173723
     82          6           0       -2.844379    1.631686   -0.146460
     83          6           0       -2.798538   -3.063077   -0.724420
     84          6           0       -7.503320   -3.221794   -1.099455
     85          7           0       -5.345755    1.243136    0.011803
     86          6           0       -6.376336    2.061058    0.164304
     87          6           0       -5.989788    3.546508    0.395781
     88          6           0       -4.539087    3.527565   -0.292692
     89          6           0       -4.198114    2.050840   -0.103714
     90          6           0       -4.576329    3.822229   -1.783041
     91          6           0       -5.897787    3.909750    1.919462
     92          6           0       -5.829197    5.408604    2.220242
     93          1           0       -6.491274    5.908350    3.422056
     94          7           0       -3.098790   -0.806644    0.096970
     95          6           0       -2.359904    0.322217    0.065414
     96          6           0       -0.960201   -0.109127    0.203094
     97          6           0       -0.920444   -1.595935    0.152927
     98          6           0       -2.298819   -1.885122   -0.188446
     99          6           0        0.167669    0.852093    0.442653
    100          6           0        0.179430   -2.592061    0.363180
    101          8           0        0.043753   -3.823956    0.036281
    102          6           0        1.452273   -2.064717    0.876289
    103          7           0       -5.099880   -2.803653   -1.005195
    104          6           0       -3.980344   -3.540099   -1.115694
    105          6           0       -4.293810   -4.943300   -1.577393
    106          6           0       -5.887188   -5.068103   -1.521452
    107          6           0       -6.239680   -3.623480   -1.104058
    108          6           0       -3.803941   -5.307560   -2.978718
    109          6           0       -6.472404   -6.241649   -0.688998
    110          6           0       -6.184064   -6.026955    0.779391
    111          7           0       -7.225537   -0.953546   -0.233137
    112          6           0       -8.041696   -2.000623   -0.714388
    113          6           0       -9.428175   -1.491695   -0.747801
    114          6           0       -9.318353   -0.165947   -0.301932
    115          6           0       -7.956687    0.136756   -0.030394
    116          6           0      -10.569123   -2.214706   -1.196834
    117          6           0      -10.043337    1.049583   -0.009360
    118          8           0      -11.232229    1.363664    0.030838
    119          6           0       -8.995036    2.227415    0.191107
    120          6           0       -9.369675    2.974861    1.441501
    121          8           0       -9.302725    2.420985    2.552967
    122          8           0       -9.534851    4.276600    1.143934
    123          6           0       -9.896588    5.061354    2.354365
    124          1           0       -2.081973    2.365837   -0.408469
    125          1           0       -2.068505   -3.863228   -0.866903
    126          1           0       -8.331955   -3.899049   -1.317084
    127          1           0       -6.628769    4.265220   -0.103138
    128          1           0       -3.835965    4.153757    0.250320
    129          1           0       -5.587674    3.879449   -2.157261
    130          1           0       -4.042933    3.008749   -2.257159
    131          1           0       -4.002807    4.727283   -2.002795
    132          1           0       -4.918749    3.595976    2.303879
    133          1           0       -6.708332    3.468234    2.466006
    134          1           0       -6.103097    6.016707    1.349528
    135          1           0       -4.788062    5.675778    2.416919
    136          1           0       -0.143260    1.889168    0.265998
    137          1           0        0.921314    0.659368   -0.328537
    138          1           0        0.627209    0.725787    1.425276
    139          1           0        1.831875   -1.309030    0.192697
    140          1           0        2.084008   -2.938964    1.045014
    141          1           0        1.262640   -1.559620    1.829981
    142          1           0       -3.860181   -5.676459   -0.908405
    143          1           0       -6.319310   -5.220600   -2.521382
    144          1           0       -3.142241   -6.194145   -2.993037
    145          1           0       -3.297281   -4.448138   -3.397318
    146          1           0       -4.589778   -5.491041   -3.709458
    147          1           0       -5.988022   -7.181141   -0.966284
    148          1           0       -7.540134   -6.377411   -0.825059
    149          1           0       -5.164707   -6.409012    0.889146
    150          1           0       -6.884572   -6.589209    1.393542
    151          1           0       -6.163854   -4.958682    1.024411
    152          1           0      -11.361422   -2.018355   -0.486771
    153          1           0      -10.359488   -3.279430   -1.275436
    154          1           0      -10.719837   -1.752621   -2.176145
    155          1           0       -9.041900    2.861980   -0.694731
    156          1           0      -10.831709    5.583333    2.129048
    157          1           0       -9.012444    5.686680    2.580222
    158          1           0      -10.171779    4.509640    3.245617
 ---------------------------------------------------------------------

 SCF Done:  E(RCAM-B3LYP) =  -4069.81318886     A.U. after   19 cycles

 Excitation energies and oscillator strengths:

 Excited State   1:      Singlet-A      1.6707 eV  742.11 nm  f=0.4131  <S**2>=0.000
     310 -> 316       -0.15997
     311 -> 313       -0.24089
     312 -> 314        0.64267
 This state for optimization and/or second-order correction.
 Total Energy, E(TD-HF/TD-DFT) =  -4069.75179204
 Copying the excited state density for this state as the 1-particle RhoCI density.

 Excited State   2:      Singlet-A      1.6756 eV  739.95 nm  f=0.3831  <S**2>=0.000
     309 -> 315       -0.16456
     311 -> 313        0.64227
     312 -> 314        0.24047

 Excited State   3:      Singlet-A      2.1831 eV  567.93 nm  f=0.0253  <S**2>=0.000
     309 -> 313       -0.26305
     310 -> 314        0.58795
     311 -> 315       -0.10874
     312 -> 316        0.24630

 Excited State   4:      Singlet-A      2.1980 eV  564.09 nm  f=0.1527  <S**2>=0.000
     309 -> 313        0.58428
     310 -> 314        0.25948
     311 -> 315        0.25732
     312 -> 316        0.11299

 Excited State   5:      Singlet-A      2.4032 eV  515.91 nm  f=0.0000  <S**2>=0.000
     312 -> 313        0.70653

 The electronic state is 1-A.
 Alpha  occ. eigenvalues --  -46.88112 -46.87490 -19.26670 -19.26245 -19.19437
 Alpha  occ. eigenvalues --  -19.19049 -19.18975 -19.18640 -19.18441 -19.17899
 Alpha  occ. eigenvalues --  -14.42727 -14.42319 -14.41659 -14.41188 -14.39669
 Alpha  occ. eigenvalues --  -14.39182 -14.38873 -14.38432 -10.39480 -10.38976
 Alpha  occ. eigenvalues --  -10.35604 -10.35315 -10.34668 -10.34078 -10.32069
 Alpha  occ. eigenvalues --  -10.31677 -10.31673 -10.31195 -10.31116 -10.30837
 Alpha  occ. eigenvalues --  -10.30827 -10.30751 -10.30375 -10.30247 -10.30177
 Alpha  occ. eigenvalues --  -10.30113 -10.29968 -10.29857 -10.29747 -10.29493
 Alpha  occ. eigenvalues --  -10.29252 -10.29237 -10.29078 -10.28942 -10.28644
 Alpha  occ. eigenvalues --  -10.28560 -10.28543 -10.28407 -10.28225 -10.28039
 Alpha  occ. eigenvalues --  -10.27977 -10.27924 -10.27822 -10.27817 -10.27693
 Alpha  occ. eigenvalues --  -10.27674 -10.27492 -10.27464 -10.27463 -10.27447
 Alpha  occ. eigenvalues --  -10.27385 -10.27317 -10.27298 -10.27250 -10.27133
 Alpha  occ. eigenvalues --  -10.27116 -10.26905 -10.26565 -10.26543 -10.26480
 Alpha  occ. eigenvalues --  -10.26438 -10.26207 -10.26030 -10.26025 -10.25965
 Alpha  occ. eigenvalues --  -10.25765 -10.25743 -10.25710 -10.25460 -10.25289
 Alpha  occ. eigenvalues --  -10.25091 -10.25016 -10.24702 -10.24623 -10.24527
 Alpha  occ. eigenvalues --  -10.24215  -3.16827  -3.16240  -1.91712  -1.91294
 Alpha  occ. eigenvalues --   -1.91137  -1.91122  -1.90711  -1.90548  -1.17022
 Alpha  occ. eigenvalues --   -1.16537  -1.08907  -1.08512  -1.07369  -1.07049
 Alpha  occ. eigenvalues --   -1.06869  -1.06833  -1.04855  -1.04316  -1.03985
 Alpha  occ. eigenvalues --   -1.03494  -1.03480  -1.02871  -1.02650  -1.01941
 Alpha  occ. eigenvalues --   -0.92242  -0.91821  -0.89627  -0.89480  -0.89342
 Alpha  occ. eigenvalues --   -0.88962  -0.88350  -0.88104  -0.88077  -0.87918
 Alpha  occ. eigenvalues --   -0.87632  -0.87502  -0.87487  -0.86946  -0.85265
 Alpha  occ. eigenvalues --   -0.84833  -0.83972  -0.83746  -0.83083  -0.82879
 Alpha  occ. eigenvalues --   -0.82818  -0.82502  -0.81870  -0.81460  -0.80845
 Alpha  occ. eigenvalues --   -0.80299  -0.79018  -0.78448  -0.77427  -0.77146
 Alpha  occ. eigenvalues --   -0.76969  -0.76750  -0.76181  -0.75655  -0.74993
 Alpha  occ. eigenvalues --   -0.74655  -0.72987  -0.72524  -0.71890  -0.71409
 Alpha  occ. eigenvalues --   -0.69829  -0.69623  -0.69126  -0.68664  -0.67878
 Alpha  occ. eigenvalues --   -0.67513  -0.67451  -0.67068  -0.65576  -0.65107
 Alpha  occ. eigenvalues --   -0.65104  -0.64840  -0.64608  -0.64501  -0.64336
 Alpha  occ. eigenvalues --   -0.64057  -0.62575  -0.62142  -0.60630  -0.60187
 Alpha  occ. eigenvalues --   -0.60089  -0.59615  -0.59208  -0.58828  -0.58727
 Alpha  occ. eigenvalues --   -0.58262  -0.57890  -0.57468  -0.57411  -0.57099
 Alpha  occ. eigenvalues --   -0.56549  -0.56294  -0.56028  -0.55749  -0.55742
 Alpha  occ. eigenvalues --   -0.55486  -0.55332  -0.55113  -0.54668  -0.54363
 Alpha  occ. eigenvalues --   -0.54201  -0.53741  -0.53495  -0.53481  -0.53176
 Alpha  occ. eigenvalues --   -0.53081  -0.52993  -0.52977  -0.52751  -0.52545
 Alpha  occ. eigenvalues --   -0.52320  -0.52280  -0.52118  -0.51902  -0.51738
 Alpha  occ. eigenvalues --   -0.51516  -0.51389  -0.51052  -0.50744  -0.50308
 Alpha  occ. eigenvalues --   -0.50187  -0.49999  -0.49817  -0.49750  -0.49723
 Alpha  occ. eigenvalues --   -0.49466  -0.49349  -0.49347  -0.49027  -0.48938
 Alpha  occ. eigenvalues --   -0.48868  -0.48656  -0.48569  -0.48393  -0.48239
 Alpha  occ. eigenvalues --   -0.48189  -0.47892  -0.47506  -0.47409  -0.46992
 Alpha  occ. eigenvalues --   -0.46924  -0.46834  -0.46571  -0.46541  -0.46393
 Alpha  occ. eigenvalues --   -0.46335  -0.46096  -0.46080  -0.45937  -0.45680
 Alpha  occ. eigenvalues --   -0.45287  -0.45064  -0.44829  -0.44698  -0.44368
 Alpha  occ. eigenvalues --   -0.44364  -0.44323  -0.44275  -0.44176  -0.43956
 Alpha  occ. eigenvalues --   -0.43924  -0.43793  -0.43745  -0.43583  -0.43420
 Alpha  occ. eigenvalues --   -0.43243  -0.43221  -0.43028  -0.42799  -0.42742
 Alpha  occ. eigenvalues --   -0.42687  -0.42399  -0.42080  -0.41927  -0.41823
 Alpha  occ. eigenvalues --   -0.41740  -0.41516  -0.41368  -0.41305  -0.41097
 Alpha  occ. eigenvalues --   -0.41019  -0.40813  -0.40622  -0.40606  -0.40554
 Alpha  occ. eigenvalues --   -0.40546  -0.40347  -0.40103  -0.39307  -0.39293
 Alpha  occ. eigenvalues --   -0.38567  -0.38209  -0.38070  -0.37565  -0.37511
 Alpha  occ. eigenvalues --   -0.37430  -0.37112  -0.37029  -0.37028  -0.36654
 Alpha  occ. eigenvalues --   -0.36387  -0.36073  -0.34538  -0.34161  -0.34087
 Alpha  occ. eigenvalues --   -0.33739  -0.33431  -0.33004  -0.31507  -0.31269
 Alpha  occ. eigenvalues --   -0.31172  -0.30806  -0.30305  -0.29807  -0.29693
 Alpha  occ. eigenvalues --   -0.29582  -0.29151  -0.29042  -0.24339  -0.23862
 Alpha  occ. eigenvalues --   -0.21360  -0.20941
 Alpha virt. eigenvalues --   -0.09014  -0.08617  -0.01981  -0.01534  -0.00289
 Alpha virt. eigenvalues --    0.00075   0.01957   0.02223   0.02695   0.03365
 Alpha virt. eigenvalues --    0.04439   0.04713   0.04900   0.05285   0.05767

 Mulliken charges:
               1
     1  Mg   0.816168
     2  C   -0.003650
     3  C   -0.094315
     4  C   -0.048274
     5  C   -0.061107
     6  N   -0.256120
     7  C   -0.054294
     8  C   -0.013172
     9  C   -0.086668
    10  C    0.045732
    11  C    0.104653
    12  C    0.053299
    13  C   -0.071571
    14  H    0.034481
    15  N   -0.432561
    16  C    0.167603
    17  C   -0.178434
    18  C   -0.003991
    19  C    0.147272
    20  C    0.110299
    21  C    0.012214
    22  O   -0.247439
    23  C    0.062653
    24  N   -0.338822
    25  C    0.043537
    26  C   -0.027521
    27  C   -0.024212
    28  C    0.075016
    29  C    0.075957
    30  C    0.034099
    31  C   -0.000479
    32  N   -0.309650
    33  C    0.078923
    34  C   -0.169193
    35  C    0.008458
    36  C    0.080683
    37  C    0.127347
    38  C    0.045737
    39  O   -0.188166
    40  C   -0.005541
    41  C    0.213610
    42  O   -0.260453
    43  O   -0.303953
    44  C    0.157753
    45  H   -0.017302
    46  H   -0.015663
    47  H   -0.040575
    48  H    0.001411
    49  H   -0.004179
    50  H    0.025751
    51  H    0.017174
    52  H    0.017180
    53  H    0.009816
    54  H    0.041247
    55  H    0.019278
    56  H    0.018573
    57  H    0.005827
    58  H    0.027718
    59  H    0.039257
    60  H    0.037495
    61  H    0.037193
    62  H    0.030667
    63  H    0.019545
    64  H    0.009112
    65  H    0.024163
    66  H    0.012036
    67  H    0.004925
    68  H    0.006474
    69  H    0.003014
    70  H    0.015831
    71  H    0.020826
    72  H    0.023551
    73  H    0.047526
    74  H    0.010355
    75  H    0.046408
    76  H    0.035869
    77  H    0.044058
    78  H    0.046423
    79  H    0.052121
    80  Mg   0.837589
    81  C   -0.016858
    82  C   -0.088159
    83  C   -0.045314
    84  C   -0.065076
    85  N   -0.254473
    86  C   -0.050008
    87  C   -0.015160
    88  C   -0.090115
    89  C    0.044819
    90  C    0.114057
    91  C    0.062670
    92  C   -0.077371
    93  H    0.033634
    94  N   -0.423687
    95  C    0.162135
    96  C   -0.173055
    97  C   -0.008038
    98  C    0.152609
    99  C    0.094415
   100  C    0.019707
   101  O   -0.252052
   102  C    0.035136
   103  N   -0.350079
   104  C    0.037770
   105  C   -0.019877
   106  C   -0.034697
   107  C    0.088791
   108  C    0.073680
   109  C    0.034871
   110  C   -0.007597
   111  N   -0.323956
   112  C    0.078121
   113  C   -0.163576
   114  C    0.002127
   115  C    0.095881
   116  C    0.131574
   117  C    0.042057
   118  O   -0.188600
   119  C    0.001017
   120  C    0.211177
   121  O   -0.251390
   122  O   -0.305501
   123  C    0.152226
   124  H   -0.014425
   125  H   -0.016021
   126  H   -0.040981
   127  H   -0.000846
   128  H   -0.004261
   129  H    0.021701
   130  H    0.016393
   131  H    0.017681
   132  H    0.013459
   133  H    0.037229
   134  H    0.020987
   135  H    0.019199
   136  H    0.014198
   137  H    0.035843
   138  H    0.038334
   139  H    0.043651
   140  H    0.051199
   141  H    0.038507
   142  H    0.014115
   143  H    0.012190
   144  H    0.024191
   145  H    0.012136
   146  H    0.005559
   147  H    0.005808
   148  H    0.003421
   149  H    0.010874
   150  H    0.017533
   151  H    0.030243
   152  H    0.045503
   153  H    0.008143
   154  H    0.046726
   155  H    0.035060
   156  H    0.043650
   157  H    0.049336
   158  H    0.053224
 Sum of Mulliken charges =  -0.00000

 Dipole moment (field-independent basis, Debye):
    X=              5.8046    Y=              2.4961    Z=              2.8583  Tot=              6.9349
 Quadrupole moment (field-independent basis, Debye-Ang):
   XX=           -554.4241   YY=           -474.8681   ZZ=           -508.9985
   XY=             16.1597   XZ=             34.5516   YZ=             44.3356

 Normal termination of Gaussian 16 at Sat Sep 11 02:23:47 2021.
