 Gaussian 16, Revision A.03,
 Gaussian 16:  ES64L-G16RevA.03 25-Dec-2016

 -----------------------------------
 #p cam-b3lyp/Def2SVP td=(nstates=5)
 -----------------------------------

 --------------------------------
 TDDFT excited states in gaussian
 --------------------------------
 Symbolic Z-matrix:
 Charge =  0 Multiplicity = 1

                         Standard orientation:
 ---------------------------------------------------------------------
 Center     Atomic      Atomic             Coordinates (Angstroms)
 Number     Number       Type             X           Y           Z
 ---------------------------------------------------------------------
      1         12           0        5.477377   -0.451056    0.463836
      2          6           0        5.678874    2.619365   -1.364859
      3          6           0        6.082560    1.364592    3.288768
      4          6           0        5.755372   -3.191670    2.034941
      5          6           0        6.019082   -2.111398   -2.552035
      6          7           0        5.818376    1.711520    0.791912
      7          6           0        5.810771    2.790200    0.015019
      8          6           0        5.880402    4.126650    0.812782
      9          6           0        6.565500    3.587561    2.147706
     10          6           0        6.099701    2.143252    2.093600
     11          6           0        8.089924    3.613990    2.103703
     12          6           0        4.461170    4.723475    1.097934
     13          6           0        4.448399    6.177070    1.579860
     14          1           0        3.362339    7.046637    1.153628
     15          7           0        5.378657   -0.833938    2.399425
     16          6           0        5.642633    0.028698    3.410099
     17          6           0        5.427336   -0.730518    4.660666
     18          6           0        5.201262   -2.156249    4.294227
     19          6           0        5.465458   -2.121843    2.878461
     20          6           0        5.401020   -0.093213    6.015989
     21          6           0        4.819545   -3.360896    5.095007
     22          8           0        4.902796   -4.545999    4.622594
     23          6           0        4.424514   -3.121043    6.494816
     24          7           0        6.053340   -2.370622   -0.120259
     25          6           0        6.030605   -3.390930    0.744287
     26          6           0        6.206411   -4.705045    0.042766
     27          6           0        6.111167   -4.388423   -1.519422
     28          6           0        5.970738   -2.848220   -1.439909
     29          6           0        7.517136   -5.448925    0.333723
     30          6           0        5.061258   -5.183639   -2.335353
     31          6           0        3.667384   -4.782081   -1.907609
     32          7           0        5.619478    0.107976   -1.628611
     33          6           0        5.871867   -0.743888   -2.713646
     34          6           0        5.984081    0.106115   -3.913218
     35          6           0        5.804479    1.403339   -3.436984
     36          6           0        5.619586    1.368268   -2.025291
     37          6           0        6.280592   -0.345171   -5.229598
     38          6           0        5.750302    2.812999   -3.788806
     39          8           0        5.747984    3.443105   -4.847321
     40          6           0        5.788358    3.666628   -2.445044
     41          6           0        4.700530    4.702067   -2.533388
     42          8           0        3.498048    4.368296   -2.532736
     43          8           0        5.233385    5.922096   -2.365649
     44          6           0        4.203008    6.993665   -2.412749
     45          1           0        6.497300    1.792543    4.203531
     46          1           0        5.750490   -4.169471    2.521069
     47          1           0        6.103265   -2.566332   -3.540671
     48          1           0        6.505278    4.895452    0.357923
     49          1           0        6.169981    4.080261    3.035700
     50          1           0        8.455323    3.878571    1.111534
     51          1           0        8.406307    2.605127    2.369390
     52          1           0        8.488585    4.267304    2.880252
     53          1           0        4.034704    4.233983    1.973483
     54          1           0        3.819511    4.628665    0.221230
     55          1           0        5.411825    6.660220    1.414677
     56          1           0        4.327760    6.176670    2.663210
     57          1           0        5.762326    0.933867    5.982674
     58          1           0        6.132727   -0.618799    6.629238
     59          1           0        4.417185   -0.158099    6.480951
     60          1           0        5.246757   -2.637896    7.023053
     61          1           0        4.099865   -4.084985    6.885032
     62          1           0        3.593106   -2.415747    6.511172
     63          1           0        5.415180   -5.402465    0.314768
     64          1           0        7.051971   -4.584020   -2.034497
     65          1           0        7.371446   -6.456220    0.724664
     66          1           0        8.102757   -4.842434    1.024019
     67          1           0        8.196028   -5.527822   -0.514981
     68          1           0        5.160764   -6.251329   -2.142788
     69          1           0        5.146958   -5.031293   -3.411316
     70          1           0        3.494877   -5.401147   -1.027932
     71          1           0        2.947319   -5.011525   -2.693786
     72          1           0        3.634285   -3.741215   -1.585138
     73          1           0        5.603661    0.190164   -5.895293
     74          1           0        6.151349   -1.423720   -5.316948
     75          1           0        7.323549   -0.041147   -5.317156
     76          1           0        6.778734    4.117188   -2.387839
     77          1           0        4.508323    7.698772   -3.185951
     78          1           0        4.101824    7.371201   -1.395089
     79          1           0        3.218638    6.700093   -2.779042
     80         12           0       -5.067498   -0.888781   -0.262157
     81          6           0       -7.692968    1.498359    0.274067
     82          6           0       -2.970954    1.754087   -0.766508
     83          6           0       -2.842800   -2.956473   -1.180177
     84          6           0       -7.542598   -3.272269   -0.844013
     85          7           0       -5.405921    1.296691   -0.223695
     86          6           0       -6.431280    2.088505    0.051992
     87          6           0       -6.068259    3.593015    0.171134
     88          6           0       -4.735506    3.590489   -0.724769
     89          6           0       -4.317643    2.133478   -0.537165
     90          6           0       -5.003150    3.824147   -2.202309
     91          6           0       -5.765150    4.019436    1.650434
     92          6           0       -5.706620    5.530499    1.884987
     93          1           0       -6.201288    6.057573    3.153830
     94          7           0       -3.099023   -0.679154   -0.402692
     95          6           0       -2.413857    0.469379   -0.583506
     96          6           0       -0.994636    0.086415   -0.640980
     97          6           0       -0.909461   -1.399340   -0.644448
     98          6           0       -2.311901   -1.743479   -0.766229
     99          6           0        0.121076    1.090107   -0.605982
    100          6           0        0.244392   -2.352554   -0.565731
    101          8           0        0.106129   -3.600047   -0.825450
    102          6           0        1.559364   -1.766870   -0.266841
    103          7           0       -5.168170   -2.778201   -1.123713
    104          6           0       -4.051593   -3.484264   -1.374005
    105          6           0       -4.379349   -4.913616   -1.734426
    106          6           0       -5.941466   -5.084235   -1.437296
    107          6           0       -6.279938   -3.635414   -1.022843
    108          6           0       -4.089250   -5.318569   -3.179497
    109          6           0       -6.354771   -6.240764   -0.486356
    110          6           0       -5.860447   -5.958980    0.914227
    111          7           0       -7.221298   -0.963880   -0.108691
    112          6           0       -8.061568   -2.053534   -0.425982
    113          6           0       -9.455098   -1.588525   -0.270157
    114          6           0       -9.328167   -0.243305    0.107695
    115          6           0       -7.953059    0.111045    0.162485
    116          6           0      -10.623219   -2.363062   -0.518543
    117          6           0      -10.045035    0.960451    0.462331
    118          8           0      -11.225423    1.239777    0.668260
    119          6           0       -9.021518    2.176507    0.462963
    120          6           0       -9.233778    2.961616    1.728290
    121          8           0       -8.983483    2.454847    2.836055
    122          8           0       -9.487676    4.244845    1.413300
    123          6           0       -9.694431    5.066009    2.635910
    124          1           0       -2.282450    2.499911   -1.164754
    125          1           0       -2.113645   -3.739228   -1.401782
    126          1           0       -8.369486   -3.982427   -0.911878
    127          1           0       -6.799302    4.271585   -0.251815
    128          1           0       -3.982761    4.258845   -0.314882
    129          1           0       -6.060090    3.835761   -2.423388
    130          1           0       -4.516885    3.008885   -2.721876
    131          1           0       -4.501221    4.736634   -2.536631
    132          1           0       -4.729435    3.751022    1.895380
    133          1           0       -6.469657    3.575783    2.326796
    134          1           0       -6.127827    6.094777    1.044082
    135          1           0       -4.658101    5.836675    1.914826
    136          1           0       -0.249517    2.109409   -0.770516
    137          1           0        0.758876    0.889616   -1.473662
    138          1           0        0.725030    1.017088    0.300980
    139          1           0        1.806433   -1.027952   -1.025397
    140          1           0        2.240021   -2.614184   -0.163670
    141          1           0        1.494797   -1.230064    0.686192
    142          1           0       -3.825625   -5.606036   -1.112295
    143          1           0       -6.510876   -5.289539   -2.355689
    144          1           0       -3.405583   -6.184599   -3.261238
    145          1           0       -3.681152   -4.461611   -3.698761
    146          1           0       -4.967373   -5.554774   -3.778085
    147          1           0       -5.883332   -7.175501   -0.799689
    148          1           0       -7.425329   -6.414085   -0.456926
    149          1           0       -4.823038   -6.305340    0.884130
    150          1           0       -6.441883   -6.517193    1.645225
    151          1           0       -5.842556   -4.881652    1.115960
    152          1           0      -11.308402   -2.162571    0.294368
    153          1           0      -10.389485   -3.423253   -0.590198
    154          1           0      -10.933480   -1.945223   -1.480011
    155          1           0       -9.221513    2.773490   -0.427656
    156          1           0      -10.670677    5.550045    2.534354
    157          1           0       -8.809608    5.726317    2.705444
    158          1           0       -9.814919    4.542252    3.576978
 ---------------------------------------------------------------------

 SCF Done:  E(RCAM-B3LYP) =  -4069.81386540     A.U. after   19 cycles

 Excitation energies and oscillator strengths:

 Excited State   1:      Singlet-A      1.6654 eV  744.47 nm  f=0.3664  <S**2>=0.000
     309 -> 315       -0.10354
     310 -> 316       -0.13623
     311 -> 313        0.41021
     312 -> 314        0.55042
 This state for optimization and/or second-order correction.
 Total Energy, E(TD-HF/TD-DFT) =  -4069.75266339
 Copying the excited state density for this state as the 1-particle RhoCI density.

 Excited State   2:      Singlet-A      1.6811 eV  737.51 nm  f=0.4304  <S**2>=0.000
     309 -> 315       -0.14139
     310 -> 316        0.10342
     311 -> 313        0.54978
     312 -> 314       -0.40986

 Excited State   3:      Singlet-A      2.1839 eV  567.73 nm  f=0.0228  <S**2>=0.000
     309 -> 313       -0.27613
     310 -> 314        0.58164
     311 -> 315       -0.11430
     312 -> 316        0.24445

 Excited State   4:      Singlet-A      2.1978 eV  564.13 nm  f=0.1552  <S**2>=0.000
     309 -> 313        0.57840
     310 -> 314        0.27258
     311 -> 315        0.25410
     312 -> 316        0.11877

 Excited State   5:      Singlet-A      2.4154 eV  513.31 nm  f=0.0000  <S**2>=0.000
     312 -> 313        0.70659

 The electronic state is 1-A.
 Alpha  occ. eigenvalues --  -46.88077 -46.87488 -19.26690 -19.26250 -19.19470
 Alpha  occ. eigenvalues --  -19.19054 -19.18939 -19.18697 -19.18435 -19.17895
 Alpha  occ. eigenvalues --  -14.42698 -14.42321 -14.41631 -14.41184 -14.39637
 Alpha  occ. eigenvalues --  -14.39182 -14.38855 -14.38428 -10.39505 -10.38980
 Alpha  occ. eigenvalues --  -10.35568 -10.35384 -10.34664 -10.34075 -10.32086
 Alpha  occ. eigenvalues --  -10.31680 -10.31659 -10.31164 -10.31119 -10.30831
 Alpha  occ. eigenvalues --  -10.30808 -10.30719 -10.30341 -10.30254 -10.30167
 Alpha  occ. eigenvalues --  -10.30089 -10.29960 -10.29835 -10.29751 -10.29462
 Alpha  occ. eigenvalues --  -10.29242 -10.29216 -10.29053 -10.28915 -10.28622
 Alpha  occ. eigenvalues --  -10.28564 -10.28550 -10.28384 -10.28217 -10.28016
 Alpha  occ. eigenvalues --  -10.27948 -10.27938 -10.27811 -10.27787 -10.27651
 Alpha  occ. eigenvalues --  -10.27651 -10.27462 -10.27447 -10.27440 -10.27431
 Alpha  occ. eigenvalues --  -10.27382 -10.27317 -10.27289 -10.27251 -10.27104
 Alpha  occ. eigenvalues --  -10.26917 -10.26906 -10.26569 -10.26497 -10.26493
 Alpha  occ. eigenvalues --  -10.26460 -10.26180 -10.26022 -10.26020 -10.25870
 Alpha  occ. eigenvalues --  -10.25784 -10.25758 -10.25706 -10.25434 -10.25291
 Alpha  occ. eigenvalues --  -10.25075 -10.24977 -10.24694 -10.24618 -10.24528
 Alpha  occ. eigenvalues --  -10.24075  -3.16790  -3.16238  -1.91674  -1.91258
 Alpha  occ. eigenvalues --   -1.91121  -1.91100  -1.90709  -1.90546  -1.17042
 Alpha  occ. eigenvalues --   -1.16542  -1.08906  -1.08509  -1.07333  -1.07076
 Alpha  occ. eigenvalues --   -1.06918  -1.06837  -1.04829  -1.04317  -1.03957
 Alpha  occ. eigenvalues --   -1.03494  -1.03455  -1.02867  -1.02626  -1.01937
 Alpha  occ. eigenvalues --   -0.92226  -0.91819  -0.89591  -0.89451  -0.89338
 Alpha  occ. eigenvalues --   -0.88972  -0.88307  -0.88086  -0.88075  -0.87891
 Alpha  occ. eigenvalues --   -0.87627  -0.87498  -0.87452  -0.86915  -0.85238
 Alpha  occ. eigenvalues --   -0.84838  -0.83934  -0.83745  -0.83039  -0.82860
 Alpha  occ. eigenvalues --   -0.82819  -0.82513  -0.81859  -0.81462  -0.80822
 Alpha  occ. eigenvalues --   -0.80304  -0.78988  -0.78418  -0.77398  -0.77119
 Alpha  occ. eigenvalues --   -0.76954  -0.76754  -0.76160  -0.75647  -0.74958
 Alpha  occ. eigenvalues --   -0.74646  -0.72960  -0.72514  -0.71867  -0.71411
 Alpha  occ. eigenvalues --   -0.69777  -0.69618  -0.69100  -0.68669  -0.67856
 Alpha  occ. eigenvalues --   -0.67483  -0.67458  -0.67084  -0.65554  -0.65111
 Alpha  occ. eigenvalues --   -0.65088  -0.64813  -0.64607  -0.64507  -0.64291
 Alpha  occ. eigenvalues --   -0.64055  -0.62567  -0.62143  -0.60597  -0.60178
 Alpha  occ. eigenvalues --   -0.60063  -0.59620  -0.59185  -0.58827  -0.58705
 Alpha  occ. eigenvalues --   -0.58255  -0.57890  -0.57441  -0.57410  -0.57097
 Alpha  occ. eigenvalues --   -0.56533  -0.56286  -0.56011  -0.55742  -0.55718
 Alpha  occ. eigenvalues --   -0.55467  -0.55336  -0.55112  -0.54642  -0.54365
 Alpha  occ. eigenvalues --   -0.54177  -0.53749  -0.53465  -0.53455  -0.53164
 Alpha  occ. eigenvalues --   -0.53094  -0.53000  -0.52946  -0.52754  -0.52516
 Alpha  occ. eigenvalues --   -0.52279  -0.52263  -0.52101  -0.51876  -0.51733
 Alpha  occ. eigenvalues --   -0.51516  -0.51373  -0.51049  -0.50702  -0.50301
 Alpha  occ. eigenvalues --   -0.50157  -0.49995  -0.49786  -0.49727  -0.49703
 Alpha  occ. eigenvalues --   -0.49446  -0.49382  -0.49320  -0.49025  -0.48946
 Alpha  occ. eigenvalues --   -0.48856  -0.48632  -0.48538  -0.48397  -0.48241
 Alpha  occ. eigenvalues --   -0.48202  -0.47863  -0.47484  -0.47403  -0.46984
 Alpha  occ. eigenvalues --   -0.46887  -0.46803  -0.46555  -0.46534  -0.46432
 Alpha  occ. eigenvalues --   -0.46282  -0.46083  -0.46056  -0.45924  -0.45681
 Alpha  occ. eigenvalues --   -0.45248  -0.45062  -0.44820  -0.44690  -0.44427
 Alpha  occ. eigenvalues --   -0.44357  -0.44351  -0.44247  -0.44157  -0.43947
 Alpha  occ. eigenvalues --   -0.43906  -0.43817  -0.43707  -0.43471  -0.43419
 Alpha  occ. eigenvalues --   -0.43219  -0.43209  -0.43029  -0.42799  -0.42733
 Alpha  occ. eigenvalues --   -0.42640  -0.42387  -0.42022  -0.41896  -0.41821
 Alpha  occ. eigenvalues --   -0.41688  -0.41515  -0.41342  -0.41310  -0.41058
 Alpha  occ. eigenvalues --   -0.40977  -0.40816  -0.40640  -0.40559  -0.40546
 Alpha  occ. eigenvalues --   -0.40494  -0.40346  -0.40111  -0.39294  -0.39228
 Alpha  occ. eigenvalues --   -0.38525  -0.38209  -0.38042  -0.37540  -0.37513
 Alpha  occ. eigenvalues --   -0.37390  -0.37111  -0.37038  -0.37026  -0.36657
 Alpha  occ. eigenvalues --   -0.36356  -0.36074  -0.34515  -0.34182  -0.34085
 Alpha  occ. eigenvalues --   -0.33743  -0.33409  -0.33004  -0.31473  -0.31249
 Alpha  occ. eigenvalues --   -0.31209  -0.30808  -0.30301  -0.29804  -0.29667
 Alpha  occ. eigenvalues --   -0.29562  -0.29140  -0.29035  -0.24310  -0.23861
 Alpha  occ. eigenvalues --   -0.21335  -0.20934
 Alpha virt. eigenvalues --   -0.08987  -0.08609  -0.01953  -0.01530  -0.00259
 Alpha virt. eigenvalues --    0.00106   0.01973   0.02346   0.02881   0.03369
 Alpha virt. eigenvalues --    0.04466   0.04695   0.04897   0.05281   0.05833

 Mulliken charges:
               1
     1  Mg   0.816897
     2  C   -0.003990
     3  C   -0.094123
     4  C   -0.045717
     5  C   -0.060031
     6  N   -0.256070
     7  C   -0.054484
     8  C   -0.013237
     9  C   -0.086726
    10  C    0.045897
    11  C    0.104658
    12  C    0.053170
    13  C   -0.071577
    14  H    0.034441
    15  N   -0.432223
    16  C    0.168210
    17  C   -0.177645
    18  C   -0.003520
    19  C    0.148206
    20  C    0.110187
    21  C    0.012930
    22  O   -0.247665
    23  C    0.062341
    24  N   -0.338698
    25  C    0.040510
    26  C   -0.028037
    27  C   -0.023766
    28  C    0.074786
    29  C    0.076132
    30  C    0.037244
    31  C   -0.004724
    32  N   -0.309699
    33  C    0.076043
    34  C   -0.169538
    35  C    0.007724
    36  C    0.079876
    37  C    0.127526
    38  C    0.045179
    39  O   -0.188483
    40  C   -0.005545
    41  C    0.213832
    42  O   -0.261416
    43  O   -0.303762
    44  C    0.157821
    45  H   -0.017314
    46  H   -0.015729
    47  H   -0.041042
    48  H    0.001262
    49  H   -0.004016
    50  H    0.025703
    51  H    0.017145
    52  H    0.017183
    53  H    0.010337
    54  H    0.041017
    55  H    0.019133
    56  H    0.018763
    57  H    0.005831
    58  H    0.027616
    59  H    0.039907
    60  H    0.037348
    61  H    0.036940
    62  H    0.031470
    63  H    0.019201
    64  H    0.008846
    65  H    0.023993
    66  H    0.011922
    67  H    0.004966
    68  H    0.005856
    69  H    0.001975
    70  H    0.013710
    71  H    0.023909
    72  H    0.024484
    73  H    0.047041
    74  H    0.010466
    75  H    0.046379
    76  H    0.035925
    77  H    0.044056
    78  H    0.046654
    79  H    0.051789
    80  Mg   0.837457
    81  C   -0.016779
    82  C   -0.087881
    83  C   -0.045552
    84  C   -0.065097
    85  N   -0.254410
    86  C   -0.050302
    87  C   -0.015081
    88  C   -0.090174
    89  C    0.044869
    90  C    0.114155
    91  C    0.062622
    92  C   -0.077393
    93  H    0.033544
    94  N   -0.423639
    95  C    0.161986
    96  C   -0.173382
    97  C   -0.006409
    98  C    0.152654
    99  C    0.095645
   100  C    0.022433
   101  O   -0.252596
   102  C    0.012719
   103  N   -0.350146
   104  C    0.037873
   105  C   -0.019911
   106  C   -0.034646
   107  C    0.088717
   108  C    0.073704
   109  C    0.034872
   110  C   -0.007591
   111  N   -0.323926
   112  C    0.077986
   113  C   -0.163662
   114  C    0.002088
   115  C    0.095756
   116  C    0.131589
   117  C    0.041985
   118  O   -0.188724
   119  C    0.001017
   120  C    0.211174
   121  O   -0.251404
   122  O   -0.305516
   123  C    0.152228
   124  H   -0.015094
   125  H   -0.016155
   126  H   -0.041037
   127  H   -0.000935
   128  H   -0.003947
   129  H    0.021806
   130  H    0.015710
   131  H    0.017256
   132  H    0.013617
   133  H    0.037202
   134  H    0.020934
   135  H    0.019345
   136  H    0.015248
   137  H    0.038322
   138  H    0.037986
   139  H    0.055954
   140  H    0.057692
   141  H    0.040341
   142  H    0.014088
   143  H    0.012134
   144  H    0.024225
   145  H    0.012059
   146  H    0.005570
   147  H    0.005784
   148  H    0.003404
   149  H    0.010908
   150  H    0.017532
   151  H    0.030254
   152  H    0.045450
   153  H    0.008116
   154  H    0.046617
   155  H    0.034943
   156  H    0.043632
   157  H    0.049329
   158  H    0.053198
 Sum of Mulliken charges =  -0.00000

 Dipole moment (field-independent basis, Debye):
    X=              5.3480    Y=              2.6816    Z=              2.3354  Tot=              6.4223
 Quadrupole moment (field-independent basis, Debye-Ang):
   XX=           -552.6616   YY=           -470.9496   ZZ=           -511.9907
   XY=             14.9338   XZ=             39.9691   YZ=             39.1632

 Normal termination of Gaussian 16 at Sat Sep 11 02:56:24 2021.
