 Gaussian 16, Revision A.03,
 Gaussian 16:  ES64L-G16RevA.03 25-Dec-2016

 -----------------------------------
 #p cam-b3lyp/Def2SVP td=(nstates=5)
 -----------------------------------

 --------------------------------
 TDDFT excited states in gaussian
 --------------------------------
 Symbolic Z-matrix:
 Charge =  0 Multiplicity = 1

                         Standard orientation:
 ---------------------------------------------------------------------
 Center     Atomic      Atomic             Coordinates (Angstroms)
 Number     Number       Type             X           Y           Z
 ---------------------------------------------------------------------
      1         12           0        4.135695    1.533280    0.333748
      2          6           0        5.557688   -1.606696   -0.630981
      3          6           0        4.728796    2.610725   -2.849082
      4          6           0        3.307203    4.444164    1.280837
      5          6           0        4.699162    0.603519    3.644897
      6          7           0        5.032862    0.534968   -1.426681
      7          6           0        5.483075   -0.689557   -1.681664
      8          6           0        5.797848   -0.930796   -3.188348
      9          6           0        6.041713    0.578862   -3.639416
     10          6           0        5.189349    1.283916   -2.599080
     11          6           0        7.488243    1.035980   -3.480997
     12          6           0        4.589954   -1.569260   -3.953258
     13          6           0        4.918766   -2.134824   -5.337951
     14          1           0        4.232027   -3.337535   -5.784298
     15          7           0        3.581577    3.112743   -0.715585
     16          6           0        3.900997    3.381512   -2.004391
     17          6           0        3.250191    4.669951   -2.325418
     18          6           0        2.684586    5.221097   -1.062714
     19          6           0        3.197820    4.282072   -0.098245
     20          6           0        3.168741    5.227333   -3.713381
     21          6           0        1.827590    6.411959   -0.770245
     22          8           0        1.642207    6.840735    0.419863
     23          6           0        1.275117    7.125866   -1.935643
     24          7           0        4.216819    2.502424    2.180858
     25          6           0        3.739505    3.742850    2.330847
     26          6           0        3.644327    4.119806    3.779565
     27          6           0        3.929605    2.782396    4.604006
     28          6           0        4.236597    1.835035    3.418032
     29          6           0        4.603291    5.222751    4.248515
     30          6           0        2.857249    2.349732    5.635157
     31          6           0        1.590012    1.942266    4.917397
     32          7           0        4.810621   -0.252665    1.366182
     33          6           0        4.992431   -0.409938    2.747806
     34          6           0        5.564002   -1.752734    2.958217
     35          6           0        5.691247   -2.280391    1.674771
     36          6           0        5.252985   -1.317585    0.721240
     37          6           0        5.946767   -2.308619    4.210781
     38          6           0        6.118521   -3.424279    0.885585
     39          8           0        6.492479   -4.568181    1.148524
     40          6           0        6.163215   -2.988244   -0.645331
     41          6           0        5.462726   -4.054753   -1.442313
     42          8           0        4.235763   -4.245016   -1.316896
     43          8           0        6.291567   -4.517529   -2.390681
     44          6           0        5.648198   -5.558189   -3.236409
     45          1           0        5.079124    3.131503   -3.742392
     46          1           0        2.927346    5.395424    1.659323
     47          1           0        4.822499    0.212275    4.656416
     48          1           0        6.692508   -1.524655   -3.376330
     49          1           0        5.655404    0.772088   -4.639991
     50          1           0        8.087847    0.288134   -2.962227
     51          1           0        7.440513    1.956426   -2.898765
     52          1           0        7.914688    1.313235   -4.445389
     53          1           0        3.887881   -0.784637   -4.235254
     54          1           0        4.117792   -2.345221   -3.349708
     55          1           0        5.994948   -2.233377   -5.482962
     56          1           0        4.610184   -1.405399   -6.086894
     57          1           0        3.816033    4.684941   -4.401400
     58          1           0        3.590379    6.231678   -3.678419
     59          1           0        2.142432    5.271984   -4.078111
     60          1           0        2.093821    7.472861   -2.566410
     61          1           0        0.616488    7.894535   -1.532895
     62          1           0        0.699307    6.423798   -2.539374
     63          1           0        2.647480    4.484393    4.024099
     64          1           0        4.847923    2.849821    5.187804
     65          1           0        4.099749    6.078140    4.699580
     66          1           0        5.206985    5.529781    3.394948
     67          1           0        5.370234    4.894055    4.949353
     68          1           0        2.601829    3.183014    6.288875
     69          1           0        3.176408    1.519539    6.265370
     70          1           0        1.087440    2.894449    4.751263
     71          1           0        0.988335    1.288294    5.549470
     72          1           0        1.807054    1.513296    3.938948
     73          1           0        5.588860   -3.338119    4.209753
     74          1           0        5.523892   -1.743059    5.040795
     75          1           0        7.030909   -2.214391    4.150677
     76          1           0        7.215028   -2.899731   -0.915473
     77          1           0        6.281548   -6.444283   -3.192371
     78          1           0        5.480902   -5.103863   -4.213141
     79          1           0        4.703909   -5.961726   -2.869235
     80         12           0       -4.287170   -1.642679    0.169381
     81          6           0       -5.240369    1.537450   -1.193437
     82          6           0       -3.996355   -0.091684    3.193357
     83          6           0       -3.014411   -4.317192    1.307133
     84          6           0       -3.551682   -2.659403   -3.081932
     85          7           0       -4.604961    0.455577    0.792737
     86          6           0       -5.026066    1.562916    0.200429
     87          6           0       -5.306035    2.743596    1.168502
     88          6           0       -4.348902    2.295347    2.377573
     89          6           0       -4.338569    0.787459    2.135013
     90          6           0       -2.925819    2.810777    2.241445
     91          6           0       -6.808234    2.805045    1.617548
     92          6           0       -7.219083    4.105134    2.312331
     93          1           0       -8.565769    4.621280    2.083190
     94          7           0       -4.071676   -2.267682    2.040607
     95          6           0       -3.994956   -1.503236    3.150120
     96          6           0       -3.818985   -2.438650    4.271810
     97          6           0       -3.632896   -3.806877    3.716804
     98          6           0       -3.543034   -3.507378    2.301768
     99          6           0       -3.916704   -2.014126    5.708351
    100          6           0       -3.537170   -5.159495    4.355120
    101          8           0       -3.137102   -6.186220    3.700431
    102          6           0       -3.836102   -5.228522    5.792955
    103          7           0       -3.211457   -3.182547   -0.721683
    104          6           0       -2.821122   -4.254804   -0.010467
    105          6           0       -2.309146   -5.351469   -0.913565
    106          6           0       -2.663656   -4.883536   -2.401157
    107          6           0       -3.265829   -3.495085   -2.092958
    108          6           0       -0.812912   -5.648672   -0.816790
    109          6           0       -3.488954   -5.870469   -3.271524
    110          6           0       -4.885909   -6.009241   -2.710607
    111          7           0       -4.541164   -0.820430   -1.812402
    112          6           0       -4.139078   -1.401562   -3.034979
    113          6           0       -4.421089   -0.416243   -4.098949
    114          6           0       -4.950587    0.687503   -3.413478
    115          6           0       -4.976653    0.417434   -2.018532
    116          6           0       -4.142013   -0.585234   -5.484473
    117          6           0       -5.483521    2.023752   -3.551700
    118          8           0       -5.781949    2.745968   -4.502006
    119          6           0       -5.577384    2.682201   -2.108082
    120          6           0       -6.937018    3.310982   -1.971862
    121          8           0       -7.961611    2.606147   -1.965955
    122          8           0       -6.791766    4.610370   -1.654273
    123          6           0       -8.113075    5.274726   -1.497532
    124          1           0       -3.655578    0.338495    4.135531
    125          1           0       -2.663251   -5.298354    1.634983
    126          1           0       -3.441745   -2.938333   -4.132067
    127          1           0       -5.005749    3.716205    0.797527
    128          1           0       -4.796740    2.523466    3.341298
    129          1           0       -2.762431    3.296428    1.290871
    130          1           0       -2.287855    1.941914    2.337006
    131          1           0       -2.678017    3.460904    3.085392
    132          1           0       -6.965568    2.094896    2.439547
    133          1           0       -7.461835    2.616383    0.788187
    134          1           0       -6.474766    4.898914    2.175016
    135          1           0       -7.231438    3.933055    3.391343
    136          1           0       -3.894956   -0.921821    5.807376
    137          1           0       -2.999565   -2.350108    6.204162
    138          1           0       -4.776056   -2.453033    6.219760
    139          1           0       -3.159985   -4.571075    6.334346
    140          1           0       -3.801688   -6.289486    6.047992
    141          1           0       -4.848716   -4.844089    5.958614
    142          1           0       -2.814360   -6.287605   -0.709837
    143          1           0       -1.757789   -4.707368   -2.999656
    144          1           0       -0.592777   -6.703571   -0.566166
    145          1           0       -0.379924   -4.984585   -0.080544
    146          1           0       -0.236315   -5.411570   -1.709263
    147          1           0       -3.041877   -6.867141   -3.241148
    148          1           0       -3.552430   -5.577633   -4.314216
    149          1           0       -4.761120   -6.754132   -1.919005
    150          1           0       -5.573599   -6.359768   -3.477585
    151          1           0       -5.214274   -5.076762   -2.236986
    152          1           0       -5.007279   -0.222092   -6.022914
    153          1           0       -3.931717   -1.625591   -5.723673
    154          1           0       -3.254876    0.046049   -5.583150
    155          1           0       -4.776317    3.418371   -2.031069
    156          1           0       -8.120717    6.134473   -2.174633
    157          1           0       -8.215710    5.484250   -0.416183
    158          1           0       -8.989452    4.733018   -1.833651
 ---------------------------------------------------------------------

 SCF Done:  E(RCAM-B3LYP) =  -4069.81206324     A.U. after   19 cycles

 Excitation energies and oscillator strengths:

 Excited State   1:      Singlet-A      1.6525 eV  750.27 nm  f=0.0684  <S**2>=0.000
     309 -> 315        0.10922
     310 -> 316        0.12799
     311 -> 313        0.44690
     312 -> 314        0.52230
 This state for optimization and/or second-order correction.
 Total Energy, E(TD-HF/TD-DFT) =  -4069.75133407
 Copying the excited state density for this state as the 1-particle RhoCI density.

 Excited State   2:      Singlet-A      1.6969 eV  730.63 nm  f=0.6230  <S**2>=0.000
     309 -> 315        0.13662
     310 -> 316       -0.11647
     311 -> 313        0.52001
     312 -> 314       -0.44495

 Excited State   3:      Singlet-A      2.1811 eV  568.45 nm  f=0.0378  <S**2>=0.000
     309 -> 313        0.28546
     310 -> 314        0.57841
     311 -> 315       -0.11820
     312 -> 316       -0.24038

 Excited State   4:      Singlet-A      2.1962 eV  564.53 nm  f=0.1436  <S**2>=0.000
     309 -> 313        0.57334
     310 -> 314       -0.28171
     311 -> 315       -0.25236
     312 -> 316        0.12520

 Excited State   5:      Singlet-A      2.3471 eV  528.25 nm  f=0.0000  <S**2>=0.000
     312 -> 313        0.70708

 The electronic state is 1-A.
 Alpha  occ. eigenvalues --  -46.87912 -46.87433 -19.26414 -19.26240 -19.19160
 Alpha  occ. eigenvalues --  -19.19039 -19.18917 -19.18491 -19.18261 -19.17912
 Alpha  occ. eigenvalues --  -14.42562 -14.42272 -14.41581 -14.41105 -14.39514
 Alpha  occ. eigenvalues --  -14.39129 -14.38698 -14.38390 -10.39215 -10.38966
 Alpha  occ. eigenvalues --  -10.35544 -10.35169 -10.34484 -10.34091 -10.31816
 Alpha  occ. eigenvalues --  -10.31664 -10.31512 -10.31111 -10.31013 -10.30800
 Alpha  occ. eigenvalues --  -10.30677 -10.30629 -10.30344 -10.30181 -10.30174
 Alpha  occ. eigenvalues --  -10.30065 -10.29867 -10.29736 -10.29621 -10.29361
 Alpha  occ. eigenvalues --  -10.29213 -10.29206 -10.28852 -10.28653 -10.28511
 Alpha  occ. eigenvalues --  -10.28494 -10.28467 -10.28209 -10.28196 -10.27917
 Alpha  occ. eigenvalues --  -10.27891 -10.27832 -10.27806 -10.27710 -10.27683
 Alpha  occ. eigenvalues --  -10.27651 -10.27517 -10.27509 -10.27453 -10.27314
 Alpha  occ. eigenvalues --  -10.27271 -10.27268 -10.27267 -10.27165 -10.26934
 Alpha  occ. eigenvalues --  -10.26906 -10.26819 -10.26517 -10.26483 -10.26443
 Alpha  occ. eigenvalues --  -10.26315 -10.26221 -10.26151 -10.25936 -10.25870
 Alpha  occ. eigenvalues --  -10.25759 -10.25747 -10.25703 -10.25614 -10.25079
 Alpha  occ. eigenvalues --  -10.24931 -10.24919 -10.24686 -10.24657 -10.24495
 Alpha  occ. eigenvalues --  -10.24425  -3.16655  -3.16183  -1.91537  -1.91123
 Alpha  occ. eigenvalues --   -1.91066  -1.90965  -1.90654  -1.90491  -1.16764
 Alpha  occ. eigenvalues --   -1.16531  -1.08720  -1.08530  -1.07321  -1.06825
 Alpha  occ. eigenvalues --   -1.06777  -1.06739  -1.04691  -1.04277  -1.03887
 Alpha  occ. eigenvalues --   -1.03433  -1.03349  -1.02798  -1.02529  -1.01879
 Alpha  occ. eigenvalues --   -0.92083  -0.91791  -0.89703  -0.89291  -0.89239
 Alpha  occ. eigenvalues --   -0.88933  -0.88466  -0.87970  -0.87900  -0.87787
 Alpha  occ. eigenvalues --   -0.87627  -0.87449  -0.87353  -0.86928  -0.85093
 Alpha  occ. eigenvalues --   -0.84783  -0.84144  -0.83552  -0.83072  -0.82756
 Alpha  occ. eigenvalues --   -0.82696  -0.82435  -0.81709  -0.81430  -0.80712
 Alpha  occ. eigenvalues --   -0.80251  -0.78885  -0.78447  -0.77358  -0.77064
 Alpha  occ. eigenvalues --   -0.76931  -0.76662  -0.76034  -0.75642  -0.75059
 Alpha  occ. eigenvalues --   -0.74427  -0.72893  -0.72487  -0.71795  -0.71295
 Alpha  occ. eigenvalues --   -0.70143  -0.69447  -0.68981  -0.68617  -0.67754
 Alpha  occ. eigenvalues --   -0.67380  -0.67321  -0.67007  -0.65403  -0.65070
 Alpha  occ. eigenvalues --   -0.64983  -0.64762  -0.64560  -0.64444  -0.64435
 Alpha  occ. eigenvalues --   -0.63920  -0.62432  -0.62102  -0.60549  -0.60107
 Alpha  occ. eigenvalues --   -0.59906  -0.59588  -0.59115  -0.58758  -0.58627
 Alpha  occ. eigenvalues --   -0.58208  -0.57700  -0.57448  -0.57403  -0.56989
 Alpha  occ. eigenvalues --   -0.56411  -0.56102  -0.56022  -0.55721  -0.55624
 Alpha  occ. eigenvalues --   -0.55512  -0.55273  -0.54988  -0.54691  -0.54228
 Alpha  occ. eigenvalues --   -0.54000  -0.53698  -0.53421  -0.53319  -0.53054
 Alpha  occ. eigenvalues --   -0.53014  -0.52943  -0.52844  -0.52708  -0.52675
 Alpha  occ. eigenvalues --   -0.52470  -0.52139  -0.52015  -0.51752  -0.51712
 Alpha  occ. eigenvalues --   -0.51469  -0.51330  -0.51010  -0.50643  -0.50272
 Alpha  occ. eigenvalues --   -0.50211  -0.50010  -0.49758  -0.49615  -0.49523
 Alpha  occ. eigenvalues --   -0.49317  -0.49283  -0.49198  -0.49019  -0.48897
 Alpha  occ. eigenvalues --   -0.48714  -0.48608  -0.48541  -0.48373  -0.48145
 Alpha  occ. eigenvalues --   -0.48031  -0.47814  -0.47406  -0.47373  -0.46939
 Alpha  occ. eigenvalues --   -0.46866  -0.46662  -0.46485  -0.46476  -0.46329
 Alpha  occ. eigenvalues --   -0.46297  -0.46054  -0.45938  -0.45824  -0.45631
 Alpha  occ. eigenvalues --   -0.45370  -0.44812  -0.44700  -0.44624  -0.44317
 Alpha  occ. eigenvalues --   -0.44299  -0.44257  -0.44196  -0.44116  -0.43925
 Alpha  occ. eigenvalues --   -0.43833  -0.43755  -0.43621  -0.43512  -0.43377
 Alpha  occ. eigenvalues --   -0.43157  -0.43139  -0.42890  -0.42816  -0.42780
 Alpha  occ. eigenvalues --   -0.42666  -0.42270  -0.42185  -0.41824  -0.41728
 Alpha  occ. eigenvalues --   -0.41651  -0.41453  -0.41261  -0.41232  -0.41018
 Alpha  occ. eigenvalues --   -0.40924  -0.40739  -0.40727  -0.40505  -0.40475
 Alpha  occ. eigenvalues --   -0.40343  -0.40177  -0.40030  -0.39702  -0.39132
 Alpha  occ. eigenvalues --   -0.38646  -0.38017  -0.37865  -0.37481  -0.37451
 Alpha  occ. eigenvalues --   -0.37371  -0.37020  -0.36972  -0.36860  -0.36602
 Alpha  occ. eigenvalues --   -0.36341  -0.35942  -0.34403  -0.34030  -0.33906
 Alpha  occ. eigenvalues --   -0.33720  -0.33306  -0.32953  -0.31450  -0.31156
 Alpha  occ. eigenvalues --   -0.31044  -0.30742  -0.30122  -0.29820  -0.29548
 Alpha  occ. eigenvalues --   -0.29422  -0.29129  -0.29026  -0.24199  -0.23811
 Alpha  occ. eigenvalues --   -0.21242  -0.20891
 Alpha virt. eigenvalues --   -0.08881  -0.08582  -0.01873  -0.01439  -0.00154
 Alpha virt. eigenvalues --    0.00175   0.02090   0.02381   0.02822   0.03500
 Alpha virt. eigenvalues --    0.04600   0.04958   0.04970   0.05296   0.06054

 Mulliken charges:
               1
     1  Mg   0.838836
     2  C   -0.002994
     3  C   -0.093379
     4  C   -0.046510
     5  C   -0.064166
     6  N   -0.256712
     7  C   -0.052463
     8  C   -0.014048
     9  C   -0.087122
    10  C    0.046264
    11  C    0.104700
    12  C    0.053483
    13  C   -0.071663
    14  H    0.034973
    15  N   -0.433207
    16  C    0.168473
    17  C   -0.176312
    18  C   -0.003900
    19  C    0.148586
    20  C    0.109821
    21  C    0.011635
    22  O   -0.250816
    23  C    0.062295
    24  N   -0.340935
    25  C    0.041240
    26  C   -0.028134
    27  C   -0.023734
    28  C    0.074242
    29  C    0.076134
    30  C    0.035431
    31  C   -0.004824
    32  N   -0.310542
    33  C    0.080322
    34  C   -0.169447
    35  C    0.008659
    36  C    0.082984
    37  C    0.127261
    38  C    0.046312
    39  O   -0.187988
    40  C   -0.005529
    41  C    0.213388
    42  O   -0.258030
    43  O   -0.304485
    44  C    0.157821
    45  H   -0.016999
    46  H   -0.017431
    47  H   -0.041930
    48  H    0.001090
    49  H   -0.003568
    50  H    0.025533
    51  H    0.016520
    52  H    0.017087
    53  H    0.011645
    54  H    0.043181
    55  H    0.018290
    56  H    0.018568
    57  H    0.006217
    58  H    0.027080
    59  H    0.041516
    60  H    0.037838
    61  H    0.035644
    62  H    0.033196
    63  H    0.015005
    64  H    0.009857
    65  H    0.022853
    66  H    0.013237
    67  H    0.004973
    68  H    0.005733
    69  H    0.005079
    70  H    0.006937
    71  H    0.015197
    72  H    0.030871
    73  H    0.048230
    74  H    0.008549
    75  H    0.046114
    76  H    0.035452
    77  H    0.043478
    78  H    0.046418
    79  H    0.052714
    80  Mg   0.837571
    81  C   -0.017408
    82  C   -0.088348
    83  C   -0.044283
    84  C   -0.064565
    85  N   -0.254820
    86  C   -0.050065
    87  C   -0.015077
    88  C   -0.090722
    89  C    0.046122
    90  C    0.114450
    91  C    0.062562
    92  C   -0.077727
    93  H    0.033940
    94  N   -0.423778
    95  C    0.163713
    96  C   -0.174700
    97  C   -0.006955
    98  C    0.152306
    99  C    0.099466
   100  C    0.015803
   101  O   -0.251761
   102  C    0.061256
   103  N   -0.350158
   104  C    0.039235
   105  C   -0.021086
   106  C   -0.033669
   107  C    0.089073
   108  C    0.071672
   109  C    0.034625
   110  C   -0.007414
   111  N   -0.323795
   112  C    0.078161
   113  C   -0.164035
   114  C    0.001367
   115  C    0.096126
   116  C    0.131780
   117  C    0.041120
   118  O   -0.189946
   119  C    0.001418
   120  C    0.211063
   121  O   -0.251122
   122  O   -0.305696
   123  C    0.152247
   124  H   -0.020114
   125  H   -0.013831
   126  H   -0.041442
   127  H   -0.000465
   128  H   -0.004965
   129  H    0.023711
   130  H    0.014296
   131  H    0.017224
   132  H    0.013648
   133  H    0.037267
   134  H    0.021393
   135  H    0.019353
   136  H    0.008163
   137  H    0.025669
   138  H    0.039506
   139  H    0.037940
   140  H    0.036476
   141  H    0.033301
   142  H    0.013246
   143  H    0.012871
   144  H    0.024669
   145  H    0.018542
   146  H    0.011154
   147  H    0.006322
   148  H    0.002136
   149  H    0.011096
   150  H    0.016777
   151  H    0.029699
   152  H    0.045251
   153  H    0.008288
   154  H    0.044740
   155  H    0.033763
   156  H    0.043169
   157  H    0.049813
   158  H    0.053296
 Sum of Mulliken charges =  -0.00000

 Dipole moment (field-independent basis, Debye):
    X=              3.1797    Y=              3.6326    Z=              0.8008  Tot=              4.8936
 Quadrupole moment (field-independent basis, Debye-Ang):
   XX=           -527.2262   YY=           -533.3057   ZZ=           -459.7826
   XY=             16.8666   XZ=            -50.5342   YZ=             27.2209

 Normal termination of Gaussian 16 at Fri Sep  3 21:02:22 2021.
