 Gaussian 16, Revision A.03,
 Gaussian 16:  ES64L-G16RevA.03 25-Dec-2016

 -----------------------------------
 #p cam-b3lyp/Def2SVP td=(nstates=5)
 -----------------------------------

 --------------------------------
 TDDFT excited states in gaussian
 --------------------------------
 Symbolic Z-matrix:
 Charge =  0 Multiplicity = 1

                         Standard orientation:
 ---------------------------------------------------------------------
 Center     Atomic      Atomic             Coordinates (Angstroms)
 Number     Number       Type             X           Y           Z
 ---------------------------------------------------------------------
      1         12           0       -7.855862   -0.686165    0.327128
      2          6           0       -8.048746    2.823879   -0.347115
      3          6           0       -8.840243   -1.208540   -2.897959
      4          6           0       -8.132480   -3.767210    1.025170
      5          6           0       -8.000724    0.107098    3.717616
      6          7           0       -8.349793    0.711190   -1.317281
      7          6           0       -8.326338    2.032237   -1.463758
      8          6           0       -8.550424    2.494838   -2.934526
      9          6           0       -9.332883    1.218694   -3.483354
     10          6           0       -8.782872    0.169436   -2.533370
     11          6           0      -10.844458    1.304730   -3.298310
     12          6           0       -7.202612    2.713746   -3.700824
     13          6           0       -7.320150    3.472476   -5.025916
     14          1           0       -6.248230    4.377572   -5.412096
     15          7           0       -7.928074   -2.266457   -0.856219
     16          6           0       -8.339484   -2.293752   -2.146677
     17          6           0       -8.206594   -3.699087   -2.587194
     18          6           0       -7.864812   -4.520045   -1.392494
     19          6           0       -7.988796   -3.542183   -0.341879
     20          6           0       -8.351025   -4.131256   -4.014120
     21          6           0       -7.496719   -5.960175   -1.223190
     22          8           0       -7.465369   -6.523878   -0.076094
     23          6           0       -7.256726   -6.726588   -2.459336
     24          7           0       -8.261272   -1.709506    2.100839
     25          6           0       -8.266589   -3.046439    2.140406
     26          6           0       -8.297146   -3.550776    3.552727
     27          6           0       -8.065521   -2.273932    4.483196
     28          6           0       -8.021232   -1.185040    3.382913
     29          6           0       -9.585968   -4.266572    3.980024
     30          6           0       -6.896464   -2.345671    5.497384
     31          6           0       -5.576916   -2.366630    4.758838
     32          7           0       -7.821176    1.130976    1.513653
     33          6           0       -7.915983    1.228489    2.909424
     34          6           0       -7.956671    2.664769    3.240351
     35          6           0       -7.899039    3.306964    2.004993
     36          6           0       -7.853397    2.333254    0.966679
     37          6           0       -8.095078    3.215816    4.544815
     38          6           0       -7.890250    4.589039    1.319380
     39          8           0       -7.818679    5.764768    1.679978
     40          6           0       -8.109749    4.327029   -0.235933
     41          6           0       -7.078993    5.129697   -0.981973
     42          8           0       -5.865525    4.851870   -0.894377
     43          8           0       -7.694175    5.937872   -1.858869
     44          6           0       -6.726633    6.741248   -2.652976
     45          1           0       -9.367270   -1.491366   -3.811300
     46          1           0       -8.120406   -4.819279    1.317475
     47          1           0       -7.960495    0.431316    4.759114
     48          1           0       -9.169683    3.385631   -3.041448
     49          1           0       -9.055973    0.982247   -4.510552
     50          1           0      -11.124052    2.173221   -2.702096
     51          1           0      -11.127919    0.384629   -2.786882
     52          1           0      -11.354580    1.281451   -4.261642
     53          1           0       -6.838032    1.754425   -4.068037
     54          1           0       -6.472817    3.213392   -3.062796
     55          1           0       -8.288278    3.965517   -5.118376
     56          1           0       -7.307738    2.745472   -5.838019
     57          1           0       -8.764897   -3.336413   -4.633377
     58          1           0       -9.108967   -4.914081   -4.034551
     59          1           0       -7.416074   -4.514017   -4.423623
     60          1           0       -8.153376   -6.700246   -3.078911
     61          1           0       -6.918251   -7.712031   -2.141237
     62          1           0       -6.472376   -6.233171   -3.034039
     63          1           0       -7.498532   -4.270352    3.728372
     64          1           0       -8.937983   -2.052451    5.098363
     65          1           0       -9.422896   -5.280399    4.346449
     66          1           0      -10.270616   -4.262512    3.132361
     67          1           0      -10.171757   -3.741763    4.734242
     68          1           0       -6.953879   -3.265930    6.077706
     69          1           0       -6.883514   -1.511450    6.198925
     70          1           0       -5.457693   -3.418909    4.503248
     71          1           0       -4.770574   -2.029492    5.411036
     72          1           0       -5.635039   -1.808801    3.823993
     73          1           0       -7.386902    4.042258    4.603543
     74          1           0       -7.896861    2.468942    5.313249
     75          1           0       -9.139758    3.525713    4.523311
     76          1           0       -9.124862    4.647911   -0.467672
     77          1           0       -6.993234    7.789601   -2.518391
     78          1           0       -6.748463    6.339666   -3.666218
     79          1           0       -5.695730    6.743761   -2.297207
     80         12           0        8.017620   -0.823948   -0.191004
     81          6           0        7.877963    2.583379    0.926864
     82          6           0        7.051041    0.300917   -3.262658
     83          6           0        7.694292   -3.850311   -1.087681
     84          6           0        7.849516   -1.782953    3.155293
     85          7           0        7.555365    1.202860   -0.946396
     86          6           0        7.596363    2.428747   -0.446527
     87          6           0        7.399069    3.557341   -1.493868
     88          6           0        6.595607    2.718532   -2.602802
     89          6           0        7.121393    1.321207   -2.280748
     90          6           0        5.091168    2.723922   -2.388384
     91          6           0        8.761372    4.095690   -2.056284
     92          6           0        8.659371    5.401548   -2.847536
     93          1           0        9.753425    6.363531   -2.747053
     94          7           0        7.935784   -1.624115   -2.005287
     95          6           0        7.541471   -1.018159   -3.144852
     96          6           0        7.643049   -2.038970   -4.199263
     97          6           0        7.971945   -3.342173   -3.560359
     98          6           0        7.857102   -2.985826   -2.160389
     99          6           0        7.513065   -1.716224   -5.659533
    100          6           0        8.318351   -4.689749   -4.117344
    101          8           0        8.333590   -5.738940   -3.381275
    102          6           0        8.547900   -4.760350   -5.567797
    103          7           0        7.590262   -2.567333    0.857954
    104          6           0        7.559770   -3.758788    0.235520
    105          6           0        7.507294   -4.893095    1.231001
    106          6           0        7.753952   -4.221310    2.661187
    107          6           0        7.820467   -2.738012    2.235956
    108          6           0        6.204105   -5.691308    1.261899
    109          6           0        8.914105   -4.797171    3.518558
    110          6           0       10.241515   -4.490819    2.863174
    111          7           0        8.072816    0.182449    1.720056
    112          6           0        7.961006   -0.407351    2.998222
    113          6           0        7.938442    0.692174    3.984619
    114          6           0        8.016114    1.855514    3.204171
    115          6           0        8.062061    1.506394    1.827394
    116          6           0        7.807321    0.542749    5.394081
    117          6           0        8.058988    3.299851    3.231407
    118          8           0        8.137165    4.150047    4.117304
    119          6           0        7.843909    3.839802    1.752020
    120          6           0        8.892133    4.884153    1.481747
    121          8           0       10.095808    4.574692    1.436732
    122          8           0        8.289078    6.027267    1.107606
    123          6           0        9.288026    7.090273    0.817873
    124          1           0        6.534005    0.515988   -4.198230
    125          1           0        7.688717   -4.914147   -1.336088
    126          1           0        7.897586   -2.002666    4.223981
    127          1           0        6.799738    4.393238   -1.153477
    128          1           0        6.886084    3.012938   -3.607942
    129          1           0        4.818883    3.194396   -1.455287
    130          1           0        4.790066    1.684513   -2.390035
    131          1           0        4.590004    3.184231   -3.244701
    132          1           0        9.112489    3.422601   -2.849010
    133          1           0        9.481790    4.205445   -1.269148
    134          1           0        7.694137    5.900229   -2.697272
    135          1           0        8.674820    5.163292   -3.913848
    136          1           0        7.108789   -0.708248   -5.814270
    137          1           0        6.745020   -2.382444   -6.067110
    138          1           0        8.443623   -1.871384   -6.209660
    139          1           0        7.658722   -4.417139   -6.091269
    140          1           0        8.870406   -5.784914   -5.763092
    141          1           0        9.354350   -4.065925   -5.828590
    142          1           0        8.294543   -5.612014    1.039961
    143          1           0        6.875445   -4.321565    3.315418
    144          1           0        6.350799   -6.773478    1.084528
    145          1           0        5.530237   -5.273254    0.525923
    146          1           0        5.628028   -5.599540    2.181095
    147          1           0        8.839470   -5.885967    3.574346
    148          1           0        8.925935   -4.422600    4.536669
    149          1           0       10.342028   -5.290808    2.123575
    150          1           0       11.046759   -4.525662    3.594194
    151          1           0       10.201172   -3.540799    2.317745
    152          1           0        8.519581    1.219840    5.846555
    153          1           0        7.983526   -0.485508    5.702972
    154          1           0        6.762686    0.837422    5.525111
    155          1           0        6.834424    4.248936    1.696138
    156          1           0        9.032049    7.949046    1.446104
    157          1           0        9.255573    7.240127   -0.277681
    158          1           0       10.313991    6.908556    1.115885
 ---------------------------------------------------------------------

 SCF Done:  E(RCAM-B3LYP) =  -4069.81174704     A.U. after   19 cycles

 Excitation energies and oscillator strengths:

 Excited State   1:      Singlet-A      1.6707 eV  742.12 nm  f=0.0602  <S**2>=0.000
     309 -> 315       -0.10092
     310 -> 316        0.13999
     311 -> 313       -0.39974
     312 -> 314        0.55789
 This state for optimization and/or second-order correction.
 Total Energy, E(TD-HF/TD-DFT) =  -4069.75035122
 Copying the excited state density for this state as the 1-particle RhoCI density.

 Excited State   2:      Singlet-A      1.6843 eV  736.12 nm  f=0.6953  <S**2>=0.000
     309 -> 315        0.14372
     310 -> 316        0.10223
     311 -> 313        0.55712
     312 -> 314        0.39926

 Excited State   3:      Singlet-A      2.1852 eV  567.38 nm  f=0.0663  <S**2>=0.000
     309 -> 313       -0.12607
     310 -> 314        0.63030
     312 -> 316       -0.26708

 Excited State   4:      Singlet-A      2.1930 eV  565.35 nm  f=0.1281  <S**2>=0.000
     309 -> 313        0.62824
     310 -> 314        0.12507
     311 -> 315       -0.27326

 Excited State   5:      Singlet-A      2.7642 eV  448.53 nm  f=0.0000  <S**2>=0.000
     312 -> 313        0.70710

 The electronic state is 1-A.
 Alpha  occ. eigenvalues --  -46.87837 -46.87586 -19.26346 -19.26256 -19.19080
 Alpha  occ. eigenvalues --  -19.19073 -19.18849 -19.18662 -19.18207 -19.17967
 Alpha  occ. eigenvalues --  -14.42492 -14.42420 -14.41488 -14.41286 -14.39442
 Alpha  occ. eigenvalues --  -14.39280 -14.38626 -14.38524 -10.39138 -10.39002
 Alpha  occ. eigenvalues --  -10.35482 -10.35341 -10.34428 -10.34143 -10.31750
 Alpha  occ. eigenvalues --  -10.31664 -10.31448 -10.31226 -10.30955 -10.30946
 Alpha  occ. eigenvalues --  -10.30609 -10.30544 -10.30325 -10.30284 -10.30243
 Alpha  occ. eigenvalues --  -10.30074 -10.29955 -10.29821 -10.29668 -10.29368
 Alpha  occ. eigenvalues --  -10.29331 -10.29292 -10.28807 -10.28627 -10.28625
 Alpha  occ. eigenvalues --  -10.28575 -10.28406 -10.28330 -10.28168 -10.28044
 Alpha  occ. eigenvalues --  -10.27928 -10.27829 -10.27768 -10.27622 -10.27593
 Alpha  occ. eigenvalues --  -10.27529 -10.27524 -10.27478 -10.27455 -10.27446
 Alpha  occ. eigenvalues --  -10.27419 -10.27406 -10.27399 -10.27312 -10.27204
 Alpha  occ. eigenvalues --  -10.26958 -10.26780 -10.26612 -10.26443 -10.26381
 Alpha  occ. eigenvalues --  -10.26280 -10.26207 -10.26083 -10.26055 -10.25899
 Alpha  occ. eigenvalues --  -10.25864 -10.25863 -10.25774 -10.25460 -10.25333
 Alpha  occ. eigenvalues --  -10.24870 -10.24825 -10.24797 -10.24712 -10.24680
 Alpha  occ. eigenvalues --  -10.24618  -3.16580  -3.16336  -1.91461  -1.91218
 Alpha  occ. eigenvalues --   -1.91048  -1.90890  -1.90807  -1.90643  -1.16694
 Alpha  occ. eigenvalues --   -1.16551  -1.08666  -1.08571  -1.07250  -1.06916
 Alpha  occ. eigenvalues --   -1.06857  -1.06702  -1.04624  -1.04417  -1.03799
 Alpha  occ. eigenvalues --   -1.03589  -1.03272  -1.02966  -1.02450  -1.02037
 Alpha  occ. eigenvalues --   -0.92014  -0.91907  -0.89553  -0.89426  -0.89241
 Alpha  occ. eigenvalues --   -0.89060  -0.88320  -0.88154  -0.87903  -0.87718
 Alpha  occ. eigenvalues --   -0.87717  -0.87608  -0.87312  -0.87062  -0.85034
 Alpha  occ. eigenvalues --   -0.84918  -0.83969  -0.83810  -0.83002  -0.82879
 Alpha  occ. eigenvalues --   -0.82696  -0.82576  -0.81635  -0.81514  -0.80641
 Alpha  occ. eigenvalues --   -0.80366  -0.78835  -0.78570  -0.77260  -0.77069
 Alpha  occ. eigenvalues --   -0.76984  -0.76818  -0.75971  -0.75752  -0.74933
 Alpha  occ. eigenvalues --   -0.74732  -0.72811  -0.72625  -0.71713  -0.71501
 Alpha  occ. eigenvalues --   -0.69937  -0.69695  -0.68921  -0.68748  -0.67681
 Alpha  occ. eigenvalues --   -0.67529  -0.67275  -0.67128  -0.65337  -0.65188
 Alpha  occ. eigenvalues --   -0.64896  -0.64694  -0.64666  -0.64575  -0.64304
 Alpha  occ. eigenvalues --   -0.64135  -0.62348  -0.62196  -0.60479  -0.60277
 Alpha  occ. eigenvalues --   -0.59852  -0.59711  -0.59027  -0.58918  -0.58544
 Alpha  occ. eigenvalues --   -0.58350  -0.57630  -0.57469  -0.57347  -0.57167
 Alpha  occ. eigenvalues --   -0.56349  -0.56132  -0.56034  -0.55804  -0.55560
 Alpha  occ. eigenvalues --   -0.55382  -0.55377  -0.55175  -0.54566  -0.54413
 Alpha  occ. eigenvalues --   -0.53949  -0.53825  -0.53337  -0.53268  -0.53159
 Alpha  occ. eigenvalues --   -0.53067  -0.52961  -0.52825  -0.52799  -0.52606
 Alpha  occ. eigenvalues --   -0.52468  -0.52341  -0.51945  -0.51808  -0.51668
 Alpha  occ. eigenvalues --   -0.51582  -0.51237  -0.51124  -0.50610  -0.50423
 Alpha  occ. eigenvalues --   -0.50065  -0.49958  -0.49906  -0.49803  -0.49560
 Alpha  occ. eigenvalues --   -0.49417  -0.49256  -0.49144  -0.49124  -0.49017
 Alpha  occ. eigenvalues --   -0.48637  -0.48495  -0.48485  -0.48476  -0.48307
 Alpha  occ. eigenvalues --   -0.48276  -0.47738  -0.47522  -0.47337  -0.47051
 Alpha  occ. eigenvalues --   -0.46837  -0.46635  -0.46608  -0.46473  -0.46398
 Alpha  occ. eigenvalues --   -0.46201  -0.46200  -0.46011  -0.45864  -0.45740
 Alpha  occ. eigenvalues --   -0.45235  -0.45139  -0.44619  -0.44549  -0.44435
 Alpha  occ. eigenvalues --   -0.44398  -0.44182  -0.44136  -0.44061  -0.44045
 Alpha  occ. eigenvalues --   -0.44012  -0.43870  -0.43541  -0.43472  -0.43430
 Alpha  occ. eigenvalues --   -0.43307  -0.43067  -0.42849  -0.42819  -0.42750
 Alpha  occ. eigenvalues --   -0.42693  -0.42489  -0.42049  -0.41893  -0.41745
 Alpha  occ. eigenvalues --   -0.41589  -0.41585  -0.41381  -0.41183  -0.40917
 Alpha  occ. eigenvalues --   -0.40908  -0.40864  -0.40659  -0.40625  -0.40607
 Alpha  occ. eigenvalues --   -0.40422  -0.40298  -0.40150  -0.39471  -0.39365
 Alpha  occ. eigenvalues --   -0.38506  -0.38281  -0.37809  -0.37575  -0.37357
 Alpha  occ. eigenvalues --   -0.37315  -0.37195  -0.37120  -0.36764  -0.36687
 Alpha  occ. eigenvalues --   -0.36238  -0.36141  -0.34326  -0.34178  -0.33827
 Alpha  occ. eigenvalues --   -0.33777  -0.33227  -0.33101  -0.31379  -0.31220
 Alpha  occ. eigenvalues --   -0.31076  -0.30898  -0.30067  -0.29870  -0.29487
 Alpha  occ. eigenvalues --   -0.29358  -0.29260  -0.29136  -0.24120  -0.23960
 Alpha  occ. eigenvalues --   -0.21166  -0.21043
 Alpha virt. eigenvalues --   -0.08813  -0.08720  -0.01788  -0.01612  -0.00097
 Alpha virt. eigenvalues --    0.00038   0.02164   0.02284   0.03074   0.03293
 Alpha virt. eigenvalues --    0.04669   0.04810   0.05042   0.05253   0.06109

 Mulliken charges:
               1
     1  Mg   0.838571
     2  C   -0.003089
     3  C   -0.094287
     4  C   -0.045794
     5  C   -0.063837
     6  N   -0.256781
     7  C   -0.052519
     8  C   -0.014005
     9  C   -0.086984
    10  C    0.046250
    11  C    0.104805
    12  C    0.053547
    13  C   -0.071582
    14  H    0.035466
    15  N   -0.433134
    16  C    0.168366
    17  C   -0.177224
    18  C   -0.003966
    19  C    0.148657
    20  C    0.110188
    21  C    0.012289
    22  O   -0.249526
    23  C    0.062489
    24  N   -0.341092
    25  C    0.041230
    26  C   -0.028212
    27  C   -0.024005
    28  C    0.074830
    29  C    0.076142
    30  C    0.035099
    31  C   -0.004531
    32  N   -0.310499
    33  C    0.080392
    34  C   -0.169545
    35  C    0.008396
    36  C    0.082982
    37  C    0.127277
    38  C    0.046174
    39  O   -0.188290
    40  C   -0.005380
    41  C    0.212950
    42  O   -0.257325
    43  O   -0.304713
    44  C    0.157754
    45  H   -0.017639
    46  H   -0.016751
    47  H   -0.041287
    48  H    0.000977
    49  H   -0.004210
    50  H    0.025533
    51  H    0.016562
    52  H    0.016642
    53  H    0.011004
    54  H    0.043933
    55  H    0.018081
    56  H    0.017836
    57  H    0.005763
    58  H    0.026914
    59  H    0.039400
    60  H    0.037357
    61  H    0.035795
    62  H    0.031391
    63  H    0.016582
    64  H    0.009576
    65  H    0.023283
    66  H    0.012548
    67  H    0.004845
    68  H    0.006444
    69  H    0.004909
    70  H    0.008720
    71  H    0.018284
    72  H    0.028879
    73  H    0.047786
    74  H    0.009282
    75  H    0.046082
    76  H    0.035214
    77  H    0.043080
    78  H    0.046208
    79  H    0.053443
    80  Mg   0.837894
    81  C   -0.016739
    82  C   -0.087770
    83  C   -0.045594
    84  C   -0.064857
    85  N   -0.254590
    86  C   -0.049576
    87  C   -0.015137
    88  C   -0.090571
    89  C    0.045853
    90  C    0.114354
    91  C    0.062532
    92  C   -0.077825
    93  H    0.034669
    94  N   -0.423463
    95  C    0.162890
    96  C   -0.174757
    97  C   -0.007998
    98  C    0.152123
    99  C    0.099463
   100  C    0.015415
   101  O   -0.253359
   102  C    0.061262
   103  N   -0.350016
   104  C    0.037527
   105  C   -0.019815
   106  C   -0.034816
   107  C    0.088997
   108  C    0.073657
   109  C    0.034737
   110  C   -0.007632
   111  N   -0.324158
   112  C    0.078581
   113  C   -0.163067
   114  C    0.002447
   115  C    0.096206
   116  C    0.131444
   117  C    0.042543
   118  O   -0.187628
   119  C    0.000849
   120  C    0.211219
   121  O   -0.251254
   122  O   -0.305370
   123  C    0.152088
   124  H   -0.019779
   125  H   -0.015765
   126  H   -0.040517
   127  H   -0.000147
   128  H   -0.004605
   129  H    0.023353
   130  H    0.014470
   131  H    0.016370
   132  H    0.013705
   133  H    0.037591
   134  H    0.021121
   135  H    0.019380
   136  H    0.008679
   137  H    0.025762
   138  H    0.039548
   139  H    0.038020
   140  H    0.036144
   141  H    0.033845
   142  H    0.014223
   143  H    0.012492
   144  H    0.024947
   145  H    0.011741
   146  H    0.005780
   147  H    0.006148
   148  H    0.003610
   149  H    0.010839
   150  H    0.017802
   151  H    0.030162
   152  H    0.045945
   153  H    0.008343
   154  H    0.047332
   155  H    0.035806
   156  H    0.044079
   157  H    0.049442
   158  H    0.053375
 Sum of Mulliken charges =  -0.00000

 Dipole moment (field-independent basis, Debye):
    X=             -4.3130    Y=             -2.2771    Z=             -7.2414  Tot=              8.7307
 Quadrupole moment (field-independent basis, Debye-Ang):
   XX=           -517.5186   YY=           -545.1523   ZZ=           -454.0328
   XY=              9.8757   XZ=             -2.6473   YZ=            -42.6687

 Normal termination of Gaussian 16 at Sat Sep  4 14:49:47 2021.
