 Gaussian 16, Revision A.03,
 Gaussian 16:  ES64L-G16RevA.03 25-Dec-2016

 -----------------------------------
 #p cam-b3lyp/Def2SVP td=(nstates=5)
 -----------------------------------

 --------------------------------
 TDDFT excited states in gaussian
 --------------------------------
 Symbolic Z-matrix:
 Charge =  0 Multiplicity = 1

                         Standard orientation:
 ---------------------------------------------------------------------
 Center     Atomic      Atomic             Coordinates (Angstroms)
 Number     Number       Type             X           Y           Z
 ---------------------------------------------------------------------
      1         12           0       16.030504   -0.646975    0.486531
      2          6           0       16.288605    2.283566   -1.552471
      3          6           0       16.829145    1.321651    3.156691
      4          6           0       16.254643   -3.287713    2.228049
      5          6           0       16.375539   -2.525859   -2.428328
      6          7           0       16.477562    1.514679    0.653977
      7          6           0       16.484445    2.538925   -0.193397
      8          6           0       16.644372    3.920547    0.508685
      9          6           0       17.359999    3.440007    1.849937
     10          6           0       16.830584    2.018096    1.911704
     11          6           0       18.881040    3.393723    1.746044
     12          6           0       15.265112    4.599183    0.806726
     13          6           0       15.334825    6.080486    1.189134
     14          1           0       14.270602    6.968775    0.746731
     15          7           0       15.995168   -0.896303    2.445979
     16          6           0       16.337450    0.018205    3.385023
     17          6           0       16.141326   -0.646140    4.691493
     18          6           0       15.839150   -2.081119    4.431456
     19          6           0       16.046062   -2.152387    3.007558
     20          6           0       16.198318    0.079799    6.000506
     21          6           0       15.439193   -3.211542    5.326057
     22          8           0       15.451794   -4.427816    4.932238
     23          6           0       15.112836   -2.861970    6.720450
     24          7           0       16.498703   -2.625248    0.012339
     25          6           0       16.467657   -3.584136    0.944302
     26          6           0       16.557657   -4.948366    0.327281
     27          6           0       16.411895   -4.731558   -1.247996
     28          6           0       16.341336   -3.184658   -1.267776
     29          6           0       17.845990   -5.730580    0.617717
     30          6           0       15.295999   -5.530058   -1.967437
     31          6           0       13.939513   -5.037803   -1.514967
     32          7           0       16.110272   -0.234408   -1.642898
     33          6           0       16.280839   -1.166705   -2.676534
     34          6           0       16.380073   -0.403785   -3.934379
     35          6           0       16.276281    0.928906   -3.540672
     36          6           0       16.148335    0.995616   -2.123819
     37          6           0       16.602414   -0.954092   -5.227500
     38          6           0       16.268436    2.313260   -3.984924
     39          8           0       16.249679    2.871545   -5.082858
     40          6           0       16.398528    3.251115   -2.704560
     41          6           0       15.353598    4.327130   -2.821277
     42          8           0       14.138903    4.049479   -2.752066
     43          8           0       15.944968    5.529921   -2.757112
     44          6           0       14.960642    6.642044   -2.837355
     45          1           0       17.299250    1.789649    4.023824
     46          1           0       16.227666   -4.230034    2.779177
     47          1           0       16.399267   -3.048451   -3.386341
     48          1           0       17.282525    4.628252   -0.020785
     49          1           0       17.022972    4.007837    2.716945
     50          1           0       19.216333    3.575226    0.724987
     51          1           0       19.164343    2.391191    2.067233
     52          1           0       19.339111    4.077965    2.460719
     53          1           0       14.854372    4.188589    1.729096
     54          1           0       14.584410    4.476141   -0.036381
     55          1           0       16.310549    6.507104    0.954895
     56          1           0       15.258992    6.157136    2.273834
     57          1           0       16.601853    1.084835    5.883861
     58          1           0       16.931336   -0.437064    6.619576
     59          1           0       15.232582    0.090821    6.506040
     60          1           0       15.976181   -2.383113    7.182923
     61          1           0       14.763308   -3.782184    7.187234
     62          1           0       14.313961   -2.119847    6.720702
     63          1           0       15.748991   -5.589384    0.675964
     64          1           0       17.321393   -5.003562   -1.784188
     65          1           0       17.673266   -6.702145    1.081326
     66          1           0       18.485120   -5.107255    1.242433
     67          1           0       18.485330   -5.896311   -0.248998
     68          1           0       15.357265   -6.586136   -1.706874
     69          1           0       15.343804   -5.453167   -3.053739
     70          1           0       13.776868   -5.588896   -0.589399
     71          1           0       13.178472   -5.285481   -2.255699
     72          1           0       13.964588   -3.977494   -1.262773
     73          1           0       15.922335   -0.433480   -5.901610
     74          1           0       16.423343   -2.029013   -5.236530
     75          1           0       17.653008   -0.704533   -5.375245
     76          1           0       17.408908    3.658700   -2.715906
     77          1           0       15.263949    7.279857   -3.667676
     78          1           0       14.917804    7.090182   -1.844509
     79          1           0       13.950292    6.370258   -3.145032
     80         12           0      -15.700482   -0.663867   -0.405417
     81          6           0      -17.921309    1.710154    1.114783
     82          6           0      -14.216501    1.965543   -1.992442
     83          6           0      -14.027643   -2.759861   -2.101250
     84          6           0      -18.030679   -3.134808    0.375848
     85          7           0      -16.105860    1.510095   -0.362781
     86          6           0      -16.935103    2.302977    0.299069
     87          6           0      -16.642575    3.818785    0.136819
     88          6           0      -15.867451    3.765028   -1.268583
     89          6           0      -15.329169    2.337541   -1.196393
     90          6           0      -16.792222    3.866568   -2.470174
     91          6           0      -15.722458    4.375610    1.279343
     92          6           0      -15.648085    5.902020    1.358718
     93          1           0      -15.538138    6.526033    2.674380
     94          7           0      -14.028055   -0.429745   -1.447894
     95          6           0      -13.566321    0.711926   -1.999847
     96          6           0      -12.310631    0.352420   -2.676715
     97          6           0      -12.153382   -1.126322   -2.619079
     98          6           0      -13.435223   -1.506120   -2.059848
     99          6           0      -11.359961    1.376393   -3.225465
    100          6           0      -11.039323   -2.047300   -3.015155
    101          8           0      -11.210745   -3.314808   -3.097911
    102          6           0       -9.767905   -1.413428   -3.393565
    103          7           0      -16.077118   -2.621518   -0.995419
    104          6           0      -15.160076   -3.325090   -1.682412
    105          6           0      -15.535555   -4.785944   -1.755134
    106          6           0      -16.777834   -4.960140   -0.763170
    107          6           0      -16.970510   -3.487905   -0.337963
    108          6           0      -15.914411   -5.307223   -3.141182
    109          6           0      -16.646371   -6.038885    0.346652
    110          6           0      -15.584235   -5.629231    1.341350
    111          7           0      -17.539141   -0.766391    0.724564
    112          6           0      -18.369144   -1.894890    0.902565
    113          6           0      -19.561736   -1.444758    1.649245
    114          6           0      -19.351976   -0.070032    1.835282
    115          6           0      -18.125536    0.313702    1.228574
    116          6           0      -20.669134   -2.259665    2.017650
    117          6           0      -19.894278    1.145814    2.397723
    118          8           0      -20.864317    1.419288    3.103385
    119          6           0      -19.053054    2.376663    1.846595
    120          6           0      -18.708336    3.262768    3.012139
    121          8           0      -17.952349    2.857258    3.912509
    122          8           0      -19.149368    4.509379    2.763491
    123          6           0      -18.821260    5.427854    3.886244
    124          1           0      -13.828447    2.687553   -2.711459
    125          1           0      -13.437314   -3.544719   -2.579776
    126          1           0      -18.756253   -3.863707    0.743136
    127          1           0      -17.522774    4.444788    0.052275
    128          1           0      -15.049353    4.480090   -1.296060
    129          1           0      -17.832429    3.839238   -2.181450
    130          1           0      -16.551708    3.019297   -3.098920
    131          1           0      -16.550037    4.756526   -3.058102
    132          1           0      -14.675842    4.148763    1.038757
    133          1           0      -16.014787    3.978057    2.231774
    134          1           0      -16.437355    6.384359    0.769350
    135          1           0      -14.720390    6.229435    0.883105
    136          1           0      -11.821229    2.370729   -3.269511
    137          1           0      -11.178086    1.114674   -4.273458
    138          1           0      -10.405761    1.392533   -2.694515
    139          1           0       -9.935868   -0.737426   -4.228594
    140          1           0       -9.068887   -2.235789   -3.557801
    141          1           0       -9.420570   -0.798528   -2.555794
    142          1           0      -14.721210   -5.412099   -1.411813
    143          1           0      -17.690986   -5.253852   -1.301425
    144          1           0      -15.296025   -6.163963   -3.469335
    145          1           0      -15.836821   -4.490155   -3.846109
    146          1           0      -16.954133   -5.610270   -3.252313
    147          1           0      -16.318273   -6.987857   -0.084577
    148          1           0      -17.574044   -6.229313    0.875950
    149          1           0      -14.657213   -5.957183    0.861597
    150          1           0      -15.735928   -6.133914    2.293360
    151          1           0      -15.536640   -4.538473    1.439459
    152          1           0      -20.918072   -2.003523    3.038884
    153          1           0      -20.434873   -3.317491    1.918074
    154          1           0      -21.406662   -1.931402    1.280383
    155          1           0      -19.670357    2.891520    1.109422
    156          1           0      -19.761733    5.882871    4.212055
    157          1           0      -18.040665    6.108337    3.497177
    158          1           0      -18.469676    4.984163    4.810353
 ---------------------------------------------------------------------

 SCF Done:  E(RCAM-B3LYP) =  -4069.81179366     A.U. after   19 cycles

 Excitation energies and oscillator strengths:

 Excited State   1:      Singlet-A      1.6755 eV  739.98 nm  f=0.3219  <S**2>=0.000
     310 -> 316        0.17108
     311 -> 314        0.11705
     312 -> 313        0.67599
     310 <- 316        0.10313
 This state for optimization and/or second-order correction.
 Total Energy, E(TD-HF/TD-DFT) =  -4069.75021983
 Copying the excited state density for this state as the 1-particle RhoCI density.

 Excited State   2:      Singlet-A      1.6800 eV  738.00 nm  f=0.4585  <S**2>=0.000
     309 -> 315        0.17303
     311 -> 314        0.67564
     312 -> 313       -0.11702
     309 <- 315        0.10361

 Excited State   3:      Singlet-A      2.1863 eV  567.11 nm  f=0.0954  <S**2>=0.000
     310 -> 313        0.64210
     312 -> 316       -0.27306

 Excited State   4:      Singlet-A      2.1926 eV  565.47 nm  f=0.1047  <S**2>=0.000
     309 -> 314        0.64034
     311 -> 315       -0.27819

 Excited State   5:      Singlet-A      3.0671 eV  404.25 nm  f=0.0000  <S**2>=0.000
     311 -> 313        0.70709

 The electronic state is 1-A.
 Alpha  occ. eigenvalues --  -46.87795 -46.87659 -19.26353 -19.26291 -19.19164
 Alpha  occ. eigenvalues --  -19.19026 -19.18810 -19.18706 -19.18171 -19.18052
 Alpha  occ. eigenvalues --  -14.42496 -14.42449 -14.41448 -14.41359 -14.39401
 Alpha  occ. eigenvalues --  -14.39350 -14.38599 -14.38586 -10.39093 -10.39085
 Alpha  occ. eigenvalues --  -10.35444 -10.35383 -10.34391 -10.34230 -10.31761
 Alpha  occ. eigenvalues --  -10.31688 -10.31405 -10.31309 -10.31021 -10.30908
 Alpha  occ. eigenvalues --  -10.30569 -10.30506 -10.30397 -10.30360 -10.30204
 Alpha  occ. eigenvalues --  -10.30139 -10.29919 -10.29895 -10.29629 -10.29434
 Alpha  occ. eigenvalues --  -10.29399 -10.29253 -10.28750 -10.28719 -10.28654
 Alpha  occ. eigenvalues --  -10.28542 -10.28403 -10.28364 -10.28140 -10.28117
 Alpha  occ. eigenvalues --  -10.28000 -10.27792 -10.27726 -10.27668 -10.27583
 Alpha  occ. eigenvalues --  -10.27518 -10.27498 -10.27483 -10.27478 -10.27463
 Alpha  occ. eigenvalues --  -10.27456 -10.27446 -10.27403 -10.27375 -10.27160
 Alpha  occ. eigenvalues --  -10.27052 -10.26707 -10.26692 -10.26403 -10.26399
 Alpha  occ. eigenvalues --  -10.26234 -10.26180 -10.26138 -10.26025 -10.26018
 Alpha  occ. eigenvalues --  -10.25934 -10.25854 -10.25845 -10.25431 -10.25397
 Alpha  occ. eigenvalues --  -10.24872 -10.24832 -10.24786 -10.24731 -10.24689
 Alpha  occ. eigenvalues --  -10.24683  -3.16538  -3.16409  -1.91420  -1.91292
 Alpha  occ. eigenvalues --   -1.91006  -1.90880  -1.90848  -1.90717  -1.16647
 Alpha  occ. eigenvalues --   -1.16639  -1.08660  -1.08630  -1.07211  -1.06959
 Alpha  occ. eigenvalues --   -1.06948  -1.06648  -1.04580  -1.04494  -1.03759
 Alpha  occ. eigenvalues --   -1.03662  -1.03233  -1.03038  -1.02410  -1.02110
 Alpha  occ. eigenvalues --   -0.91987  -0.91972  -0.89518  -0.89494  -0.89188
 Alpha  occ. eigenvalues --   -0.89151  -0.88285  -0.88220  -0.87870  -0.87794
 Alpha  occ. eigenvalues --   -0.87683  -0.87672  -0.87271  -0.87114  -0.84999
 Alpha  occ. eigenvalues --   -0.84982  -0.83934  -0.83876  -0.82963  -0.82925
 Alpha  occ. eigenvalues --   -0.82650  -0.82648  -0.81597  -0.81588  -0.80597
 Alpha  occ. eigenvalues --   -0.80442  -0.78795  -0.78632  -0.77218  -0.77143
 Alpha  occ. eigenvalues --   -0.76935  -0.76899  -0.75924  -0.75839  -0.74896
 Alpha  occ. eigenvalues --   -0.74803  -0.72773  -0.72698  -0.71671  -0.71580
 Alpha  occ. eigenvalues --   -0.69904  -0.69758  -0.68873  -0.68826  -0.67640
 Alpha  occ. eigenvalues --   -0.67600  -0.67220  -0.67197  -0.65287  -0.65271
 Alpha  occ. eigenvalues --   -0.64854  -0.64770  -0.64654  -0.64621  -0.64268
 Alpha  occ. eigenvalues --   -0.64204  -0.62301  -0.62280  -0.60439  -0.60335
 Alpha  occ. eigenvalues --   -0.59804  -0.59796  -0.58992  -0.58987  -0.58503
 Alpha  occ. eigenvalues --   -0.58425  -0.57587  -0.57556  -0.57308  -0.57235
 Alpha  occ. eigenvalues --   -0.56309  -0.56203  -0.55982  -0.55887  -0.55519
 Alpha  occ. eigenvalues --   -0.55449  -0.55339  -0.55248  -0.54524  -0.54489
 Alpha  occ. eigenvalues --   -0.53912  -0.53895  -0.53297  -0.53226  -0.53221
 Alpha  occ. eigenvalues --   -0.53140  -0.52916  -0.52902  -0.52754  -0.52661
 Alpha  occ. eigenvalues --   -0.52436  -0.52401  -0.51915  -0.51887  -0.51656
 Alpha  occ. eigenvalues --   -0.51617  -0.51202  -0.51196  -0.50568  -0.50467
 Alpha  occ. eigenvalues --   -0.50029  -0.49977  -0.49916  -0.49865  -0.49514
 Alpha  occ. eigenvalues --   -0.49484  -0.49214  -0.49201  -0.49104  -0.49097
 Alpha  occ. eigenvalues --   -0.48594  -0.48558  -0.48459  -0.48444  -0.48376
 Alpha  occ. eigenvalues --   -0.48333  -0.47694  -0.47592  -0.47295  -0.47115
 Alpha  occ. eigenvalues --   -0.46796  -0.46709  -0.46556  -0.46552  -0.46358
 Alpha  occ. eigenvalues --   -0.46269  -0.46162  -0.46086  -0.45824  -0.45824
 Alpha  occ. eigenvalues --   -0.45208  -0.45199  -0.44579  -0.44514  -0.44505
 Alpha  occ. eigenvalues --   -0.44475  -0.44143  -0.44126  -0.44088  -0.44076
 Alpha  occ. eigenvalues --   -0.44019  -0.43935  -0.43555  -0.43497  -0.43385
 Alpha  occ. eigenvalues --   -0.43385  -0.43027  -0.42931  -0.42902  -0.42701
 Alpha  occ. eigenvalues --   -0.42655  -0.42552  -0.42009  -0.41964  -0.41704
 Alpha  occ. eigenvalues --   -0.41669  -0.41534  -0.41458  -0.41140  -0.40989
 Alpha  occ. eigenvalues --   -0.40869  -0.40820  -0.40719  -0.40695  -0.40570
 Alpha  occ. eigenvalues --   -0.40493  -0.40235  -0.40225  -0.39438  -0.39426
 Alpha  occ. eigenvalues --   -0.38467  -0.38350  -0.37749  -0.37653  -0.37318
 Alpha  occ. eigenvalues --   -0.37266  -0.37264  -0.37198  -0.36773  -0.36716
 Alpha  occ. eigenvalues --   -0.36218  -0.36193  -0.34285  -0.34253  -0.33864
 Alpha  occ. eigenvalues --   -0.33775  -0.33186  -0.33175  -0.31340  -0.31266
 Alpha  occ. eigenvalues --   -0.31034  -0.30972  -0.30031  -0.29957  -0.29447
 Alpha  occ. eigenvalues --   -0.29324  -0.29321  -0.29211  -0.24080  -0.24036
 Alpha  occ. eigenvalues --   -0.21126  -0.21116
 Alpha virt. eigenvalues --   -0.08790  -0.08773  -0.01748  -0.01682  -0.00056
 Alpha virt. eigenvalues --   -0.00025   0.02200   0.02207   0.03121   0.03229
 Alpha virt. eigenvalues --    0.04718   0.04730   0.05093   0.05162   0.06175

 Mulliken charges:
               1
     1  Mg   0.838651
     2  C   -0.003002
     3  C   -0.094115
     4  C   -0.045838
     5  C   -0.063942
     6  N   -0.256787
     7  C   -0.052450
     8  C   -0.014028
     9  C   -0.086976
    10  C    0.046315
    11  C    0.104805
    12  C    0.053459
    13  C   -0.071785
    14  H    0.036053
    15  N   -0.433124
    16  C    0.168436
    17  C   -0.177143
    18  C   -0.003968
    19  C    0.148722
    20  C    0.110181
    21  C    0.012315
    22  O   -0.249580
    23  C    0.062459
    24  N   -0.341117
    25  C    0.041246
    26  C   -0.028192
    27  C   -0.023978
    28  C    0.074843
    29  C    0.076174
    30  C    0.035125
    31  C   -0.004510
    32  N   -0.310441
    33  C    0.080366
    34  C   -0.169733
    35  C    0.008339
    36  C    0.082963
    37  C    0.127320
    38  C    0.046089
    39  O   -0.188521
    40  C   -0.005315
    41  C    0.212874
    42  O   -0.257138
    43  O   -0.304790
    44  C    0.157723
    45  H   -0.017586
    46  H   -0.016799
    47  H   -0.041501
    48  H    0.000913
    49  H   -0.004026
    50  H    0.025463
    51  H    0.016465
    52  H    0.016666
    53  H    0.011225
    54  H    0.044089
    55  H    0.017870
    56  H    0.017977
    57  H    0.005875
    58  H    0.026856
    59  H    0.039598
    60  H    0.037354
    61  H    0.035716
    62  H    0.031526
    63  H    0.016592
    64  H    0.009457
    65  H    0.023247
    66  H    0.012545
    67  H    0.004752
    68  H    0.006395
    69  H    0.004712
    70  H    0.008821
    71  H    0.018146
    72  H    0.028963
    73  H    0.047516
    74  H    0.009114
    75  H    0.045995
    76  H    0.035140
    77  H    0.042904
    78  H    0.046409
    79  H    0.053627
    80  Mg   0.837891
    81  C   -0.016857
    82  C   -0.087758
    83  C   -0.045516
    84  C   -0.064860
    85  N   -0.254573
    86  C   -0.049859
    87  C   -0.015090
    88  C   -0.090518
    89  C    0.045759
    90  C    0.114368
    91  C    0.062518
    92  C   -0.077900
    93  H    0.034870
    94  N   -0.423517
    95  C    0.162942
    96  C   -0.174577
    97  C   -0.007768
    98  C    0.152132
    99  C    0.099343
   100  C    0.015608
   101  O   -0.253131
   102  C    0.061179
   103  N   -0.350081
   104  C    0.037535
   105  C   -0.019853
   106  C   -0.034792
   107  C    0.088883
   108  C    0.073641
   109  C    0.034735
   110  C   -0.007670
   111  N   -0.324113
   112  C    0.078411
   113  C   -0.163167
   114  C    0.002213
   115  C    0.096178
   116  C    0.131491
   117  C    0.042349
   118  O   -0.187937
   119  C    0.000946
   120  C    0.211243
   121  O   -0.251024
   122  O   -0.305628
   123  C    0.152031
   124  H   -0.019602
   125  H   -0.015519
   126  H   -0.040497
   127  H   -0.000667
   128  H   -0.004282
   129  H    0.022433
   130  H    0.014437
   131  H    0.016320
   132  H    0.013949
   133  H    0.037659
   134  H    0.020778
   135  H    0.019635
   136  H    0.008789
   137  H    0.026247
   138  H    0.039917
   139  H    0.038317
   140  H    0.036535
   141  H    0.033942
   142  H    0.014439
   143  H    0.012391
   144  H    0.025187
   145  H    0.011654
   146  H    0.005654
   147  H    0.006272
   148  H    0.003617
   149  H    0.010968
   150  H    0.017914
   151  H    0.030100
   152  H    0.045971
   153  H    0.008497
   154  H    0.046902
   155  H    0.034999
   156  H    0.043885
   157  H    0.049509
   158  H    0.053566
 Sum of Mulliken charges =  -0.00000

 Dipole moment (field-independent basis, Debye):
    X=              4.0030    Y=              3.0802    Z=              0.7715  Tot=              5.1094
 Quadrupole moment (field-independent basis, Debye-Ang):
   XX=           -529.4677   YY=           -465.3555   ZZ=           -525.6906
   XY=              4.9476   XZ=            127.6774   YZ=             22.9282

 Normal termination of Gaussian 16 at Sun Sep 12 10:31:14 2021.
