 Gaussian 16, Revision A.03,
 Gaussian 16:  ES64L-G16RevA.03 25-Dec-2016

 -----------------------------------
 #p cam-b3lyp/Def2SVP td=(nstates=5)
 -----------------------------------

 --------------------------------
 TDDFT excited states in gaussian
 --------------------------------
 Symbolic Z-matrix:
 Charge =  0 Multiplicity = 1

                         Standard orientation:
 ---------------------------------------------------------------------
 Center     Atomic      Atomic             Coordinates (Angstroms)
 Number     Number       Type             X           Y           Z
 ---------------------------------------------------------------------
      1         12           0       -3.890456   -0.658562   -0.712746
      2          6           0       -4.542259    1.904804    1.699002
      3          6           0       -4.349307    1.705883   -3.129753
      4          6           0       -3.768732   -2.987689   -2.861460
      5          6           0       -4.601193   -2.983395    1.784385
      6          7           0       -4.377934    1.498089   -0.603798
      7          6           0       -4.543290    2.373110    0.383200
      8          6           0       -4.642554    3.848021   -0.108894
      9          6           0       -5.136083    3.582698   -1.601554
     10          6           0       -4.557383    2.193647   -1.805433
     11          6           0       -6.653455    3.507417   -1.737253
     12          6           0       -3.257207    4.577374   -0.084657
     13          6           0       -3.317784    6.100181   -0.235467
     14          1           0       -2.360095    6.915056    0.496761
     15          7           0       -3.557826   -0.590158   -2.658903
     16          6           0       -3.787131    0.460147   -3.483261
     17          6           0       -3.378569    0.015582   -4.833120
     18          6           0       -3.071627   -1.439903   -4.759330
     19          6           0       -3.484278   -1.740327   -3.412169
     20          6           0       -3.265057    0.941515   -6.005091
     21          6           0       -2.507290   -2.408806   -5.749725
     22          8           0       -2.538386   -3.672553   -5.558541
     23          6           0       -1.989983   -1.837405   -7.006282
     24          7           0       -4.358995   -2.691184   -0.631781
     25          6           0       -4.159378   -3.487924   -1.687404
     26          6           0       -4.295156   -4.934156   -1.313350
     27          6           0       -4.390938   -4.971516    0.280131
     28          6           0       -4.374434   -3.447261    0.553338
     29          6           0       -5.500283   -5.670607   -1.914449
     30          6           0       -3.368248   -5.865525    1.025297
     31          6           0       -1.976525   -5.295566    0.866073
     32          7           0       -4.297439   -0.593479    1.418257
     33          6           0       -4.588478   -1.680872    2.254646
     34          6           0       -4.897285   -1.130391    3.587192
     35          6           0       -4.779851    0.249021    3.428201
     36          6           0       -4.446149    0.543144    2.075269
     37          6           0       -5.290278   -1.882798    4.729065
     38          6           0       -4.882785    1.544243    4.080630
     39          8           0       -5.044670    1.919390    5.242762
     40          6           0       -4.852658    2.674126    2.958898
     41          6           0       -3.872014    3.726351    3.399883
     42          8           0       -2.652047    3.473734    3.472206
     43          8           0       -4.486215    4.918793    3.437046
     44          6           0       -3.561260    6.011991    3.838955
     45          1           0       -4.701066    2.302853   -3.973455
     46          1           0       -3.629961   -3.829179   -3.543424
     47          1           0       -4.749235   -3.653024    2.633581
     48          1           0       -5.374630    4.456214    0.422698
     49          1           0       -4.693271    4.285051   -2.307486
     50          1           0       -7.141695    3.519988   -0.762889
     51          1           0       -6.853416    2.566987   -2.251160
     52          1           0       -7.022886    4.293482   -2.396344
     53          1           0       -2.701522    4.323503   -0.987334
     54          1           0       -2.704945    4.326527    0.821659
     55          1           0       -4.330767    6.475403   -0.087204
     56          1           0       -3.085007    6.350412   -1.270552
     57          1           0       -3.713876    1.911373   -5.794185
     58          1           0       -3.881327    0.524391   -6.801287
     59          1           0       -2.236088    1.041670   -6.350811
     60          1           0       -2.790612   -1.297949   -7.512769
     61          1           0       -1.545561   -2.667856   -7.553721
     62          1           0       -1.224411   -1.098077   -6.769130
     63          1           0       -3.423419   -5.504067   -1.632257
     64          1           0       -5.360359   -5.333705    0.623231
     65          1           0       -5.229428   -6.553757   -2.493578
     66          1           0       -6.060001   -4.960635   -2.522682
     67          1           0       -6.254963   -5.978603   -1.191252
     68          1           0       -3.355947   -6.866638    0.595685
     69          1           0       -3.578550   -5.964226    2.090324
     70          1           0       -1.661035   -5.689710   -0.099302
     71          1           0       -1.325666   -5.652332    1.665018
     72          1           0       -1.998529   -4.208790    0.782889
     73          1           0       -4.734593   -1.471250    5.571568
     74          1           0       -5.079638   -2.943695    4.595907
     75          1           0       -6.358726   -1.669105    4.753761
     76          1           0       -5.866337    3.066008    2.881403
     77          1           0       -4.004536    6.505806    4.703760
     78          1           0       -3.386758    6.613880    2.946944
     79          1           0       -2.599177    5.702990    4.249144
     80         12           0        3.911939   -0.625947    0.706638
     81          6           0        4.468431    1.982715   -1.694257
     82          6           0        4.428404    1.708018    3.139845
     83          6           0        3.873751   -2.979808    2.833908
     84          6           0        4.568680   -2.916396   -1.836632
     85          7           0        4.379540    1.533744    0.609999
     86          6           0        4.506260    2.429880   -0.357081
     87          6           0        4.603206    3.898652    0.135741
     88          6           0        5.151592    3.618926    1.618943
     89          6           0        4.592427    2.212693    1.825121
     90          6           0        6.667530    3.546249    1.696346
     91          6           0        3.206341    4.612751    0.164964
     92          6           0        3.264297    6.132070    0.338396
     93          1           0        2.270628    6.949811   -0.351803
     94          7           0        3.635728   -0.577060    2.671301
     95          6           0        3.875380    0.459842    3.501168
     96          6           0        3.530131   -0.016015    4.849699
     97          6           0        3.223821   -1.470152    4.769870
     98          6           0        3.594176   -1.742501    3.395555
     99          6           0        3.437019    0.898712    6.036303
    100          6           0        2.698189   -2.455613    5.769255
    101          8           0        2.733962   -3.718399    5.552649
    102          6           0        2.226145   -1.904265    7.047796
    103          7           0        4.387674   -2.646024    0.582946
    104          6           0        4.232582   -3.458933    1.642692
    105          6           0        4.372310   -4.908530    1.243275
    106          6           0        4.413671   -4.911606   -0.355431
    107          6           0        4.378918   -3.389056   -0.612395
    108          6           0        5.604771   -5.632094    1.785385
    109          6           0        3.375777   -5.808147   -1.084569
    110          6           0        1.981908   -5.264074   -0.868906
    111          7           0        4.244560   -0.529159   -1.425976
    112          6           0        4.526955   -1.605828   -2.294956
    113          6           0        4.788536   -1.030527   -3.630251
    114          6           0        4.661794    0.353597   -3.438837
    115          6           0        4.363572    0.623233   -2.075804
    116          6           0        5.141895   -1.764421   -4.797574
    117          6           0        4.722950    1.648537   -4.077651
    118          8           0        4.851645    2.040090   -5.236897
    119          6           0        4.725211    2.768715   -2.949991
    120          6           0        3.720536    3.819203   -3.336798
    121          8           0        2.507854    3.547380   -3.383062
    122          8           0        4.329664    5.018287   -3.375939
    123          6           0        3.371505    6.094381   -3.744415
    124          1           0        4.795998    2.305515    3.974563
    125          1           0        3.765126   -3.836652    3.502859
    126          1           0        4.684250   -3.570487   -2.703510
    127          1           0        5.306572    4.515605   -0.410539
    128          1           0        4.718697    4.310482    2.337078
    129          1           0        7.122856    3.577297    0.717647
    130          1           0        6.892352    2.609161    2.188657
    131          1           0        7.049466    4.331777    2.354666
    132          1           0        2.682974    4.337906    1.089785
    133          1           0        2.636211    4.370501   -0.710756
    134          1           0        4.272899    6.528132    0.168681
    135          1           0        3.055317    6.370175    1.384179
    136          1           0        3.877882    1.880323    5.823072
    137          1           0        4.079120    0.476335    6.816805
    138          1           0        2.419471    0.983977    6.423578
    139          1           0        3.037151   -1.362815    7.528998
    140          1           0        1.806315   -2.751168    7.594043
    141          1           0        1.436937   -1.172242    6.843043
    142          1           0        3.516947   -5.484915    1.573783
    143          1           0        5.379874   -5.272778   -0.737327
    144          1           0        5.356940   -6.537154    2.371491
    145          1           0        6.173730   -4.934447    2.385480
    146          1           0        6.330712   -5.935036    1.032765
    147          1           0        3.384009   -6.816419   -0.663290
    148          1           0        3.559220   -5.902632   -2.149660
    149          1           0        1.705217   -5.674090    0.107012
    150          1           0        1.309090   -5.614062   -1.649207
    151          1           0        1.995788   -4.171932   -0.775689
    152          1           0        4.562884   -1.350803   -5.612544
    153          1           0        4.949653   -2.827925   -4.671947
    154          1           0        6.211444   -1.544037   -4.850202
    155          1           0        5.736896    3.171896   -2.890772
    156          1           0        3.786603    6.606397   -4.618031
    157          1           0        3.231324    6.696549   -2.827087
    158          1           0        2.399449    5.793779   -4.117523
 ---------------------------------------------------------------------

 SCF Done:  E(RCAM-B3LYP) =  -4069.81300802     A.U. after   18 cycles

 Excitation energies and oscillator strengths:

 Excited State   1:      Singlet-A      1.6402 eV  755.89 nm  f=0.0037  <S**2>=0.000
     309 -> 316        0.11606
     310 -> 315        0.10788
     311 -> 313        0.50431
     312 -> 314       -0.46828
 This state for optimization and/or second-order correction.
 Total Energy, E(TD-HF/TD-DFT) =  -4069.75272998
 Copying the excited state density for this state as the 1-particle RhoCI density.

 Excited State   2:      Singlet-A      1.7102 eV  724.96 nm  f=0.6810  <S**2>=0.000
     309 -> 316        0.12147
     310 -> 315       -0.13104
     311 -> 313        0.46532
     312 -> 314        0.50110

 Excited State   3:      Singlet-A      2.1824 eV  568.10 nm  f=0.0106  <S**2>=0.000
     309 -> 313        0.54340
     310 -> 314       -0.34717
     311 -> 316       -0.21969
     312 -> 315       -0.13948

 Excited State   4:      Singlet-A      2.1986 eV  563.92 nm  f=0.1601  <S**2>=0.000
     309 -> 313        0.34241
     310 -> 314        0.53817
     311 -> 316       -0.14759
     312 -> 315        0.23089

 Excited State   5:      Singlet-A      2.3814 eV  520.64 nm  f=0.0000  <S**2>=0.000
     312 -> 313        0.70709

 The electronic state is 1-A.
 Alpha  occ. eigenvalues --  -46.87536 -46.87462 -19.26401 -19.26272 -19.19201
 Alpha  occ. eigenvalues --  -19.18994 -19.18518 -19.18475 -19.18007 -19.17954
 Alpha  occ. eigenvalues --  -14.42295 -14.42191 -14.41196 -14.41169 -14.39138
 Alpha  occ. eigenvalues --  -14.39126 -14.38417 -14.38343 -10.39114 -10.39038
 Alpha  occ. eigenvalues --  -10.35144 -10.35144 -10.34232 -10.34136 -10.31872
 Alpha  occ. eigenvalues --  -10.31731 -10.31169 -10.31134 -10.30814 -10.30642
 Alpha  occ. eigenvalues --  -10.30320 -10.30266 -10.30216 -10.30176 -10.29924
 Alpha  occ. eigenvalues --  -10.29918 -10.29737 -10.29703 -10.29373 -10.29208
 Alpha  occ. eigenvalues --  -10.29202 -10.28965 -10.28562 -10.28551 -10.28526
 Alpha  occ. eigenvalues --  -10.28397 -10.28211 -10.28107 -10.27964 -10.27883
 Alpha  occ. eigenvalues --  -10.27807 -10.27535 -10.27456 -10.27455 -10.27339
 Alpha  occ. eigenvalues --  -10.27305 -10.27300 -10.27268 -10.27247 -10.27245
 Alpha  occ. eigenvalues --  -10.27224 -10.27168 -10.27099 -10.27042 -10.27014
 Alpha  occ. eigenvalues --  -10.26969 -10.26509 -10.26468 -10.26070 -10.26033
 Alpha  occ. eigenvalues --  -10.26007 -10.25946 -10.25944 -10.25880 -10.25755
 Alpha  occ. eigenvalues --  -10.25735 -10.25727 -10.25659 -10.25271 -10.25257
 Alpha  occ. eigenvalues --  -10.24697 -10.24595 -10.24545 -10.24514 -10.24511
 Alpha  occ. eigenvalues --  -10.24421  -3.16279  -3.16211  -1.91160  -1.91093
 Alpha  occ. eigenvalues --   -1.90747  -1.90682  -1.90589  -1.90519  -1.16690
 Alpha  occ. eigenvalues --   -1.16615  -1.08583  -1.08483  -1.06980  -1.06921
 Alpha  occ. eigenvalues --   -1.06727  -1.06613  -1.04325  -1.04298  -1.03507
 Alpha  occ. eigenvalues --   -1.03466  -1.02975  -1.02846  -1.02158  -1.01922
 Alpha  occ. eigenvalues --   -0.91832  -0.91756  -0.89312  -0.89278  -0.88978
 Alpha  occ. eigenvalues --   -0.88959  -0.88056  -0.88045  -0.87642  -0.87630
 Alpha  occ. eigenvalues --   -0.87489  -0.87416  -0.86944  -0.86851  -0.84828
 Alpha  occ. eigenvalues --   -0.84753  -0.83723  -0.83710  -0.82692  -0.82661
 Alpha  occ. eigenvalues --   -0.82456  -0.82407  -0.81515  -0.81443  -0.80380
 Alpha  occ. eigenvalues --   -0.80296  -0.78502  -0.78407  -0.76978  -0.76958
 Alpha  occ. eigenvalues --   -0.76774  -0.76750  -0.75729  -0.75700  -0.74687
 Alpha  occ. eigenvalues --   -0.74648  -0.72530  -0.72514  -0.71451  -0.71419
 Alpha  occ. eigenvalues --   -0.69679  -0.69561  -0.68655  -0.68640  -0.67430
 Alpha  occ. eigenvalues --   -0.67406  -0.67003  -0.66971  -0.65116  -0.65069
 Alpha  occ. eigenvalues --   -0.64652  -0.64624  -0.64504  -0.64409  -0.64044
 Alpha  occ. eigenvalues --   -0.64023  -0.62211  -0.62174  -0.60151  -0.60111
 Alpha  occ. eigenvalues --   -0.59618  -0.59567  -0.58827  -0.58761  -0.58283
 Alpha  occ. eigenvalues --   -0.58273  -0.57480  -0.57444  -0.57080  -0.57058
 Alpha  occ. eigenvalues --   -0.56086  -0.56045  -0.55855  -0.55804  -0.55287
 Alpha  occ. eigenvalues --   -0.55259  -0.55161  -0.55114  -0.54389  -0.54365
 Alpha  occ. eigenvalues --   -0.53744  -0.53671  -0.53061  -0.53053  -0.52983
 Alpha  occ. eigenvalues --   -0.52972  -0.52758  -0.52728  -0.52438  -0.52400
 Alpha  occ. eigenvalues --   -0.52215  -0.52200  -0.51756  -0.51717  -0.51468
 Alpha  occ. eigenvalues --   -0.51369  -0.51063  -0.50994  -0.50200  -0.50180
 Alpha  occ. eigenvalues --   -0.49773  -0.49764  -0.49673  -0.49640  -0.49292
 Alpha  occ. eigenvalues --   -0.49272  -0.49030  -0.48986  -0.48965  -0.48892
 Alpha  occ. eigenvalues --   -0.48436  -0.48417  -0.48277  -0.48244  -0.48165
 Alpha  occ. eigenvalues --   -0.48113  -0.47456  -0.47411  -0.47039  -0.46918
 Alpha  occ. eigenvalues --   -0.46569  -0.46536  -0.46385  -0.46341  -0.46123
 Alpha  occ. eigenvalues --   -0.46093  -0.45961  -0.45942  -0.45725  -0.45667
 Alpha  occ. eigenvalues --   -0.45051  -0.44975  -0.44404  -0.44392  -0.44300
 Alpha  occ. eigenvalues --   -0.44240  -0.43990  -0.43926  -0.43905  -0.43869
 Alpha  occ. eigenvalues --   -0.43763  -0.43721  -0.43486  -0.43347  -0.43230
 Alpha  occ. eigenvalues --   -0.43154  -0.42886  -0.42810  -0.42752  -0.42623
 Alpha  occ. eigenvalues --   -0.42428  -0.42351  -0.41806  -0.41777  -0.41525
 Alpha  occ. eigenvalues --   -0.41491  -0.41315  -0.41292  -0.40919  -0.40826
 Alpha  occ. eigenvalues --   -0.40643  -0.40544  -0.40527  -0.40475  -0.40353
 Alpha  occ. eigenvalues --   -0.40324  -0.40032  -0.39993  -0.39364  -0.39063
 Alpha  occ. eigenvalues --   -0.38242  -0.38180  -0.37546  -0.37507  -0.37105
 Alpha  occ. eigenvalues --   -0.37066  -0.37033  -0.37022  -0.36761  -0.36628
 Alpha  occ. eigenvalues --   -0.36077  -0.36010  -0.34084  -0.34046  -0.33858
 Alpha  occ. eigenvalues --   -0.33706  -0.32988  -0.32942  -0.31055  -0.31041
 Alpha  occ. eigenvalues --   -0.30793  -0.30788  -0.29875  -0.29868  -0.29179
 Alpha  occ. eigenvalues --   -0.29120  -0.29067  -0.29020  -0.23848  -0.23830
 Alpha  occ. eigenvalues --   -0.20916  -0.20866
 Alpha virt. eigenvalues --   -0.08590  -0.08507  -0.01490  -0.01483   0.00192
 Alpha virt. eigenvalues --    0.00223   0.02315   0.02387   0.02473   0.04503
 Alpha virt. eigenvalues --    0.04852   0.04968   0.05154   0.05167   0.06066

 Mulliken charges:
               1
     1  Mg   0.839282
     2  C   -0.003238
     3  C   -0.090825
     4  C   -0.046348
     5  C   -0.063616
     6  N   -0.256844
     7  C   -0.052675
     8  C   -0.014351
     9  C   -0.087557
    10  C    0.047266
    11  C    0.104869
    12  C    0.052386
    13  C   -0.070720
    14  H    0.032460
    15  N   -0.433579
    16  C    0.170596
    17  C   -0.174032
    18  C   -0.002993
    19  C    0.149282
    20  C    0.109924
    21  C    0.013012
    22  O   -0.251300
    23  C    0.061080
    24  N   -0.341199
    25  C    0.041786
    26  C   -0.028142
    27  C   -0.023824
    28  C    0.074227
    29  C    0.076464
    30  C    0.035921
    31  C   -0.007642
    32  N   -0.310129
    33  C    0.079660
    34  C   -0.170673
    35  C    0.007233
    36  C    0.082347
    37  C    0.127752
    38  C    0.044654
    39  O   -0.191066
    40  C   -0.005012
    41  C    0.212694
    42  O   -0.258845
    43  O   -0.304246
    44  C    0.158636
    45  H   -0.017596
    46  H   -0.017549
    47  H   -0.041895
    48  H   -0.000205
    49  H   -0.003068
    50  H    0.024924
    51  H    0.016465
    52  H    0.016306
    53  H    0.016538
    54  H    0.042647
    55  H    0.017124
    56  H    0.018874
    57  H    0.005947
    58  H    0.025523
    59  H    0.046079
    60  H    0.036894
    61  H    0.034475
    62  H    0.036929
    63  H    0.015695
    64  H    0.008913
    65  H    0.022468
    66  H    0.012516
    67  H    0.004477
    68  H    0.004860
    69  H    0.004922
    70  H    0.009152
    71  H    0.021648
    72  H    0.029006
    73  H    0.045521
    74  H    0.009497
    75  H    0.045300
    76  H    0.034770
    77  H    0.042274
    78  H    0.046711
    79  H    0.051120
    80  Mg   0.838476
    81  C   -0.017202
    82  C   -0.085038
    83  C   -0.045803
    84  C   -0.064404
    85  N   -0.254699
    86  C   -0.049975
    87  C   -0.015451
    88  C   -0.091035
    89  C    0.046759
    90  C    0.114425
    91  C    0.061456
    92  C   -0.076852
    93  H    0.031361
    94  N   -0.423972
    95  C    0.165403
    96  C   -0.172091
    97  C   -0.006621
    98  C    0.152686
    99  C    0.099242
   100  C    0.016433
   101  O   -0.254600
   102  C    0.059833
   103  N   -0.350082
   104  C    0.038007
   105  C   -0.019880
   106  C   -0.034699
   107  C    0.088247
   108  C    0.073931
   109  C    0.035724
   110  C   -0.011246
   111  N   -0.323791
   112  C    0.077730
   113  C   -0.164169
   114  C    0.001016
   115  C    0.095610
   116  C    0.131962
   117  C    0.040754
   118  O   -0.190639
   119  C    0.001299
   120  C    0.211048
   121  O   -0.252891
   122  O   -0.305021
   123  C    0.152963
   124  H   -0.019577
   125  H   -0.016116
   126  H   -0.040699
   127  H   -0.001762
   128  H   -0.003374
   129  H    0.021930
   130  H    0.014442
   131  H    0.015999
   132  H    0.019107
   133  H    0.036257
   134  H    0.020036
   135  H    0.020612
   136  H    0.008832
   137  H    0.025014
   138  H    0.045763
   139  H    0.037781
   140  H    0.035503
   141  H    0.039029
   142  H    0.013733
   143  H    0.011907
   144  H    0.024497
   145  H    0.011593
   146  H    0.005437
   147  H    0.004830
   148  H    0.003963
   149  H    0.011366
   150  H    0.021882
   151  H    0.030025
   152  H    0.043722
   153  H    0.009092
   154  H    0.046295
   155  H    0.034692
   156  H    0.043254
   157  H    0.049945
   158  H    0.050857
 Sum of Mulliken charges =  -0.00000

 Dipole moment (field-independent basis, Debye):
    X=              0.1060    Y=              3.1529    Z=             -0.1955  Tot=              3.1607
 Quadrupole moment (field-independent basis, Debye-Ang):
   XX=           -497.8140   YY=           -462.5106   ZZ=           -533.9511
   XY=              0.4791   XZ=             36.6990   YZ=              0.8923

 Normal termination of Gaussian 16 at Wed Sep  8 18:33:20 2021.
