 Gaussian 16, Revision A.03,
 Gaussian 16:  ES64L-G16RevA.03 25-Dec-2016

 -----------------------------------
 #p cam-b3lyp/Def2SVP td=(nstates=5)
 -----------------------------------

 --------------------------------
 TDDFT excited states in gaussian
 --------------------------------
 Symbolic Z-matrix:
 Charge =  0 Multiplicity = 1

                         Standard orientation:
 ---------------------------------------------------------------------
 Center     Atomic      Atomic             Coordinates (Angstroms)
 Number     Number       Type             X           Y           Z
 ---------------------------------------------------------------------
      1         12           0       -3.267656   -1.979757    0.575793
      2          6           0       -4.672722    1.312355    0.575071
      3          6           0       -4.491557   -2.341574   -2.588732
      4          6           0       -2.436143   -5.036598    0.720464
      5          6           0       -3.163334   -1.774599    4.053247
      6          7           0       -4.418044   -0.615448   -0.734135
      7          6           0       -4.841328    0.641040   -0.638005
      8          6           0       -5.413940    1.203933   -1.973160
      9          6           0       -5.816757   -0.170518   -2.673604
     10          6           0       -4.826841   -1.093377   -1.984894
     11          6           0       -7.231960   -0.632054   -2.340909
     12          6           0       -4.334597    1.975786   -2.804421
     13          6           0       -4.881271    2.829443   -3.952362
     14          1           0       -4.224857    4.090832   -4.261181
     15          7           0       -3.000739   -3.304472   -0.865296
     16          6           0       -3.565173   -3.286345   -2.096706
     17          6           0       -3.054130   -4.484317   -2.796976
     18          6           0       -2.296649   -5.300819   -1.808219
     19          6           0       -2.573230   -4.583910   -0.589645
     20          6           0       -3.258707   -4.732024   -4.260034
     21          6           0       -1.465404   -6.537779   -1.938959
     22          8           0       -1.087920   -7.214235   -0.921862
     23          6           0       -1.175158   -6.992243   -3.310915
     24          7           0       -3.060050   -3.321402    2.161518
     25          6           0       -2.630285   -4.571252    1.956186
     26          6           0       -2.291109   -5.251392    3.249363
     27          6           0       -2.348352   -4.118344    4.373054
     28          6           0       -2.816736   -2.934720    3.491057
     29          6           0       -3.205249   -6.416639    3.652548
     30          6           0       -1.083398   -3.930968    5.247811
     31          6           0        0.050505   -3.395605    4.402384
     32          7           0       -3.645222   -0.448182    2.066688
     33          6           0       -3.561696   -0.588567    3.459523
     34          6           0       -4.012363    0.685186    4.049879
     35          6           0       -4.344630    1.477474    2.952736
     36          6           0       -4.140902    0.735972    1.754002
     37          6           0       -4.128476    0.964407    5.440199
     38          6           0       -4.847752    2.769494    2.515232
     39          8           0       -5.105436    3.835152    3.076894
     40          6           0       -5.195901    2.672608    0.964351
     41          6           0       -4.597622    3.876009    0.288186
     42          8           0       -3.360101    4.018908    0.214110
     43          8           0       -5.560514    4.542216   -0.367213
     44          6           0       -5.028629    5.731573   -1.084627
     45          1           0       -5.027206   -2.653998   -3.487294
     46          1           0       -2.044650   -6.051777    0.813110
     47          1           0       -3.077840   -1.607856    5.128580
     48          1           0       -6.294875    1.835918   -1.859265
     49          1           0       -5.631540   -0.149650   -3.747374
     50          1           0       -7.685336   -0.005129   -1.573227
     51          1           0       -7.127429   -1.656507   -1.983050
     52          1           0       -7.842357   -0.690404   -3.242456
     53          1           0       -3.739150    1.260817   -3.372157
     54          1           0       -3.718908    2.597994   -2.153952
     55          1           0       -5.958957    2.970846   -3.865723
     56          1           0       -4.754812    2.273679   -4.881520
     57          1           0       -3.991359   -4.046276   -4.683725
     58          1           0       -3.719815   -5.714900   -4.355135
     59          1           0       -2.320651   -4.710795   -4.814951
     60          1           0       -2.113074   -7.185145   -3.832116
     61          1           0       -0.495825   -7.837940   -3.210152
     62          1           0       -0.683262   -6.184594   -3.853768
     63          1           0       -1.287242   -5.672925    3.217954
     64          1           0       -3.146189   -4.297431    5.094204
     65          1           0       -2.673908   -7.355370    3.811188
     66          1           0       -3.970877   -6.525527    2.884923
     67          1           0       -3.811857   -6.235939    4.539561
     68          1           0       -0.757228   -4.888338    5.652782
     69          1           0       -1.236647   -3.251184    6.086059
     70          1           0        0.462443   -4.296467    3.948967
     71          1           0        0.792038   -2.900344    5.030123
     72          1           0       -0.319197   -2.763947    3.594414
     73          1           0       -3.722352    1.965403    5.585244
     74          1           0       -3.591278    0.228504    6.038085
     75          1           0       -5.208692    0.899424    5.569684
     76          1           0       -6.282629    2.657839    0.887365
     77          1           0       -5.594874    6.595786   -0.737155
     78          1           0       -5.067961    5.495184   -2.148102
     79          1           0       -4.012803    6.034597   -0.828478
     80         12           0        4.144176    0.698949   -0.409620
     81          6           0        2.054681    3.607599   -0.179839
     82          6           0        2.398447   -0.149958   -3.214334
     83          6           0        5.658589   -2.089158   -0.388035
     84          6           0        4.925183    1.164936    2.954687
     85          7           0        2.465991    1.682722   -1.462310
     86          6           0        1.795276    2.815690   -1.317830
     87          6           0        0.847071    3.156843   -2.498539
     88          6           0        0.623518    1.670724   -3.064543
     89          6           0        1.923577    1.028402   -2.585010
     90          6           0       -0.538634    0.944909   -2.407321
     91          6           0        1.530680    4.081350   -3.566225
     92          6           0        0.573417    4.704665   -4.584506
     93          1           0        0.851391    6.055317   -5.065055
     94          7           0        4.394273   -0.637919   -1.854901
     95          6           0        3.602979   -0.830535   -2.931022
     96          6           0        4.205949   -1.944187   -3.679600
     97          6           0        5.324698   -2.501212   -2.871613
     98          6           0        5.152181   -1.761643   -1.637377
     99          6           0        3.764371   -2.329116   -5.061728
    100          6           0        6.368238   -3.538294   -3.157414
    101          8           0        7.094778   -4.036814   -2.226577
    102          6           0        6.450647   -4.020763   -4.543745
    103          7           0        4.979562   -0.440066    1.115875
    104          6           0        5.625518   -1.588266    0.847007
    105          6           0        6.376338   -2.088244    2.058069
    106          6           0        6.296872   -0.905346    3.131392
    107          6           0        5.398527    0.081689    2.354119
    108          6           0        5.846751   -3.378678    2.683144
    109          6           0        7.642824   -0.384618    3.705770
    110          6           0        8.432231    0.311474    2.620559
    111          7           0        3.756174    2.213153    1.081914
    112          6           0        4.154166    2.197709    2.436710
    113          6           0        3.558302    3.387122    3.079100
    114          6           0        2.830335    4.004525    2.050813
    115          6           0        2.946635    3.242053    0.857240
    116          6           0        3.683966    3.741902    4.451855
    117          6           0        1.981274    5.122167    1.706346
    118          8           0        1.607471    6.140450    2.286967
    119          6           0        1.337977    4.847070    0.279148
    120          6           0        1.493532    6.093395   -0.548486
    121          8           0        2.622663    6.493334   -0.882709
    122          8           0        0.283637    6.483336   -0.989486
    123          6           0        0.387215    7.709658   -1.824499
    124          1           0        1.770334   -0.624369   -3.968840
    125          1           0        6.282183   -2.985441   -0.352212
    126          1           0        5.201341    1.433635    3.976559
    127          1           0       -0.102188    3.590779   -2.208046
    128          1           0        0.573212    1.664986   -4.150272
    129          1           0       -0.949893    1.507094   -1.582126
    130          1           0       -0.137780    0.001642   -2.060031
    131          1           0       -1.296922    0.693371   -3.154356
    132          1           0        2.141581    3.463152   -4.236590
    133          1           0        2.104748    4.852683   -3.090700
    134          1           0       -0.474533    4.615545   -4.273343
    135          1           0        0.628009    4.127400   -5.510684
    136          1           0        2.814491   -1.849659   -5.328667
    137          1           0        3.530909   -3.399028   -5.036450
    138          1           0        4.535724   -2.153391   -5.814587
    139          1           0        5.492192   -4.442548   -4.836903
    140          1           0        7.312574   -4.690303   -4.569405
    141          1           0        6.632018   -3.163910   -5.202169
    142          1           0        7.415748   -2.276019    1.818364
    143          1           0        5.733005   -1.204995    4.026994
    144          1           0        6.607871   -4.179482    2.742097
    145          1           0        4.990627   -3.709206    2.110127
    146          1           0        5.428053   -3.269947    3.682179
    147          1           0        8.257109   -1.220856    4.048585
    148          1           0        7.521373    0.291304    4.545640
    149          1           0        8.929579   -0.516919    2.107224
    150          1           0        9.156005    0.998616    3.054172
    151          1           0        7.765305    0.794724    1.897145
    152          1           0        3.871376    4.807001    4.482265
    153          1           0        4.482411    3.182979    4.935460
    154          1           0        2.696938    3.449478    4.820020
    155          1           0        0.290205    4.588228    0.436465
    156          1           0       -0.278873    8.455805   -1.380363
    157          1           0        0.163519    7.386699   -2.858621
    158          1           0        1.332037    8.240467   -1.820405
 ---------------------------------------------------------------------

 SCF Done:  E(RCAM-B3LYP) =  -4069.81232721     A.U. after   19 cycles

 Excitation energies and oscillator strengths:

 Excited State   1:      Singlet-A      1.6360 eV  757.83 nm  f=0.0006  <S**2>=0.000
     309 -> 315        0.11539
     310 -> 316       -0.11621
     311 -> 313        0.48157
     312 -> 314        0.49191
 This state for optimization and/or second-order correction.
 Total Energy, E(TD-HF/TD-DFT) =  -4069.75220413
 Copying the excited state density for this state as the 1-particle RhoCI density.

 Excited State   2:      Singlet-A      1.7120 eV  724.21 nm  f=0.6749  <S**2>=0.000
     309 -> 315        0.13201
     310 -> 316        0.12741
     311 -> 313        0.48840
     312 -> 314       -0.47817

 Excited State   3:      Singlet-A      2.1762 eV  569.72 nm  f=0.0203  <S**2>=0.000
     309 -> 313        0.30884
     310 -> 314        0.54840
     311 -> 315       -0.12576
     312 -> 313        0.16118
     312 -> 316        0.22538

 Excited State   4:      Singlet-A      2.1779 eV  569.29 nm  f=0.0014  <S**2>=0.000
     310 -> 314       -0.13043
     312 -> 313        0.68819

 Excited State   5:      Singlet-A      2.1978 eV  564.14 nm  f=0.1505  <S**2>=0.000
     309 -> 313        0.55733
     310 -> 314       -0.31017
     311 -> 315       -0.24728
     312 -> 316       -0.13969

 The electronic state is 1-A.
 Alpha  occ. eigenvalues --  -46.88023 -46.87330 -19.26536 -19.25828 -19.19360
 Alpha  occ. eigenvalues --  -19.19003 -19.18671 -19.18442 -19.18326 -19.17542
 Alpha  occ. eigenvalues --  -14.42701 -14.42166 -14.41666 -14.41029 -14.39628
 Alpha  occ. eigenvalues --  -14.39025 -14.38805 -14.38249 -10.39384 -10.38572
 Alpha  occ. eigenvalues --  -10.35639 -10.35128 -10.34555 -10.33695 -10.31867
 Alpha  occ. eigenvalues --  -10.31661 -10.31407 -10.31194 -10.30942 -10.30797
 Alpha  occ. eigenvalues --  -10.30707 -10.30657 -10.30418 -10.30107 -10.30050
 Alpha  occ. eigenvalues --  -10.30000 -10.29869 -10.29838 -10.29556 -10.29474
 Alpha  occ. eigenvalues --  -10.29142 -10.29103 -10.29065 -10.29033 -10.28600
 Alpha  occ. eigenvalues --  -10.28463 -10.28431 -10.28267 -10.28029 -10.27996
 Alpha  occ. eigenvalues --  -10.27975 -10.27802 -10.27790 -10.27767 -10.27662
 Alpha  occ. eigenvalues --  -10.27652 -10.27651 -10.27600 -10.27383 -10.27364
 Alpha  occ. eigenvalues --  -10.27308 -10.27287 -10.27217 -10.27141 -10.27122
 Alpha  occ. eigenvalues --  -10.27096 -10.26632 -10.26492 -10.26390 -10.26342
 Alpha  occ. eigenvalues --  -10.26322 -10.26228 -10.26227 -10.25957 -10.25940
 Alpha  occ. eigenvalues --  -10.25628 -10.25609 -10.25568 -10.25526 -10.25166
 Alpha  occ. eigenvalues --  -10.25032 -10.24993 -10.24812 -10.24535 -10.24498
 Alpha  occ. eigenvalues --  -10.24349  -3.16764  -3.16081  -1.91645  -1.91232
 Alpha  occ. eigenvalues --   -1.91074  -1.90964  -1.90552  -1.90389  -1.16890
 Alpha  occ. eigenvalues --   -1.16130  -1.08782  -1.08125  -1.07400  -1.06934
 Alpha  occ. eigenvalues --   -1.06698  -1.06452  -1.04832  -1.04145  -1.03981
 Alpha  occ. eigenvalues --   -1.03449  -1.03327  -1.02710  -1.02628  -1.01771
 Alpha  occ. eigenvalues --   -0.92201  -0.91551  -0.89708  -0.89516  -0.89187
 Alpha  occ. eigenvalues --   -0.88790  -0.88470  -0.88057  -0.87937  -0.87931
 Alpha  occ. eigenvalues --   -0.87504  -0.87450  -0.87362  -0.86853  -0.85291
 Alpha  occ. eigenvalues --   -0.84673  -0.84107  -0.83593  -0.83177  -0.82916
 Alpha  occ. eigenvalues --   -0.82689  -0.82324  -0.81808  -0.81206  -0.80828
 Alpha  occ. eigenvalues --   -0.80087  -0.79020  -0.78338  -0.77467  -0.77185
 Alpha  occ. eigenvalues --   -0.76842  -0.76557  -0.76166  -0.75468  -0.75081
 Alpha  occ. eigenvalues --   -0.74499  -0.72985  -0.72368  -0.71895  -0.71235
 Alpha  occ. eigenvalues --   -0.70071  -0.69509  -0.69157  -0.68510  -0.67864
 Alpha  occ. eigenvalues --   -0.67551  -0.67264  -0.66912  -0.65587  -0.65077
 Alpha  occ. eigenvalues --   -0.64900  -0.64854  -0.64459  -0.64431  -0.64292
 Alpha  occ. eigenvalues --   -0.63903  -0.62515  -0.61864  -0.60655  -0.60092
 Alpha  occ. eigenvalues --   -0.60054  -0.59432  -0.59206  -0.58721  -0.58642
 Alpha  occ. eigenvalues --   -0.58055  -0.57806  -0.57511  -0.57076  -0.56854
 Alpha  occ. eigenvalues --   -0.56526  -0.56234  -0.55880  -0.55744  -0.55530
 Alpha  occ. eigenvalues --   -0.55481  -0.55130  -0.54909  -0.54730  -0.54236
 Alpha  occ. eigenvalues --   -0.54123  -0.53596  -0.53513  -0.53467  -0.53163
 Alpha  occ. eigenvalues --   -0.53020  -0.52923  -0.52805  -0.52598  -0.52548
 Alpha  occ. eigenvalues --   -0.52399  -0.52145  -0.52078  -0.51920  -0.51541
 Alpha  occ. eigenvalues --   -0.51406  -0.51342  -0.50832  -0.50817  -0.50262
 Alpha  occ. eigenvalues --   -0.50240  -0.50141  -0.49791  -0.49689  -0.49588
 Alpha  occ. eigenvalues --   -0.49453  -0.49351  -0.49179  -0.48839  -0.48812
 Alpha  occ. eigenvalues --   -0.48728  -0.48657  -0.48628  -0.48204  -0.48098
 Alpha  occ. eigenvalues --   -0.48006  -0.47932  -0.47517  -0.47282  -0.47026
 Alpha  occ. eigenvalues --   -0.46871  -0.46824  -0.46567  -0.46399  -0.46359
 Alpha  occ. eigenvalues --   -0.46249  -0.46026  -0.45973  -0.45739  -0.45438
 Alpha  occ. eigenvalues --   -0.45383  -0.44908  -0.44800  -0.44746  -0.44368
 Alpha  occ. eigenvalues --   -0.44340  -0.44230  -0.44176  -0.44146  -0.43805
 Alpha  occ. eigenvalues --   -0.43791  -0.43701  -0.43634  -0.43580  -0.43239
 Alpha  occ. eigenvalues --   -0.43194  -0.43049  -0.42917  -0.42836  -0.42585
 Alpha  occ. eigenvalues --   -0.42445  -0.42281  -0.42229  -0.41924  -0.41819
 Alpha  occ. eigenvalues --   -0.41664  -0.41369  -0.41276  -0.41165  -0.41125
 Alpha  occ. eigenvalues --   -0.41090  -0.40812  -0.40751  -0.40485  -0.40424
 Alpha  occ. eigenvalues --   -0.40384  -0.40110  -0.39911  -0.39602  -0.39186
 Alpha  occ. eigenvalues --   -0.38681  -0.38117  -0.38071  -0.37553  -0.37527
 Alpha  occ. eigenvalues --   -0.37361  -0.36965  -0.36958  -0.36861  -0.36427
 Alpha  occ. eigenvalues --   -0.36350  -0.35864  -0.34509  -0.34058  -0.33909
 Alpha  occ. eigenvalues --   -0.33413  -0.33394  -0.32831  -0.31534  -0.31266
 Alpha  occ. eigenvalues --   -0.31000  -0.30611  -0.30188  -0.29662  -0.29517
 Alpha  occ. eigenvalues --   -0.29427  -0.29011  -0.28839  -0.24312  -0.23676
 Alpha  occ. eigenvalues --   -0.21351  -0.20786
 Alpha virt. eigenvalues --   -0.08993  -0.08449  -0.01971  -0.01359  -0.00282
 Alpha virt. eigenvalues --    0.00288   0.02013   0.02450   0.02696   0.03623
 Alpha virt. eigenvalues --    0.04320   0.04731   0.04978   0.05431   0.05688

 Mulliken charges:
               1
     1  Mg   0.835201
     2  C   -0.005414
     3  C   -0.095743
     4  C   -0.044574
     5  C   -0.063167
     6  N   -0.256476
     7  C   -0.054894
     8  C   -0.011294
     9  C   -0.087900
    10  C    0.045192
    11  C    0.104975
    12  C    0.041360
    13  C   -0.070384
    14  H    0.035597
    15  N   -0.433500
    16  C    0.167507
    17  C   -0.178678
    18  C   -0.003997
    19  C    0.149149
    20  C    0.110416
    21  C    0.013044
    22  O   -0.248240
    23  C    0.062783
    24  N   -0.340529
    25  C    0.040894
    26  C   -0.028326
    27  C   -0.024162
    28  C    0.075252
    29  C    0.075957
    30  C    0.034925
    31  C   -0.004717
    32  N   -0.310942
    33  C    0.081224
    34  C   -0.168672
    35  C    0.009632
    36  C    0.082747
    37  C    0.126838
    38  C    0.047068
    39  O   -0.185493
    40  C   -0.005774
    41  C    0.214980
    42  O   -0.258686
    43  O   -0.304505
    44  C    0.155058
    45  H   -0.018176
    46  H   -0.016114
    47  H   -0.040669
    48  H    0.001716
    49  H   -0.005205
    50  H    0.026109
    51  H    0.017515
    52  H    0.016790
    53  H    0.015255
    54  H    0.045460
    55  H    0.019572
    56  H    0.016596
    57  H    0.005279
    58  H    0.027657
    59  H    0.036989
    60  H    0.037423
    61  H    0.036763
    62  H    0.029126
    63  H    0.017307
    64  H    0.009909
    65  H    0.023769
    66  H    0.012559
    67  H    0.005063
    68  H    0.006686
    69  H    0.004893
    70  H    0.009349
    71  H    0.017581
    72  H    0.029893
    73  H    0.049699
    74  H    0.009355
    75  H    0.046444
    76  H    0.035816
    77  H    0.044530
    78  H    0.044738
    79  H    0.057701
    80  Mg   0.836247
    81  C   -0.016385
    82  C   -0.087878
    83  C   -0.045489
    84  C   -0.066379
    85  N   -0.254573
    86  C   -0.048634
    87  C   -0.016350
    88  C   -0.092519
    89  C    0.044515
    90  C    0.098555
    91  C    0.062956
    92  C   -0.076622
    93  H    0.032851
    94  N   -0.423420
    95  C    0.162663
    96  C   -0.175657
    97  C   -0.008173
    98  C    0.151761
    99  C    0.100203
   100  C    0.015254
   101  O   -0.253709
   102  C    0.061496
   103  N   -0.350315
   104  C    0.037122
   105  C   -0.019486
   106  C   -0.034652
   107  C    0.089521
   108  C    0.073772
   109  C    0.034945
   110  C   -0.007540
   111  N   -0.324608
   112  C    0.079388
   113  C   -0.163713
   114  C    0.004188
   115  C    0.094918
   116  C    0.131290
   117  C    0.044581
   118  O   -0.185781
   119  C   -0.001646
   120  C    0.208553
   121  O   -0.253574
   122  O   -0.300604
   123  C    0.152615
   124  H   -0.022181
   125  H   -0.016269
   126  H   -0.041460
   127  H    0.010607
   128  H   -0.007767
   129  H    0.042651
   130  H    0.014642
   131  H    0.015432
   132  H    0.012493
   133  H    0.037627
   134  H    0.019845
   135  H    0.017519
   136  H    0.006427
   137  H    0.023450
   138  H    0.038756
   139  H    0.037202
   140  H    0.035678
   141  H    0.033256
   142  H    0.013800
   143  H    0.011142
   144  H    0.024508
   145  H    0.012831
   146  H    0.004038
   147  H    0.005541
   148  H    0.003168
   149  H    0.010707
   150  H    0.017373
   151  H    0.030609
   152  H    0.045920
   153  H    0.007158
   154  H    0.048008
   155  H    0.054935
   156  H    0.042208
   157  H    0.046940
   158  H    0.052411
 Sum of Mulliken charges =  -0.00000

 Dipole moment (field-independent basis, Debye):
    X=             -4.3476    Y=             -4.4757    Z=             -5.6498  Tot=              8.4175
 Quadrupole moment (field-independent basis, Debye-Ang):
   XX=           -511.8843   YY=           -559.2141   ZZ=           -450.6342
   XY=              6.3740   XZ=             34.0351   YZ=            -27.5312

 Normal termination of Gaussian 16 at Thu Sep  9 06:45:32 2021.
