 Gaussian 16, Revision A.03,
 Gaussian 16:  ES64L-G16RevA.03 25-Dec-2016

 -----------------------------------
 #p cam-b3lyp/Def2SVP td=(nstates=5)
 -----------------------------------

 --------------------------------
 TDDFT excited states in gaussian
 --------------------------------
 Symbolic Z-matrix:
 Charge =  0 Multiplicity = 1

                         Standard orientation:
 ---------------------------------------------------------------------
 Center     Atomic      Atomic             Coordinates (Angstroms)
 Number     Number       Type             X           Y           Z
 ---------------------------------------------------------------------
      1         12           0        4.161690    1.460966    0.371290
      2          6           0        5.510770   -1.638132   -0.806757
      3          6           0        4.698517    2.712642   -2.757318
      4          6           0        3.401813    4.323733    1.504326
      5          6           0        4.786289    0.332355    3.608847
      6          7           0        5.002045    0.553566   -1.464759
      7          6           0        5.426655   -0.660533   -1.800675
      8          6           0        5.702775   -0.818443   -3.325862
      9          6           0        5.960277    0.711136   -3.694751
     10          6           0        5.143451    1.366966   -2.595384
     11          6           0        7.417186    1.137096   -3.544833
     12          6           0        4.467554   -1.393692   -4.097256
     13          6           0        4.755336   -1.882634   -5.519744
     14          1           0        4.039385   -3.047231   -6.018217
     15          7           0        3.608868    3.106628   -0.571595
     16          6           0        3.902794    3.445090   -1.850007
     17          6           0        3.265434    4.759369   -2.080494
     18          6           0        2.737915    5.244464   -0.774929
     19          6           0        3.258145    4.243616    0.121196
     20          6           0        3.160976    5.397543   -3.431631
     21          6           0        1.907006    6.428728   -0.393821
     22          8           0        1.755934    6.790332    0.823139
     23          6           0        1.339332    7.217104   -1.502538
     24          7           0        4.300771    2.319919    2.268786
     25          6           0        3.846909    3.556385    2.501478
     26          6           0        3.791130    3.849926    3.971397
     27          6           0        4.073909    2.462870    4.710224
     28          6           0        4.338354    1.581595    3.464554
     29          6           0        4.778127    4.909645    4.480165
     30          6           0        3.018794    1.986772    5.740021
     31          6           0        1.729027    1.640237    5.030434
     32          7           0        4.831586   -0.391592    1.282505
     33          6           0        5.042610   -0.631473    2.648009
     34          6           0        5.597351   -1.992431    2.766852
     35          6           0        5.686581   -2.446468    1.452419
     36          6           0        5.241925   -1.423612    0.566791
     37          6           0        5.999914   -2.625650    3.975741
     38          6           0        6.077254   -3.548718    0.588546
     39          8           0        6.438846   -4.711301    0.776016
     40          6           0        6.093663   -3.025215   -0.915284
     41          6           0        5.358072   -4.033292   -1.755519
     42          8           0        4.131438   -4.212568   -1.612003
     43          8           0        6.157370   -4.452276   -2.748553
     44          6           0        5.478168   -5.432555   -3.637311
     45          1           0        5.036467    3.279242   -3.627200
     46          1           0        3.046009    5.256857    1.946051
     47          1           0        4.926607   -0.118729    4.592863
     48          1           0        6.583274   -1.413394   -3.569133
     49          1           0        5.554178    0.967765   -4.672988
     50          1           0        8.016549    0.351704   -3.084567
     51          1           0        7.397576    2.022776   -2.909475
     52          1           0        7.825697    1.463626   -4.501532
     53          1           0        3.771799   -0.583841   -4.316639
     54          1           0        3.997074   -2.196410   -3.528383
     55          1           0        5.826184   -1.988315   -5.695881
     56          1           0        4.441289   -1.106516   -6.217752
     57          1           0        3.783516    4.886620   -4.165080
     58          1           0        3.599295    6.391893   -3.348852
     59          1           0        2.127389    5.478291   -3.768543
     60          1           0        2.148741    7.588142   -2.131615
     61          1           0        0.702508    7.970630   -1.040473
     62          1           0        0.738640    6.559769   -2.131846
     63          1           0        2.806125    4.214225    4.260320
     64          1           0        5.006378    2.482853    5.274825
     65          1           0        4.298826    5.744663    4.991751
     66          1           0        5.366844    5.256871    3.631556
     67          1           0        5.555648    4.529633    5.142334
     68          1           0        2.791828    2.784329    6.446658
     69          1           0        3.339071    1.116807    6.313462
     70          1           0        1.238037    2.607703    4.931590
     71          1           0        1.131688    0.959525    5.637911
     72          1           0        1.916614    1.265685    4.023951
     73          1           0        5.625681   -3.648013    3.923854
     74          1           0        5.605340   -2.103126    4.846880
     75          1           0        7.083753   -2.543943    3.895281
     76          1           0        7.140260   -2.936544   -1.204929
     77          1           0        6.098130   -6.328871   -3.659635
     78          1           0        5.295717   -4.919879   -4.581917
     79          1           0        4.536255   -5.842892   -3.271575
     80         12           0       -4.312628   -1.575968    0.224614
     81          6           0       -5.180602    1.530338   -1.349087
     82          6           0       -4.053712    0.152311    3.153893
     83          6           0       -3.111536   -4.196885    1.549604
     84          6           0       -3.531377   -2.802372   -2.942606
     85          7           0       -4.604508    0.561635    0.712175
     86          6           0       -4.993569    1.637563    0.044819
     87          6           0       -5.271175    2.879932    0.933082
     88          6           0       -4.346521    2.490488    2.186972
     89          6           0       -4.358810    0.970605    2.037018
     90          6           0       -2.911892    2.972418    2.049484
     91          6           0       -6.780616    2.994229    1.346030
     92          6           0       -7.181459    4.341235    1.951551
     93          1           0       -8.513727    4.865095    1.663274
     94          7           0       -4.145702   -2.088660    2.134555
     95          6           0       -4.077126   -1.259046    3.196782
     96          6           0       -3.940485   -2.126808    4.376823
     97          6           0       -3.768320   -3.529430    3.910229
     98          6           0       -3.644981   -3.318792    2.481765
     99          6           0       -4.058949   -1.613423    5.782470
    100          6           0       -3.709902   -4.841815    4.631653
    101          8           0       -3.315663   -5.913358    4.049253
    102          6           0       -4.038504   -4.817498    6.064451
    103          7           0       -3.247623   -3.185553   -0.548262
    104          6           0       -2.891034   -4.218658    0.234990
    105          6           0       -2.381272   -5.377133   -0.588705
    106          6           0       -2.697634   -4.995320   -2.109139
    107          6           0       -3.280442   -3.580582   -1.898780
    108          6           0       -0.892905   -5.693150   -0.442725
    109          6           0       -3.523304   -6.019620   -2.934818
    110          6           0       -4.933417   -6.100067   -2.395834
    111          7           0       -4.512239   -0.872547   -1.808456
    112          6           0       -4.096624   -1.534252   -2.984678
    113          6           0       -4.339493   -0.611362   -4.112374
    114          6           0       -4.862332    0.541137   -3.506662
    115          6           0       -4.920983    0.357559   -2.098699
    116          6           0       -4.036096   -0.869672   -5.478889
    117          6           0       -5.368029    1.875240   -3.737171
    118          8           0       -5.634365    2.542796   -4.735743
    119          6           0       -5.478523    2.622427   -2.338630
    120          6           0       -6.828936    3.281313   -2.269449
    121          8           0       -7.866098    2.595631   -2.242038
    122          8           0       -6.666404    4.595071   -2.028657
    123          6           0       -7.978266    5.290082   -1.940370
    124          1           0       -3.723918    0.633595    4.075020
    125          1           0       -2.784848   -5.161917    1.943906
    126          1           0       -3.405722   -3.146967   -3.971263
    127          1           0       -4.945947    3.822751    0.509887
    128          1           0       -4.809180    2.784793    3.125421
    129          1           0       -2.720861    3.396062    1.074707
    130          1           0       -2.291853    2.100365    2.211131
    131          1           0       -2.669097    3.668767    2.857238
    132          1           0       -6.967121    2.338556    2.206297
    133          1           0       -7.420956    2.766182    0.516221
    134          1           0       -6.420254    5.112374    1.781722
    135          1           0       -7.218354    4.235845    3.038544
    136          1           0       -4.019304   -0.517637    5.815177
    137          1           0       -3.158080   -1.933876    6.316904
    138          1           0       -4.936111   -2.005548    6.301581
    139          1           0       -3.361419   -4.139661    6.578793
    140          1           0       -4.028471   -5.861271    6.384320
    141          1           0       -5.047051   -4.406540    6.185160
    142          1           0       -2.907376   -6.290330   -0.338932
    143          1           0       -1.777015   -4.871537   -2.698186
    144          1           0       -0.697009   -6.734275   -0.123738
    145          1           0       -0.462610   -4.992610    0.260579
    146          1           0       -0.294491   -5.520992   -1.335731
    147          1           0       -3.095118   -7.019984   -2.834423
    148          1           0       -3.560750   -5.790213   -3.994518
    149          1           0       -4.837921   -6.797051   -1.557866
    150          1           0       -5.612008   -6.485252   -3.154233
    151          1           0       -5.254097   -5.134884   -1.986883
    152          1           0       -4.883771   -0.525602   -6.056433
    153          1           0       -3.840061   -1.926135   -5.649804
    154          1           0       -3.135845   -0.260729   -5.597270
    155          1           0       -4.665890    3.348251   -2.289890
    156          1           0       -7.956840    6.106711   -2.668604
    157          1           0       -8.098512    5.567195   -0.876175
    158          1           0       -8.857501    4.743709   -2.261106
 ---------------------------------------------------------------------

 SCF Done:  E(RCAM-B3LYP) =  -4069.81217439     A.U. after   19 cycles

 Excitation energies and oscillator strengths:

 Excited State   1:      Singlet-A      1.6546 eV  749.35 nm  f=0.0956  <S**2>=0.000
     309 -> 315        0.10834
     310 -> 316        0.12934
     311 -> 313        0.44222
     312 -> 314        0.52607
 This state for optimization and/or second-order correction.
 Total Energy, E(TD-HF/TD-DFT) =  -4069.75137075
 Copying the excited state density for this state as the 1-particle RhoCI density.

 Excited State   2:      Singlet-A      1.6940 eV  731.91 nm  f=0.5919  <S**2>=0.000
     309 -> 315        0.13700
     310 -> 316       -0.11471
     311 -> 313        0.52396
     312 -> 314       -0.44047

 Excited State   3:      Singlet-A      2.1813 eV  568.40 nm  f=0.0464  <S**2>=0.000
     309 -> 313        0.27568
     310 -> 314        0.58288
     311 -> 315       -0.11434
     312 -> 316       -0.24251

 Excited State   4:      Singlet-A      2.1956 eV  564.70 nm  f=0.1379  <S**2>=0.000
     309 -> 313        0.57814
     310 -> 314       -0.27229
     311 -> 315       -0.25382
     312 -> 316        0.12070

 Excited State   5:      Singlet-A      2.3457 eV  528.56 nm  f=0.0000  <S**2>=0.000
     312 -> 313        0.70708

 The electronic state is 1-A.
 Alpha  occ. eigenvalues --  -46.87915 -46.87433 -19.26427 -19.26257 -19.19176
 Alpha  occ. eigenvalues --  -19.19052 -19.18939 -19.18505 -19.18270 -19.17919
 Alpha  occ. eigenvalues --  -14.42563 -14.42271 -14.41582 -14.41101 -14.39518
 Alpha  occ. eigenvalues --  -14.39131 -14.38700 -14.38390 -10.39229 -10.38979
 Alpha  occ. eigenvalues --  -10.35567 -10.35183 -10.34493 -10.34098 -10.31828
 Alpha  occ. eigenvalues --  -10.31683 -10.31511 -10.31108 -10.31017 -10.30805
 Alpha  occ. eigenvalues --  -10.30678 -10.30633 -10.30346 -10.30182 -10.30173
 Alpha  occ. eigenvalues --  -10.30066 -10.29861 -10.29741 -10.29617 -10.29365
 Alpha  occ. eigenvalues --  -10.29214 -10.29207 -10.28849 -10.28641 -10.28517
 Alpha  occ. eigenvalues --  -10.28500 -10.28473 -10.28206 -10.28200 -10.27914
 Alpha  occ. eigenvalues --  -10.27896 -10.27832 -10.27808 -10.27703 -10.27691
 Alpha  occ. eigenvalues --  -10.27649 -10.27521 -10.27517 -10.27451 -10.27321
 Alpha  occ. eigenvalues --  -10.27275 -10.27275 -10.27271 -10.27140 -10.26920
 Alpha  occ. eigenvalues --  -10.26918 -10.26812 -10.26521 -10.26482 -10.26464
 Alpha  occ. eigenvalues --  -10.26313 -10.26240 -10.26150 -10.25931 -10.25846
 Alpha  occ. eigenvalues --  -10.25751 -10.25737 -10.25696 -10.25614 -10.25049
 Alpha  occ. eigenvalues --  -10.24936 -10.24923 -10.24689 -10.24640 -10.24479
 Alpha  occ. eigenvalues --  -10.24427  -3.16658  -3.16183  -1.91539  -1.91126
 Alpha  occ. eigenvalues --   -1.91065  -1.90968  -1.90653  -1.90491  -1.16777
 Alpha  occ. eigenvalues --   -1.16547  -1.08729  -1.08537  -1.07344  -1.06838
 Alpha  occ. eigenvalues --   -1.06792  -1.06754  -1.04693  -1.04278  -1.03889
 Alpha  occ. eigenvalues --   -1.03433  -1.03352  -1.02796  -1.02532  -1.01878
 Alpha  occ. eigenvalues --   -0.92088  -0.91795  -0.89699  -0.89288  -0.89231
 Alpha  occ. eigenvalues --   -0.88932  -0.88464  -0.87971  -0.87890  -0.87787
 Alpha  occ. eigenvalues --   -0.87625  -0.87447  -0.87365  -0.86935  -0.85093
 Alpha  occ. eigenvalues --   -0.84784  -0.84138  -0.83544  -0.83085  -0.82763
 Alpha  occ. eigenvalues --   -0.82703  -0.82437  -0.81715  -0.81437  -0.80718
 Alpha  occ. eigenvalues --   -0.80255  -0.78892  -0.78450  -0.77356  -0.77063
 Alpha  occ. eigenvalues --   -0.76930  -0.76662  -0.76037  -0.75644  -0.75059
 Alpha  occ. eigenvalues --   -0.74420  -0.72894  -0.72485  -0.71797  -0.71292
 Alpha  occ. eigenvalues --   -0.70133  -0.69432  -0.68983  -0.68619  -0.67760
 Alpha  occ. eigenvalues --   -0.67382  -0.67324  -0.67013  -0.65402  -0.65074
 Alpha  occ. eigenvalues --   -0.64986  -0.64763  -0.64561  -0.64445  -0.64433
 Alpha  occ. eigenvalues --   -0.63911  -0.62439  -0.62108  -0.60557  -0.60110
 Alpha  occ. eigenvalues --   -0.59906  -0.59589  -0.59117  -0.58758  -0.58631
 Alpha  occ. eigenvalues --   -0.58209  -0.57708  -0.57452  -0.57411  -0.56988
 Alpha  occ. eigenvalues --   -0.56416  -0.56109  -0.56024  -0.55729  -0.55631
 Alpha  occ. eigenvalues --   -0.55513  -0.55281  -0.54985  -0.54694  -0.54224
 Alpha  occ. eigenvalues --   -0.53999  -0.53698  -0.53424  -0.53328  -0.53057
 Alpha  occ. eigenvalues --   -0.53016  -0.52947  -0.52854  -0.52712  -0.52668
 Alpha  occ. eigenvalues --   -0.52479  -0.52125  -0.52015  -0.51748  -0.51716
 Alpha  occ. eigenvalues --   -0.51474  -0.51331  -0.51010  -0.50657  -0.50280
 Alpha  occ. eigenvalues --   -0.50207  -0.50021  -0.49761  -0.49622  -0.49515
 Alpha  occ. eigenvalues --   -0.49323  -0.49288  -0.49199  -0.49023  -0.48899
 Alpha  occ. eigenvalues --   -0.48716  -0.48612  -0.48556  -0.48377  -0.48154
 Alpha  occ. eigenvalues --   -0.48024  -0.47818  -0.47411  -0.47374  -0.46937
 Alpha  occ. eigenvalues --   -0.46866  -0.46662  -0.46487  -0.46473  -0.46327
 Alpha  occ. eigenvalues --   -0.46299  -0.46054  -0.45940  -0.45819  -0.45632
 Alpha  occ. eigenvalues --   -0.45369  -0.44808  -0.44701  -0.44630  -0.44319
 Alpha  occ. eigenvalues --   -0.44299  -0.44257  -0.44198  -0.44125  -0.43927
 Alpha  occ. eigenvalues --   -0.43831  -0.43762  -0.43625  -0.43512  -0.43383
 Alpha  occ. eigenvalues --   -0.43157  -0.43137  -0.42883  -0.42825  -0.42791
 Alpha  occ. eigenvalues --   -0.42664  -0.42263  -0.42181  -0.41828  -0.41724
 Alpha  occ. eigenvalues --   -0.41649  -0.41453  -0.41262  -0.41231  -0.41013
 Alpha  occ. eigenvalues --   -0.40941  -0.40736  -0.40725  -0.40514  -0.40475
 Alpha  occ. eigenvalues --   -0.40340  -0.40167  -0.40038  -0.39690  -0.39117
 Alpha  occ. eigenvalues --   -0.38642  -0.38008  -0.37862  -0.37478  -0.37453
 Alpha  occ. eigenvalues --   -0.37372  -0.37020  -0.36966  -0.36867  -0.36611
 Alpha  occ. eigenvalues --   -0.36344  -0.35937  -0.34405  -0.34029  -0.33920
 Alpha  occ. eigenvalues --   -0.33731  -0.33310  -0.32953  -0.31471  -0.31160
 Alpha  occ. eigenvalues --   -0.31057  -0.30743  -0.30131  -0.29827  -0.29556
 Alpha  occ. eigenvalues --   -0.29426  -0.29134  -0.29029  -0.24201  -0.23811
 Alpha  occ. eigenvalues --   -0.21245  -0.20891
 Alpha virt. eigenvalues --   -0.08886  -0.08584  -0.01877  -0.01439  -0.00166
 Alpha virt. eigenvalues --    0.00168   0.02084   0.02379   0.02824   0.03502
 Alpha virt. eigenvalues --    0.04601   0.04957   0.04964   0.05284   0.06060

 Mulliken charges:
               1
     1  Mg   0.838898
     2  C   -0.003041
     3  C   -0.093271
     4  C   -0.046597
     5  C   -0.064068
     6  N   -0.256707
     7  C   -0.052379
     8  C   -0.014082
     9  C   -0.087124
    10  C    0.046235
    11  C    0.104702
    12  C    0.053416
    13  C   -0.071725
    14  H    0.035099
    15  N   -0.433199
    16  C    0.168447
    17  C   -0.176346
    18  C   -0.004098
    19  C    0.148586
    20  C    0.109807
    21  C    0.011431
    22  O   -0.250930
    23  C    0.062391
    24  N   -0.340976
    25  C    0.041274
    26  C   -0.028068
    27  C   -0.023778
    28  C    0.074327
    29  C    0.076147
    30  C    0.035379
    31  C   -0.004517
    32  N   -0.310550
    33  C    0.080398
    34  C   -0.169312
    35  C    0.008580
    36  C    0.082962
    37  C    0.127268
    38  C    0.046205
    39  O   -0.188065
    40  C   -0.005473
    41  C    0.213360
    42  O   -0.258276
    43  O   -0.304403
    44  C    0.157917
    45  H   -0.016976
    46  H   -0.017529
    47  H   -0.041753
    48  H    0.001066
    49  H   -0.003460
    50  H    0.025507
    51  H    0.016492
    52  H    0.017118
    53  H    0.011811
    54  H    0.043182
    55  H    0.018219
    56  H    0.018720
    57  H    0.006378
    58  H    0.027015
    59  H    0.041432
    60  H    0.038027
    61  H    0.035291
    62  H    0.032800
    63  H    0.014924
    64  H    0.009859
    65  H    0.022786
    66  H    0.013193
    67  H    0.005008
    68  H    0.005688
    69  H    0.005247
    70  H    0.006475
    71  H    0.015814
    72  H    0.030747
    73  H    0.048281
    74  H    0.008785
    75  H    0.046099
    76  H    0.035492
    77  H    0.043449
    78  H    0.046582
    79  H    0.052448
    80  Mg   0.837662
    81  C   -0.017448
    82  C   -0.088421
    83  C   -0.044635
    84  C   -0.064160
    85  N   -0.254854
    86  C   -0.050094
    87  C   -0.015016
    88  C   -0.090571
    89  C    0.046094
    90  C    0.114736
    91  C    0.062532
    92  C   -0.077685
    93  H    0.033895
    94  N   -0.423737
    95  C    0.163645
    96  C   -0.174883
    97  C   -0.007192
    98  C    0.152334
    99  C    0.099558
   100  C    0.015589
   101  O   -0.251934
   102  C    0.061301
   103  N   -0.350202
   104  C    0.039273
   105  C   -0.021140
   106  C   -0.033817
   107  C    0.089157
   108  C    0.071172
   109  C    0.034562
   110  C   -0.007416
   111  N   -0.323848
   112  C    0.078159
   113  C   -0.163908
   114  C    0.001339
   115  C    0.096221
   116  C    0.131795
   117  C    0.041180
   118  O   -0.189953
   119  C    0.001419
   120  C    0.211130
   121  O   -0.251044
   122  O   -0.305860
   123  C    0.152216
   124  H   -0.019974
   125  H   -0.014045
   126  H   -0.041221
   127  H   -0.000879
   128  H   -0.004850
   129  H    0.022769
   130  H    0.014145
   131  H    0.018151
   132  H    0.013710
   133  H    0.037239
   134  H    0.021287
   135  H    0.019485
   136  H    0.008344
   137  H    0.025339
   138  H    0.039492
   139  H    0.037730
   140  H    0.036399
   141  H    0.033429
   142  H    0.013206
   143  H    0.013839
   144  H    0.024603
   145  H    0.016861
   146  H    0.013483
   147  H    0.006526
   148  H    0.002194
   149  H    0.011052
   150  H    0.016749
   151  H    0.029568
   152  H    0.045211
   153  H    0.008401
   154  H    0.044926
   155  H    0.033342
   156  H    0.043065
   157  H    0.049835
   158  H    0.053376
 Sum of Mulliken charges =  -0.00000

 Dipole moment (field-independent basis, Debye):
    X=              3.0952    Y=              3.9963    Z=              0.9254  Tot=              5.1388
 Quadrupole moment (field-independent basis, Debye-Ang):
   XX=           -526.1504   YY=           -529.9994   ZZ=           -464.1135
   XY=             15.0669   XZ=            -47.9244   YZ=             24.4295

 Normal termination of Gaussian 16 at Fri Sep  3 21:05:40 2021.
