 Gaussian 16, Revision A.03,
 Gaussian 16:  ES64L-G16RevA.03 25-Dec-2016

 -----------------------------------
 #p cam-b3lyp/Def2SVP td=(nstates=5)
 -----------------------------------

 --------------------------------
 TDDFT excited states in gaussian
 --------------------------------
 Symbolic Z-matrix:
 Charge =  0 Multiplicity = 1

                         Standard orientation:
 ---------------------------------------------------------------------
 Center     Atomic      Atomic             Coordinates (Angstroms)
 Number     Number       Type             X           Y           Z
 ---------------------------------------------------------------------
      1         12           0        4.689751   -0.130645   -0.086121
      2          6           0        4.218805   -3.620778   -0.725959
      3          6           0        5.424937    0.225425   -3.399093
      4          6           0        5.550920    2.856991    0.537613
      5          6           0        5.032475   -0.945696    3.284916
      6          7           0        4.775460   -1.587312   -1.750879
      7          6           0        4.514618   -2.884845   -1.875543
      8          6           0        4.510911   -3.374978   -3.354438
      9          6           0        5.439811   -2.248690   -3.995231
     10          6           0        5.171676   -1.123770   -3.011065
     11          6           0        6.925849   -2.590422   -3.957623
     12          6           0        3.076506   -3.360060   -3.982124
     13          6           0        2.932626   -4.124323   -5.301425
     14          1           0        1.690278   -4.833428   -5.568054
     15          7           0        4.910926    1.417520   -1.293233
     16          6           0        5.191559    1.377931   -2.617983
     17          6           0        5.255371    2.786565   -3.063359
     18          6           0        5.176994    3.650537   -1.852779
     19          6           0        5.236976    2.663120   -0.805503
     20          6           0        5.329177    3.191629   -4.503577
     21          6           0        5.076259    5.131801   -1.668821
     22          8           0        5.254104    5.689700   -0.532294
     23          6           0        4.848439    5.930996   -2.886371
     24          7           0        5.435499    0.804512    1.624720
     25          6           0        5.670683    2.121053    1.644545
     26          6           0        5.925389    2.609260    3.039793
     27          6           0        5.574227    1.387842    4.006527
     28          6           0        5.238024    0.325084    2.931453
     29          6           0        7.352491    3.094904    3.328830
     30          6           0        4.540080    1.654288    5.129008
     31          6           0        3.176691    1.900727    4.522761
     32          7           0        4.465640   -1.918597    1.123857
     33          6           0        4.679951   -2.034369    2.504922
     34          6           0        4.509667   -3.457574    2.850697
     35          6           0        4.222574   -4.077502    1.636155
     36          6           0        4.239931   -3.107500    0.593521
     37          6           0        4.681030   -4.027465    4.143095
     38          6           0        3.929466   -5.337730    0.973003
     39          8           0        3.696083   -6.485191    1.355569
     40          6           0        4.035437   -5.112765   -0.599888
     41          6           0        2.815242   -5.726987   -1.230099
     42          8           0        1.680893   -5.247526   -1.028270
     43          8           0        3.195269   -6.625566   -2.151336
     44          6           0        2.032199   -7.251087   -2.835547
     45          1           0        5.899396    0.417077   -4.363509
     46          1           0        5.745839    3.895100    0.814693
     47          1           0        5.041048   -1.261063    4.329868
     48          1           0        4.956998   -4.357646   -3.508689
     49          1           0        5.106811   -1.966049   -4.993703
     50          1           0        7.112050   -3.495289   -3.379293
     51          1           0        7.409905   -1.733074   -3.489502
     52          1           0        7.334906   -2.651557   -4.966440
     53          1           0        2.844935   -2.351849   -4.325559
     54          1           0        2.339356   -3.730275   -3.268768
     55          1           0        3.789512   -4.774237   -5.481049
     56          1           0        2.963190   -3.403669   -6.118692
     57          1           0        5.539487    2.339683   -5.148947
     58          1           0        6.202798    3.834554   -4.609138
     59          1           0        4.436610    3.728524   -4.825134
     60          1           0        5.662096    5.754493   -3.590187
     61          1           0        4.714558    6.958759   -2.550768
     62          1           0        3.939091    5.579291   -3.374570
     63          1           0        5.281254    3.453451    3.282400
     64          1           0        6.453095    1.019962    4.536555
     65          1           0        7.400187    4.120755    3.694973
     66          1           0        7.939494    2.976918    2.418446
     67          1           0        7.912675    2.476377    4.029568
     68          1           0        4.809296    2.549968    5.687780
     69          1           0        4.455596    0.832559    5.840258
     70          1           0        3.212468    2.958631    4.265096
     71          1           0        2.393355    1.703614    5.255387
     72          1           0        3.047052    1.343529    3.594746
     73          1           0        3.852619   -4.721917    4.282524
     74          1           0        4.688820   -3.259766    4.916516
     75          1           0        5.650962   -4.510063    4.023991
     76          1           0        4.953757   -5.600632   -0.925154
     77          1           0        2.129661   -8.329817   -2.712759
     78          1           0        2.021455   -6.856429   -3.851684
     79          1           0        1.055959   -7.079565   -2.380713
     80         12           0       -4.151628    1.479395    0.501148
     81          6           0       -6.218611   -1.450402    0.349633
     82          6           0       -5.108538    2.138066   -2.705889
     83          6           0       -2.000617    3.811192    0.443461
     84          6           0       -2.506505    0.009736    3.199175
     85          7           0       -5.494998    0.408198   -0.891755
     86          6           0       -6.273168   -0.661080   -0.818034
     87          6           0       -7.219214   -0.853121   -2.033629
     88          6           0       -6.377365   -0.030215   -3.125864
     89          6           0       -5.636218    0.925953   -2.193602
     90          6           0       -5.349166   -0.877611   -3.856658
     91          6           0       -8.632894   -0.214525   -1.797576
     92          6           0       -9.702923   -0.628919   -2.810030
     93          1           0      -11.077668   -0.788112   -2.343966
     94          7           0       -3.985336    3.043581   -0.708920
     95          6           0       -4.452287    3.149550   -1.970669
     96          6           0       -4.054350    4.487223   -2.435899
     97          6           0       -3.172312    5.099160   -1.405241
     98          6           0       -2.997899    3.975580   -0.506777
     99          6           0       -4.571508    5.093489   -3.708065
    100          6           0       -2.573201    6.465224   -1.259842
    101          8           0       -1.644673    6.706269   -0.409803
    102          6           0       -3.039690    7.489717   -2.205519
    103          7           0       -2.358741    1.769116    1.513056
    104          6           0       -1.643149    2.894744    1.343272
    105          6           0       -0.543841    3.002782    2.372954
    106          6           0       -0.822705    1.829958    3.423804
    107          6           0       -2.036532    1.161969    2.741295
    108          6           0        0.882791    2.878329    1.838516
    109          6           0       -0.946578    2.238007    4.917390
    110          6           0       -2.194944    3.065062    5.124626
    111          7           0       -4.423834   -0.288228    1.713358
    112          6           0       -3.604386   -0.728379    2.775829
    113          6           0       -4.127313   -2.038347    3.215103
    114          6           0       -5.209256   -2.282069    2.355755
    115          6           0       -5.338188   -1.209814    1.432097
    116          6           0       -3.577539   -2.849845    4.247263
    117          6           0       -6.265042   -3.207597    2.013102
    118          8           0       -6.700295   -4.248912    2.502956
    119          6           0       -6.887373   -2.770108    0.617499
    120          6           0       -8.385398   -2.781731    0.752844
    121          8           0       -8.957304   -1.983245    1.515701
    122          8           0       -8.907400   -3.579798   -0.196355
    123          6           0      -10.391685   -3.615188   -0.110017
    124          1           0       -5.163928    2.314907   -3.780393
    125          1           0       -1.297796    4.642209    0.537966
    126          1           0       -2.109258   -0.466938    4.097866
    127          1           0       -7.342306   -1.880215   -2.355643
    128          1           0       -7.032026    0.521264   -3.795691
    129          1           0       -5.272630   -1.869490   -3.436590
    130          1           0       -4.409198   -0.350835   -3.756687
    131          1           0       -5.570487   -0.898582   -4.927593
    132          1           0       -8.579897    0.861058   -2.009835
    133          1           0       -8.980056   -0.414703   -0.802561
    134          1           0       -9.394839   -1.498952   -3.402549
    135          1           0       -9.812740    0.171281   -3.545987
    136          1           0       -5.070231    4.345339   -4.336523
    137          1           0       -3.698430    5.401522   -4.293498
    138          1           0       -5.204612    5.965760   -3.532036
    139          1           0       -2.840523    7.159976   -3.222411
    140          1           0       -2.564739    8.419591   -1.886739
    141          1           0       -4.127466    7.582641   -2.112160
    142          1           0       -0.588817    3.954375    2.888262
    143          1           0       -0.014019    1.084393    3.426389
    144          1           0        1.517817    3.750944    2.082155
    145          1           0        0.834504    2.730273    0.767871
    146          1           0        1.424554    1.994070    2.169831
    147          1           0       -0.103834    2.869806    5.208523
    148          1           0       -0.964396    1.391941    5.596256
    149          1           0       -1.874691    4.071302    4.838255
    150          1           0       -2.507858    3.031948    6.166274
    151          1           0       -2.987740    2.761582    4.431073
    152          1           0       -4.410763   -3.218319    4.830740
    153          1           0       -2.876977   -2.289536    4.862923
    154          1           0       -3.076565   -3.614795    3.647966
    155          1           0       -6.538659   -3.479902   -0.133601
    156          1           0      -10.681283   -4.666388   -0.016153
    157          1           0      -10.755849   -3.070012   -1.001042
    158          1           0      -10.852651   -3.189137    0.773409
 ---------------------------------------------------------------------

 SCF Done:  E(RCAM-B3LYP) =  -4069.81138446     A.U. after   19 cycles

 Excitation energies and oscillator strengths:

 Excited State   1:      Singlet-A      1.6461 eV  753.20 nm  f=0.0020  <S**2>=0.000
     309 -> 315       -0.11249
     310 -> 316        0.12257
     311 -> 313       -0.46334
     312 -> 314        0.50820
 This state for optimization and/or second-order correction.
 Total Energy, E(TD-HF/TD-DFT) =  -4069.75089113
 Copying the excited state density for this state as the 1-particle RhoCI density.

 Excited State   2:      Singlet-A      1.7050 eV  727.18 nm  f=0.6930  <S**2>=0.000
     309 -> 315        0.13471
     310 -> 316        0.12184
     311 -> 313        0.50556
     312 -> 314        0.46089

 Excited State   3:      Singlet-A      2.1813 eV  568.40 nm  f=0.0490  <S**2>=0.000
     309 -> 313       -0.26779
     310 -> 314        0.58665
     311 -> 315        0.11025
     312 -> 316       -0.24430

 Excited State   4:      Singlet-A      2.1970 eV  564.33 nm  f=0.1361  <S**2>=0.000
     309 -> 313        0.58199
     310 -> 314        0.26310
     311 -> 315       -0.25631
     312 -> 316       -0.11912

 Excited State   5:      Singlet-A      2.3462 eV  528.45 nm  f=0.0000  <S**2>=0.000
     312 -> 313        0.70664

 The electronic state is 1-A.
 Alpha  occ. eigenvalues --  -46.87879 -46.87431 -19.26309 -19.26167 -19.19047
 Alpha  occ. eigenvalues --  -19.18970 -19.18776 -19.18527 -19.18208 -19.17804
 Alpha  occ. eigenvalues --  -14.42527 -14.42274 -14.41549 -14.41129 -14.39468
 Alpha  occ. eigenvalues --  -14.39130 -14.38669 -14.38357 -10.39110 -10.38894
 Alpha  occ. eigenvalues --  -10.35406 -10.35211 -10.34431 -10.33981 -10.31694
 Alpha  occ. eigenvalues --  -10.31599 -10.31489 -10.31077 -10.30965 -10.30824
 Alpha  occ. eigenvalues --  -10.30652 -10.30584 -10.30310 -10.30155 -10.30119
 Alpha  occ. eigenvalues --  -10.30031 -10.29926 -10.29692 -10.29643 -10.29317
 Alpha  occ. eigenvalues --  -10.29216 -10.29168 -10.28814 -10.28617 -10.28538
 Alpha  occ. eigenvalues --  -10.28526 -10.28422 -10.28187 -10.28182 -10.27955
 Alpha  occ. eigenvalues --  -10.27849 -10.27805 -10.27765 -10.27665 -10.27632
 Alpha  occ. eigenvalues --  -10.27586 -10.27518 -10.27471 -10.27455 -10.27337
 Alpha  occ. eigenvalues --  -10.27291 -10.27257 -10.27248 -10.27203 -10.27146
 Alpha  occ. eigenvalues --  -10.26815 -10.26774 -10.26538 -10.26438 -10.26306
 Alpha  occ. eigenvalues --  -10.26299 -10.26298 -10.26126 -10.25990 -10.25920
 Alpha  occ. eigenvalues --  -10.25843 -10.25696 -10.25531 -10.25494 -10.25120
 Alpha  occ. eigenvalues --  -10.25106 -10.24889 -10.24875 -10.24624 -10.24590
 Alpha  occ. eigenvalues --  -10.24455  -3.16621  -3.16180  -1.91503  -1.91090
 Alpha  occ. eigenvalues --   -1.91062  -1.90931  -1.90651  -1.90488  -1.16658
 Alpha  occ. eigenvalues --   -1.16459  -1.08666  -1.08410  -1.07168  -1.06783
 Alpha  occ. eigenvalues --   -1.06753  -1.06670  -1.04653  -1.04274  -1.03848
 Alpha  occ. eigenvalues --   -1.03436  -1.03310  -1.02805  -1.02491  -1.01878
 Alpha  occ. eigenvalues --   -0.92037  -0.91755  -0.89670  -0.89280  -0.89259
 Alpha  occ. eigenvalues --   -0.88963  -0.88424  -0.88004  -0.87939  -0.87753
 Alpha  occ. eigenvalues --   -0.87523  -0.87462  -0.87298  -0.86936  -0.85050
 Alpha  occ. eigenvalues --   -0.84807  -0.84108  -0.83670  -0.82999  -0.82765
 Alpha  occ. eigenvalues --   -0.82693  -0.82467  -0.81643  -0.81387  -0.80652
 Alpha  occ. eigenvalues --   -0.80235  -0.78845  -0.78423  -0.77328  -0.77022
 Alpha  occ. eigenvalues --   -0.76941  -0.76702  -0.75991  -0.75638  -0.75019
 Alpha  occ. eigenvalues --   -0.74585  -0.72861  -0.72463  -0.71750  -0.71371
 Alpha  occ. eigenvalues --   -0.70170  -0.69529  -0.68935  -0.68634  -0.67699
 Alpha  occ. eigenvalues --   -0.67385  -0.67264  -0.67025  -0.65364  -0.65076
 Alpha  occ. eigenvalues --   -0.64939  -0.64713  -0.64554  -0.64455  -0.64397
 Alpha  occ. eigenvalues --   -0.63996  -0.62359  -0.62077  -0.60497  -0.60139
 Alpha  occ. eigenvalues --   -0.59871  -0.59592  -0.59070  -0.58768  -0.58580
 Alpha  occ. eigenvalues --   -0.58207  -0.57638  -0.57393  -0.57326  -0.57022
 Alpha  occ. eigenvalues --   -0.56368  -0.56024  -0.55983  -0.55697  -0.55565
 Alpha  occ. eigenvalues --   -0.55459  -0.55255  -0.55034  -0.54633  -0.54285
 Alpha  occ. eigenvalues --   -0.53963  -0.53727  -0.53374  -0.53250  -0.53027
 Alpha  occ. eigenvalues --   -0.52993  -0.52946  -0.52788  -0.52712  -0.52642
 Alpha  occ. eigenvalues --   -0.52509  -0.52229  -0.51987  -0.51659  -0.51573
 Alpha  occ. eigenvalues --   -0.51475  -0.51296  -0.50983  -0.50589  -0.50325
 Alpha  occ. eigenvalues --   -0.50193  -0.49951  -0.49801  -0.49687  -0.49546
 Alpha  occ. eigenvalues --   -0.49303  -0.49261  -0.49157  -0.48999  -0.48892
 Alpha  occ. eigenvalues --   -0.48663  -0.48549  -0.48445  -0.48347  -0.48171
 Alpha  occ. eigenvalues --   -0.48146  -0.47767  -0.47409  -0.47355  -0.46983
 Alpha  occ. eigenvalues --   -0.46888  -0.46622  -0.46515  -0.46438  -0.46367
 Alpha  occ. eigenvalues --   -0.46278  -0.46046  -0.45911  -0.45833  -0.45596
 Alpha  occ. eigenvalues --   -0.45331  -0.45082  -0.44620  -0.44529  -0.44329
 Alpha  occ. eigenvalues --   -0.44283  -0.44206  -0.44144  -0.44047  -0.43924
 Alpha  occ. eigenvalues --   -0.43882  -0.43739  -0.43562  -0.43471  -0.43352
 Alpha  occ. eigenvalues --   -0.43167  -0.43105  -0.42851  -0.42725  -0.42721
 Alpha  occ. eigenvalues --   -0.42661  -0.42358  -0.42135  -0.41781  -0.41762
 Alpha  occ. eigenvalues --   -0.41608  -0.41448  -0.41273  -0.41215  -0.40966
 Alpha  occ. eigenvalues --   -0.40812  -0.40785  -0.40669  -0.40548  -0.40522
 Alpha  occ. eigenvalues --   -0.40292  -0.40264  -0.40064  -0.39650  -0.39233
 Alpha  occ. eigenvalues --   -0.38594  -0.38124  -0.37822  -0.37477  -0.37435
 Alpha  occ. eigenvalues --   -0.37330  -0.37041  -0.36994  -0.36773  -0.36574
 Alpha  occ. eigenvalues --   -0.36269  -0.36004  -0.34365  -0.34023  -0.33805
 Alpha  occ. eigenvalues --   -0.33664  -0.33261  -0.32946  -0.31317  -0.31100
 Alpha  occ. eigenvalues --   -0.31084  -0.30747  -0.30070  -0.29708  -0.29492
 Alpha  occ. eigenvalues --   -0.29381  -0.29113  -0.28955  -0.24163  -0.23803
 Alpha  occ. eigenvalues --   -0.21207  -0.20888
 Alpha virt. eigenvalues --   -0.08837  -0.08563  -0.01826  -0.01465  -0.00076
 Alpha virt. eigenvalues --    0.00171   0.02138   0.02452   0.02790   0.03481
 Alpha virt. eigenvalues --    0.04635   0.04933   0.05064   0.05364   0.06065

 Mulliken charges:
               1
     1  Mg   0.834958
     2  C   -0.002505
     3  C   -0.094014
     4  C   -0.047447
     5  C   -0.063948
     6  N   -0.256569
     7  C   -0.052603
     8  C   -0.013909
     9  C   -0.087078
    10  C    0.046620
    11  C    0.104775
    12  C    0.053533
    13  C   -0.071638
    14  H    0.035760
    15  N   -0.433560
    16  C    0.169320
    17  C   -0.177088
    18  C   -0.002851
    19  C    0.150124
    20  C    0.110356
    21  C    0.014845
    22  O   -0.248554
    23  C    0.061934
    24  N   -0.341039
    25  C    0.041576
    26  C   -0.028416
    27  C   -0.023657
    28  C    0.072830
    29  C    0.076080
    30  C    0.045434
    31  C   -0.032679
    32  N   -0.310022
    33  C    0.077639
    34  C   -0.170110
    35  C    0.008219
    36  C    0.082945
    37  C    0.127368
    38  C    0.046149
    39  O   -0.187929
    40  C   -0.005421
    41  C    0.212975
    42  O   -0.256876
    43  O   -0.304860
    44  C    0.157469
    45  H   -0.017445
    46  H   -0.016695
    47  H   -0.042497
    48  H    0.001121
    49  H   -0.004153
    50  H    0.025682
    51  H    0.016547
    52  H    0.016749
    53  H    0.010961
    54  H    0.044356
    55  H    0.018116
    56  H    0.017584
    57  H    0.005499
    58  H    0.027127
    59  H    0.039933
    60  H    0.036195
    61  H    0.037558
    62  H    0.032703
    63  H    0.016104
    64  H    0.010111
    65  H    0.023705
    66  H    0.013213
    67  H    0.004941
    68  H    0.006498
    69  H    0.002949
    70  H    0.011515
    71  H    0.022159
    72  H    0.042372
    73  H    0.047498
    74  H    0.008314
    75  H    0.046382
    76  H    0.035323
    77  H    0.043362
    78  H    0.046032
    79  H    0.054181
    80  Mg   0.838360
    81  C   -0.016683
    82  C   -0.088388
    83  C   -0.047072
    84  C   -0.062380
    85  N   -0.254460
    86  C   -0.049172
    87  C   -0.015145
    88  C   -0.090627
    89  C    0.045876
    90  C    0.114601
    91  C    0.062642
    92  C   -0.077532
    93  H    0.034386
    94  N   -0.423225
    95  C    0.162666
    96  C   -0.175974
    97  C   -0.008419
    98  C    0.151608
    99  C    0.100025
   100  C    0.014361
   101  O   -0.252563
   102  C    0.061448
   103  N   -0.349685
   104  C    0.038851
   105  C   -0.027103
   106  C   -0.030915
   107  C    0.087011
   108  C    0.083549
   109  C    0.026904
   110  C   -0.004060
   111  N   -0.324620
   112  C    0.079214
   113  C   -0.160891
   114  C    0.003001
   115  C    0.096732
   116  C    0.131083
   117  C    0.043373
   118  O   -0.187434
   119  C    0.000572
   120  C    0.211075
   121  O   -0.251399
   122  O   -0.305503
   123  C    0.152195
   124  H   -0.021033
   125  H   -0.014802
   126  H   -0.040057
   127  H   -0.000685
   128  H   -0.005144
   129  H    0.023493
   130  H    0.014406
   131  H    0.014801
   132  H    0.013721
   133  H    0.037655
   134  H    0.020593
   135  H    0.019141
   136  H    0.008093
   137  H    0.024153
   138  H    0.039168
   139  H    0.036763
   140  H    0.036082
   141  H    0.033779
   142  H    0.013564
   143  H    0.013251
   144  H    0.031705
   145  H    0.009174
   146  H   -0.003760
   147  H    0.010197
   148  H    0.002941
   149  H    0.010296
   150  H    0.016771
   151  H    0.030148
   152  H    0.045069
   153  H    0.007582
   154  H    0.052355
   155  H    0.036015
   156  H    0.043735
   157  H    0.049084
   158  H    0.053331
 Sum of Mulliken charges =  -0.00000

 Dipole moment (field-independent basis, Debye):
    X=              2.8012    Y=              3.0879    Z=             -7.7684  Tot=              8.8165
 Quadrupole moment (field-independent basis, Debye-Ang):
   XX=           -494.8882   YY=           -558.4506   ZZ=           -449.6118
   XY=            -17.7223   XZ=             29.8931   YZ=             12.3260

 Normal termination of Gaussian 16 at Fri Sep 10 05:18:22 2021.
