 Gaussian 16, Revision A.03,
 Gaussian 16:  ES64L-G16RevA.03 25-Dec-2016

 -----------------------------------
 #p cam-b3lyp/Def2SVP td=(nstates=5)
 -----------------------------------

 --------------------------------
 TDDFT excited states in gaussian
 --------------------------------
 Symbolic Z-matrix:
 Charge =  0 Multiplicity = 1

                         Standard orientation:
 ---------------------------------------------------------------------
 Center     Atomic      Atomic             Coordinates (Angstroms)
 Number     Number       Type             X           Y           Z
 ---------------------------------------------------------------------
      1         12           0       -7.860121   -0.735883    0.057344
      2          6           0       -8.044668    2.811631    0.496997
      3          6           0       -8.723926   -0.226976   -3.204238
      4          6           0       -8.147623   -3.879656   -0.243754
      5          6           0       -8.132083   -1.030713    3.519247
      6          7           0       -8.300329    1.105404   -1.090054
      7          6           0       -8.277710    2.406669   -0.819188
      8          6           0       -8.450226    3.303559   -2.081408
      9          6           0       -9.206220    2.265534   -3.026382
     10          6           0       -8.686295    0.969903   -2.428934
     11          6           0      -10.723916    2.300391   -2.878449
     12          6           0       -7.076430    3.739787   -2.693062
     13          6           0       -7.149156    4.872390   -3.721300
     14          1           0       -6.068108    5.845216   -3.769199
     15          7           0       -7.881816   -1.871449   -1.559094
     16          6           0       -8.245815   -1.494915   -2.808498
     17          6           0       -8.090421   -2.695596   -3.657555
     18          6           0       -7.788562   -3.848520   -2.764392
     19          6           0       -7.955289   -3.243297   -1.467748
     20          6           0       -8.180763   -2.663584   -5.152401
     21          6           0       -7.420175   -5.272765   -3.036330
     22          8           0       -7.428003   -6.164218   -2.119910
     23          6           0       -7.131744   -5.620276   -4.439571
     24          7           0       -8.325098   -2.255437    1.411000
     25          6           0       -8.325624   -3.538820    1.034289
     26          6           0       -8.405256   -4.455545    2.218862
     27          6           0       -8.213630   -3.531275    3.506790
     28          6           0       -8.134365   -2.155486    2.800255
     29          6           0       -9.705438   -5.259631    2.356637
     30          6           0       -7.081970   -3.921603    4.490359
     31          6           0       -5.736312   -3.721843    3.829755
     32          7           0       -7.877145    0.624152    1.748811
     33          6           0       -8.023185    0.285236    3.101764
     34          6           0       -8.082592    1.548649    3.859607
     35          6           0       -7.982991    2.541458    2.886851
     36          6           0       -7.895021    1.936909    1.600354
     37          6           0       -8.270989    1.669533    5.264715
     38          6           0       -7.955207    3.972743    2.632865
     39          8           0       -7.902298    4.978463    3.342245
     40          6           0       -8.116684    4.206821    1.066034
     41          6           0       -7.063188    5.193991    0.643009
     42          8           0       -5.852434    4.894383    0.683959
     43          8           0       -7.649778    6.238209    0.037978
     44          6           0       -6.657707    7.241372   -0.432778
     45          1           0       -9.216011   -0.209407   -4.178654
     46          1           0       -8.141303   -4.970582   -0.291467
     47          1           0       -8.131330   -1.045281    4.610686
     48          1           0       -9.069322    4.187891   -1.929417
     49          1           0       -8.890978    2.356952   -4.065606
     50          1           0      -11.029085    2.943423   -2.053038
     51          1           0      -11.021528    1.269103   -2.687751
     52          1           0      -11.198496    2.580107   -3.819358
     53          1           0       -6.694250    2.938887   -3.325959
     54          1           0       -6.372696    4.012248   -1.905756
     55          1           0       -8.115560    5.376450   -3.691358
     56          1           0       -7.103783    4.432581   -4.717648
     57          1           0       -8.575502   -1.713215   -5.509507
     58          1           0       -8.933803   -3.396376   -5.441636
     59          1           0       -7.229742   -2.907100   -5.626313
     60          1           0       -8.005344   -5.397194   -5.052439
     61          1           0       -6.800494   -6.658081   -4.430363
     62          1           0       -6.329289   -4.978518   -4.804483
     63          1           0       -7.610226   -5.199597    2.191671
     64          1           0       -9.108943   -3.505230    4.128408
     65          1           0       -9.551099   -6.338187    2.396641
     66          1           0      -10.358766   -4.988548    1.527801
     67          1           0      -10.320750   -4.990210    3.214670
     68          1           0       -7.156197   -4.975929    4.754621
     69          1           0       -7.098470   -3.345782    5.415783
     70          1           0       -5.602956   -4.644017    3.265269
     71          1           0       -4.955842   -3.608810    4.582949
     72          1           0       -5.762942   -2.901528    3.112218
     73          1           0       -7.569281    2.432277    5.602054
     74          1           0       -8.097417    0.720050    5.770638
     75          1           0       -9.315626    1.978008    5.302585
     76          1           0       -9.124166    4.590649    0.908621
     77          1           0       -6.933914    8.198300    0.010203
     78          1           0       -6.640741    7.173506   -1.520671
     79          1           0       -5.640470    7.126509   -0.056780
     80         12           0        8.022154   -0.819139    0.092182
     81          6           0        7.835368    2.764707    0.077737
     82          6           0        7.154274   -0.728658   -3.205266
     83          6           0        7.737750   -3.977997    0.182700
     84          6           0        7.746407   -0.680961    3.563576
     85          7           0        7.579027    0.861624   -1.275633
     86          6           0        7.599796    2.182898   -1.185375
     87          6           0        7.433827    2.922798   -2.539828
     88          6           0        6.670003    1.767629   -3.352859
     89          6           0        7.189053    0.549210   -2.592120
     90          6           0        5.159287    1.820147   -3.196907
     91          6           0        8.812358    3.275292   -3.201213
     92          6           0        8.732639    4.265152   -4.365503
     93          1           0        9.819872    5.224426   -4.539206
     94          7           0        8.002754   -2.149561   -1.380282
     95          6           0        7.644506   -1.937391   -2.663995
     96          6           0        7.783959   -3.236240   -3.340542
     97          6           0        8.095469   -4.268415   -2.314727
     98          6           0        7.933338   -3.492018   -1.101867
     99          6           0        7.701351   -3.390128   -4.831489
    100          6           0        8.464162   -5.718011   -2.409148
    101          8           0        8.458209   -6.482688   -1.380526
    102          6           0        8.741744   -6.237476   -3.756220
    103          7           0        7.565605   -2.150431    1.622399
    104          6           0        7.559290   -3.477381    1.405338
    105          6           0        7.477342   -4.242291    2.704794
    106          6           0        7.674565   -3.152165    3.858185
    107          6           0        7.750638   -1.876693    2.990559
    108          6           0        6.176255   -5.007602    2.945316
    109          6           0        8.807471   -3.414249    4.888004
    110          6           0       10.154889   -3.311642    4.210257
    111          7           0        8.011123    0.737103    1.590862
    112          6           0        7.858885    0.577086    2.985603
    113          6           0        7.800419    1.930342    3.575268
    114          6           0        7.900354    2.790683    2.471492
    115          6           0        7.992834    2.027522    1.276276
    116          6           0        7.623223    2.229357    4.955604
    117          6           0        7.937944    4.170949    2.044711
    118          8           0        7.984237    5.257284    2.620443
    119          6           0        7.770267    4.216119    0.464760
    120          6           0        8.823713    5.136558   -0.088011
    121          8           0       10.029140    4.844589    0.003176
    122          8           0        8.229917    6.096271   -0.820633
    123          6           0        9.234693    7.027651   -1.399232
    124          1           0        6.667797   -0.825117   -4.176308
    125          1           0        7.743601   -5.065988    0.281181
    126          1           0        7.759784   -0.553310    4.648106
    127          1           0        6.821072    3.815280   -2.497809
    128          1           0        6.992665    1.735321   -4.390265
    129          1           0        4.854892    2.556177   -2.467695
    130          1           0        4.861529    0.828902   -2.880951
    131          1           0        4.685317    1.981592   -4.169337
    132          1           0        9.191516    2.392030   -3.731153
    133          1           0        9.506026    3.636209   -2.466915
    134          1           0        7.761469    4.772965   -4.409037
    135          1           0        8.784053    3.704336   -5.301908
    136          1           0        7.299375   -2.487179   -5.307414
    137          1           0        6.949211   -4.160754   -5.032217
    138          1           0        8.650056   -3.697855   -5.276385
    139          1           0        7.869324   -6.087813   -4.387841
    140          1           0        9.073608   -7.267170   -3.609694
    141          1           0        9.554279   -5.649444   -4.197367
    142          1           0        8.272636   -4.974334    2.773438
    143          1           0        6.775224   -3.053534    4.483714
    144          1           0        6.331987   -6.088691    3.121606
    145          1           0        5.525835   -4.850781    2.095083
    146          1           0        5.569841   -4.639471    3.771109
    147          1           0        8.734314   -4.431334    5.280858
    148          1           0        8.784508   -2.738789    5.736660
    149          1           0       10.282210   -4.302007    3.762985
    150          1           0       10.935633   -3.104496    4.939340
    151          1           0       10.129744   -2.581581    3.392928
    152          1           0        8.318093    3.023666    5.193797
    153          1           0        7.792215    1.352549    5.577219
    154          1           0        6.573951    2.536415    4.955517
    155          1           0        6.761960    4.573601    0.252414
    156          1           0        8.955499    8.036787   -1.080833
    157          1           0        9.238017    6.825455   -2.486822
    158          1           0       10.250796    6.962321   -1.028121
 ---------------------------------------------------------------------

 SCF Done:  E(RCAM-B3LYP) =  -4069.81166709     A.U. after   19 cycles

 Excitation energies and oscillator strengths:

 Excited State   1:      Singlet-A      1.6698 eV  742.49 nm  f=0.0195  <S**2>=0.000
     309 -> 315       -0.10424
     310 -> 316        0.13737
     311 -> 313       -0.41342
     312 -> 314        0.54787
 This state for optimization and/or second-order correction.
 Total Energy, E(TD-HF/TD-DFT) =  -4069.75030159
 Copying the excited state density for this state as the 1-particle RhoCI density.

 Excited State   2:      Singlet-A      1.6852 eV  735.72 nm  f=0.7368  <S**2>=0.000
     309 -> 315        0.14123
     310 -> 316        0.10602
     311 -> 313        0.54705
     312 -> 314        0.41289

 Excited State   3:      Singlet-A      2.1854 eV  567.32 nm  f=0.0577  <S**2>=0.000
     309 -> 313       -0.14074
     310 -> 314        0.62714
     312 -> 316       -0.26608

 Excited State   4:      Singlet-A      2.1928 eV  565.42 nm  f=0.1357  <S**2>=0.000
     309 -> 313        0.62517
     310 -> 314        0.13966
     311 -> 315       -0.27176

 Excited State   5:      Singlet-A      2.7651 eV  448.39 nm  f=0.0000  <S**2>=0.000
     312 -> 313        0.70710

 The electronic state is 1-A.
 Alpha  occ. eigenvalues --  -46.87834 -46.87588 -19.26307 -19.26279 -19.19091
 Alpha  occ. eigenvalues --  -19.19044 -19.18857 -19.18656 -19.18196 -19.17969
 Alpha  occ. eigenvalues --  -14.42488 -14.42426 -14.41486 -14.41287 -14.39441
 Alpha  occ. eigenvalues --  -14.39281 -14.38622 -14.38525 -10.39104 -10.39019
 Alpha  occ. eigenvalues --  -10.35491 -10.35334 -10.34416 -10.34146 -10.31698
 Alpha  occ. eigenvalues --  -10.31694 -10.31441 -10.31235 -10.30956 -10.30949
 Alpha  occ. eigenvalues --  -10.30605 -10.30542 -10.30324 -10.30286 -10.30245
 Alpha  occ. eigenvalues --  -10.30073 -10.29953 -10.29819 -10.29667 -10.29368
 Alpha  occ. eigenvalues --  -10.29330 -10.29293 -10.28792 -10.28653 -10.28610
 Alpha  occ. eigenvalues --  -10.28595 -10.28402 -10.28333 -10.28158 -10.28072
 Alpha  occ. eigenvalues --  -10.27927 -10.27828 -10.27766 -10.27623 -10.27600
 Alpha  occ. eigenvalues --  -10.27533 -10.27533 -10.27480 -10.27449 -10.27440
 Alpha  occ. eigenvalues --  -10.27419 -10.27411 -10.27398 -10.27306 -10.27187
 Alpha  occ. eigenvalues --  -10.26968 -10.26757 -10.26638 -10.26462 -10.26371
 Alpha  occ. eigenvalues --  -10.26271 -10.26214 -10.26076 -10.26055 -10.25946
 Alpha  occ. eigenvalues --  -10.25865 -10.25862 -10.25758 -10.25463 -10.25324
 Alpha  occ. eigenvalues --  -10.24866 -10.24823 -10.24797 -10.24720 -10.24674
 Alpha  occ. eigenvalues --  -10.24618  -3.16577  -3.16338  -1.91459  -1.91220
 Alpha  occ. eigenvalues --   -1.91045  -1.90888  -1.90809  -1.90646  -1.16656
 Alpha  occ. eigenvalues --   -1.16573  -1.08652  -1.08575  -1.07258  -1.06909
 Alpha  occ. eigenvalues --   -1.06875  -1.06666  -1.04619  -1.04424  -1.03797
 Alpha  occ. eigenvalues --   -1.03591  -1.03270  -1.02966  -1.02447  -1.02038
 Alpha  occ. eigenvalues --   -0.92006  -0.91912  -0.89553  -0.89425  -0.89230
 Alpha  occ. eigenvalues --   -0.89084  -0.88320  -0.88151  -0.87902  -0.87714
 Alpha  occ. eigenvalues --   -0.87712  -0.87615  -0.87317  -0.87060  -0.85024
 Alpha  occ. eigenvalues --   -0.84934  -0.83968  -0.83808  -0.83010  -0.82874
 Alpha  occ. eigenvalues --   -0.82688  -0.82588  -0.81616  -0.81526  -0.80631
 Alpha  occ. eigenvalues --   -0.80374  -0.78837  -0.78569  -0.77256  -0.77078
 Alpha  occ. eigenvalues --   -0.76970  -0.76831  -0.75958  -0.75769  -0.74930
 Alpha  occ. eigenvalues --   -0.74733  -0.72809  -0.72626  -0.71707  -0.71509
 Alpha  occ. eigenvalues --   -0.69940  -0.69692  -0.68913  -0.68762  -0.67677
 Alpha  occ. eigenvalues --   -0.67532  -0.67265  -0.67141  -0.65326  -0.65204
 Alpha  occ. eigenvalues --   -0.64887  -0.64700  -0.64656  -0.64585  -0.64303
 Alpha  occ. eigenvalues --   -0.64135  -0.62326  -0.62208  -0.60482  -0.60275
 Alpha  occ. eigenvalues --   -0.59844  -0.59727  -0.59022  -0.58921  -0.58538
 Alpha  occ. eigenvalues --   -0.58354  -0.57613  -0.57477  -0.57342  -0.57167
 Alpha  occ. eigenvalues --   -0.56345  -0.56134  -0.56008  -0.55820  -0.55558
 Alpha  occ. eigenvalues --   -0.55387  -0.55369  -0.55177  -0.54552  -0.54419
 Alpha  occ. eigenvalues --   -0.53937  -0.53847  -0.53336  -0.53262  -0.53160
 Alpha  occ. eigenvalues --   -0.53076  -0.52948  -0.52835  -0.52800  -0.52611
 Alpha  occ. eigenvalues --   -0.52470  -0.52337  -0.51942  -0.51799  -0.51659
 Alpha  occ. eigenvalues --   -0.51596  -0.51228  -0.51129  -0.50620  -0.50421
 Alpha  occ. eigenvalues --   -0.50067  -0.49960  -0.49915  -0.49801  -0.49555
 Alpha  occ. eigenvalues --   -0.49424  -0.49250  -0.49133  -0.49133  -0.49032
 Alpha  occ. eigenvalues --   -0.48625  -0.48497  -0.48487  -0.48479  -0.48305
 Alpha  occ. eigenvalues --   -0.48276  -0.47733  -0.47530  -0.47334  -0.47054
 Alpha  occ. eigenvalues --   -0.46833  -0.46640  -0.46597  -0.46490  -0.46394
 Alpha  occ. eigenvalues --   -0.46201  -0.46193  -0.46012  -0.45850  -0.45747
 Alpha  occ. eigenvalues --   -0.45234  -0.45139  -0.44609  -0.44548  -0.44443
 Alpha  occ. eigenvalues --   -0.44410  -0.44180  -0.44128  -0.44057  -0.44054
 Alpha  occ. eigenvalues --   -0.44013  -0.43874  -0.43524  -0.43484  -0.43424
 Alpha  occ. eigenvalues --   -0.43316  -0.43061  -0.42861  -0.42827  -0.42728
 Alpha  occ. eigenvalues --   -0.42684  -0.42488  -0.42044  -0.41899  -0.41738
 Alpha  occ. eigenvalues --   -0.41595  -0.41575  -0.41395  -0.41177  -0.40918
 Alpha  occ. eigenvalues --   -0.40910  -0.40867  -0.40664  -0.40636  -0.40605
 Alpha  occ. eigenvalues --   -0.40425  -0.40283  -0.40170  -0.39474  -0.39361
 Alpha  occ. eigenvalues --   -0.38504  -0.38283  -0.37793  -0.37594  -0.37355
 Alpha  occ. eigenvalues --   -0.37305  -0.37197  -0.37132  -0.36740  -0.36702
 Alpha  occ. eigenvalues --   -0.36224  -0.36148  -0.34322  -0.34181  -0.33797
 Alpha  occ. eigenvalues --   -0.33792  -0.33222  -0.33104  -0.31386  -0.31214
 Alpha  occ. eigenvalues --   -0.31072  -0.30902  -0.30054  -0.29873  -0.29487
 Alpha  occ. eigenvalues --   -0.29356  -0.29258  -0.29135  -0.24117  -0.23963
 Alpha  occ. eigenvalues --   -0.21164  -0.21045
 Alpha virt. eigenvalues --   -0.08811  -0.08720  -0.01787  -0.01613  -0.00098
 Alpha virt. eigenvalues --    0.00037   0.02169   0.02285   0.03077   0.03291
 Alpha virt. eigenvalues --    0.04678   0.04798   0.05072   0.05237   0.06132

 Mulliken charges:
               1
     1  Mg   0.838651
     2  C   -0.002981
     3  C   -0.094301
     4  C   -0.045868
     5  C   -0.063912
     6  N   -0.256789
     7  C   -0.052488
     8  C   -0.013974
     9  C   -0.086972
    10  C    0.046251
    11  C    0.104809
    12  C    0.053540
    13  C   -0.071707
    14  H    0.035948
    15  N   -0.433135
    16  C    0.168322
    17  C   -0.177305
    18  C   -0.004075
    19  C    0.148665
    20  C    0.110215
    21  C    0.012226
    22  O   -0.249534
    23  C    0.062536
    24  N   -0.341133
    25  C    0.041220
    26  C   -0.028203
    27  C   -0.023978
    28  C    0.074843
    29  C    0.076148
    30  C    0.035116
    31  C   -0.004504
    32  N   -0.310519
    33  C    0.080456
    34  C   -0.169586
    35  C    0.008468
    36  C    0.083013
    37  C    0.127278
    38  C    0.046244
    39  O   -0.188087
    40  C   -0.005400
    41  C    0.212963
    42  O   -0.257109
    43  O   -0.304805
    44  C    0.157600
    45  H   -0.017671
    46  H   -0.016795
    47  H   -0.041364
    48  H    0.001056
    49  H   -0.004219
    50  H    0.025564
    51  H    0.016492
    52  H    0.016636
    53  H    0.010886
    54  H    0.044139
    55  H    0.018054
    56  H    0.017709
    57  H    0.005782
    58  H    0.026862
    59  H    0.039142
    60  H    0.037367
    61  H    0.035664
    62  H    0.031150
    63  H    0.016570
    64  H    0.009554
    65  H    0.023269
    66  H    0.012550
    67  H    0.004821
    68  H    0.006440
    69  H    0.004805
    70  H    0.008798
    71  H    0.018118
    72  H    0.028911
    73  H    0.047806
    74  H    0.009161
    75  H    0.046112
    76  H    0.035226
    77  H    0.043192
    78  H    0.046206
    79  H    0.053862
    80  Mg   0.837968
    81  C   -0.016793
    82  C   -0.087831
    83  C   -0.045501
    84  C   -0.064711
    85  N   -0.254543
    86  C   -0.049638
    87  C   -0.015117
    88  C   -0.090559
    89  C    0.045809
    90  C    0.114381
    91  C    0.062568
    92  C   -0.077754
    93  H    0.034688
    94  N   -0.423473
    95  C    0.162890
    96  C   -0.174776
    97  C   -0.007892
    98  C    0.152075
    99  C    0.099455
   100  C    0.015478
   101  O   -0.253264
   102  C    0.061246
   103  N   -0.350043
   104  C    0.037554
   105  C   -0.019827
   106  C   -0.034881
   107  C    0.089037
   108  C    0.073637
   109  C    0.034735
   110  C   -0.007646
   111  N   -0.324192
   112  C    0.078564
   113  C   -0.162908
   114  C    0.002477
   115  C    0.096237
   116  C    0.131426
   117  C    0.042655
   118  O   -0.187567
   119  C    0.000823
   120  C    0.211196
   121  O   -0.251180
   122  O   -0.305488
   123  C    0.152082
   124  H   -0.019974
   125  H   -0.015668
   126  H   -0.040347
   127  H   -0.000467
   128  H   -0.004687
   129  H    0.023127
   130  H    0.014596
   131  H    0.015818
   132  H    0.013793
   133  H    0.037669
   134  H    0.020794
   135  H    0.019354
   136  H    0.008513
   137  H    0.025884
   138  H    0.039550
   139  H    0.038112
   140  H    0.036240
   141  H    0.033777
   142  H    0.014242
   143  H    0.012619
   144  H    0.024962
   145  H    0.011834
   146  H    0.005781
   147  H    0.006162
   148  H    0.003693
   149  H    0.010843
   150  H    0.017827
   151  H    0.030115
   152  H    0.045949
   153  H    0.008407
   154  H    0.047726
   155  H    0.035618
   156  H    0.043966
   157  H    0.049306
   158  H    0.053470
 Sum of Mulliken charges =  -0.00000

 Dipole moment (field-independent basis, Debye):
    X=             -4.0344    Y=             -2.3314    Z=             -7.6373  Tot=              8.9465
 Quadrupole moment (field-independent basis, Debye-Ang):
   XX=           -517.5463   YY=           -551.3168   ZZ=           -447.7056
   XY=             -8.5088   XZ=              1.3305   YZ=            -48.1799

 Normal termination of Gaussian 16 at Sun Sep 12 05:57:04 2021.
