 Gaussian 16, Revision A.03,
 Gaussian 16:  ES64L-G16RevA.03 25-Dec-2016

 -----------------------------------
 #p cam-b3lyp/Def2SVP td=(nstates=5)
 -----------------------------------

 --------------------------------
 TDDFT excited states in gaussian
 --------------------------------
 Symbolic Z-matrix:
 Charge =  0 Multiplicity = 1

                         Standard orientation:
 ---------------------------------------------------------------------
 Center     Atomic      Atomic             Coordinates (Angstroms)
 Number     Number       Type             X           Y           Z
 ---------------------------------------------------------------------
      1         12           0        8.045153   -0.607359    0.681357
      2          6           0        8.409081    2.286011   -1.394258
      3          6           0        8.685121    1.413669    3.355109
      4          6           0        8.178622   -3.214459    2.481868
      5          6           0        8.560595   -2.538389   -2.173657
      6          7           0        8.475213    1.558881    0.833345
      7          6           0        8.526846    2.567293   -0.031299
      8          6           0        8.642416    3.962328    0.652730
      9          6           0        9.282454    3.509695    2.041064
     10          6           0        8.754865    2.086961    2.099384
     11          6           0       10.807076    3.467883    2.024246
     12          6           0        7.246366    4.640566    0.859538
     13          6           0        7.289654    6.128970    1.217494
     14          1           0        6.249401    7.004445    0.699068
     15          7           0        7.899705   -0.820536    2.639992
     16          6           0        8.185387    0.112619    3.579616
     17          6           0        7.917689   -0.528257    4.885103
     18          6           0        7.635237   -1.969057    4.635288
     19          6           0        7.922667   -2.065790    3.226954
     20          6           0        7.898185    0.222010    6.181433
     21          6           0        7.188821   -3.084404    5.526830
     22          8           0        7.227527   -4.307693    5.157181
     23          6           0        6.782934   -2.710466    6.893749
     24          7           0        8.545671   -2.592085    0.271502
     25          6           0        8.464918   -3.533686    1.217995
     26          6           0        8.594002   -4.908709    0.632685
     27          6           0        8.536991   -4.721699   -0.952096
     28          6           0        8.462802   -3.175739   -1.004774
     29          6           0        9.866274   -5.680000    1.010104
     30          6           0        7.466141   -5.538052   -1.718429
     31          6           0        6.084669   -5.043209   -1.352691
     32          7           0        8.244074   -0.233931   -1.447498
     33          6           0        8.475828   -1.184469   -2.452208
     34          6           0        8.643728   -0.444544   -3.716482
     35          6           0        8.513618    0.894757   -3.354279
     36          6           0        8.305439    0.987132   -1.948427
     37          6           0        8.940664   -1.017743   -4.984435
     38          6           0        8.526589    2.270609   -3.824087
     39          8           0        8.568276    2.808400   -4.931578
     40          6           0        8.581022    3.232531   -2.556187
     41          6           0        7.540999    4.301806   -2.751927
     42          8           0        6.325213    4.020386   -2.746343
     43          8           0        8.124002    5.508051   -2.676936
     44          6           0        7.142306    6.614356   -2.833514
     45          1           0        9.103897    1.899601    4.238534
     46          1           0        8.123444   -4.146526    3.048123
     47          1           0        8.640175   -3.078513   -3.118848
     48          1           0        9.307297    4.662788    0.147050
     49          1           0        8.895090    4.092050    2.876847
     50          1           0       11.199075    3.631869    1.020570
     51          1           0       11.074888    2.472664    2.379645
     52          1           0       11.221790    4.167148    2.750756
     53          1           0        6.785349    4.245387    1.764722
     54          1           0        6.614886    4.499088   -0.018268
     55          1           0        8.275730    6.555274    1.030871
     56          1           0        7.152281    6.225358    2.294545
     57          1           0        8.304514    1.226402    6.069013
     58          1           0        8.596593   -0.280228    6.850530
     59          1           0        6.905342    0.238329    6.631244
     60          1           0        7.617196   -2.219514    7.395268
     61          1           0        6.410430   -3.623344    7.357154
     62          1           0        5.982996   -1.971826    6.834933
     63          1           0        7.768908   -5.546556    0.947007
     64          1           0        9.476243   -4.999756   -1.430807
     65          1           0        9.670632   -6.643537    1.481299
     66          1           0       10.467042   -5.042545    1.658194
     67          1           0       10.554184   -5.859053    0.184188
     68          1           0        7.515875   -6.588861   -1.435104
     69          1           0        7.575139   -5.481073   -2.801537
     70          1           0        5.871608   -5.577760   -0.427654
     71          1           0        5.367576   -5.307743   -2.130515
     72          1           0        6.092089   -3.978319   -1.119366
     73          1           0        8.298214   -0.512554   -5.705552
     74          1           0        8.765773   -2.093390   -4.983464
     75          1           0        9.997149   -0.766553   -5.077169
     76          1           0        9.589137    3.644074   -2.517996
     77          1           0        7.490137    7.237965   -3.657141
     78          1           0        7.041909    7.080604   -1.853239
     79          1           0        6.151860    6.332684   -3.192701
     80         12           0       -7.765303   -0.687279   -0.660034
     81          6           0       -9.748700    1.638554    1.220321
     82          6           0       -6.726824    1.955673   -2.549732
     83          6           0       -6.364636   -2.760466   -2.611290
     84          6           0       -9.795406   -3.224086    0.600520
     85          7           0       -8.245591    1.470203   -0.577283
     86          6           0       -8.964084    2.247563    0.218857
     87          6           0       -8.772124    3.768784   -0.023190
     88          6           0       -8.281085    3.709106   -1.550996
     89          6           0       -7.679641    2.305224   -1.559766
     90          6           0       -9.423688    3.745478   -2.552228
     91          6           0       -7.673073    4.388440    0.909606
     92          6           0       -7.648821    5.918082    0.946650
     93          1           0       -7.313410    6.578612    2.205087
     94          7           0       -6.336668   -0.416375   -2.010659
     95          6           0       -6.038325    0.727715   -2.661277
     96          6           0       -4.922836    0.399025   -3.562274
     97          6           0       -4.695597   -1.070800   -3.510618
     98          6           0       -5.828430   -1.484594   -2.707154
     99          6           0       -4.139623    1.444096   -4.302446
    100          6           0       -3.641255   -1.958685   -4.099029
    101          8           0       -3.772144   -3.233455   -4.125065
    102          6           0       -2.494405   -1.286942   -4.727504
    103          7           0       -8.166291   -2.671940   -1.131917
    104          6           0       -7.370314   -3.357378   -1.971285
    105          6           0       -7.691214   -4.832743   -1.944591
    106          6           0       -8.710411   -5.028797   -0.727880
    107          6           0       -8.878979   -3.554684   -0.298946
    108          6           0       -8.308116   -5.402555   -3.221750
    109          6           0       -8.322265   -6.073625    0.353941
    110          6           0       -7.106330   -5.599339    1.116780
    111          7           0       -9.345539   -0.830796    0.806366
    112          6           0      -10.077582   -1.985017    1.161296
    113          6           0      -11.121551   -1.561672    2.116974
    114          6           0      -10.937643   -0.175766    2.235038
    115          6           0       -9.868435    0.238678    1.395669
    116          6           0      -12.101945   -2.408320    2.706990
    117          6           0      -11.411733    1.032451    2.870757
    118          8           0      -12.238040    1.286708    3.746146
    119          6           0      -10.744954    2.279987    2.145880
    120          6           0      -10.219331    3.207431    3.207051
    121          8           0       -9.287557    2.853483    3.950770
    122          8           0      -10.751893    4.429865    3.027031
    123          6           0      -10.252169    5.387949    4.048871
    124          1           0       -6.515347    2.673560   -3.342699
    125          1           0       -5.845335   -3.534224   -3.181473
    126          1           0      -10.405318   -3.970434    1.113983
    127          1           0       -9.677546    4.358780    0.053577
    128          1           0       -7.514345    4.453647   -1.748814
    129          1           0      -10.386587    3.686122   -2.067016
    130          1           0       -9.273672    2.892390   -3.200899
    131          1           0       -9.336966    4.628920   -3.191243
    132          1           0       -6.683942    4.195325    0.474778
    133          1           0       -7.759281    4.004146    1.907361
    134          1           0       -8.556447    6.355333    0.513103
    135          1           0       -6.844846    6.268274    0.294723
    136          1           0       -4.641983    2.418880   -4.273490
    137          1           0       -4.152502    1.163230   -5.361130
    138          1           0       -3.102462    1.509580   -3.966772
    139          1           0       -2.848456   -0.638922   -5.525739
    140          1           0       -1.806346   -2.086170   -5.009795
    141          1           0       -2.018078   -0.638546   -3.983662
    142          1           0       -6.800427   -5.418882   -1.754760
    143          1           0       -9.697111   -5.370198   -1.073858
    144          1           0       -7.729297   -6.243282   -3.648618
    145          1           0       -8.402263   -4.601079   -3.942380
    146          1           0       -9.336120   -5.747350   -3.124068
    147          1           0       -8.044023   -7.020050   -0.116199
    148          1           0       -9.121607   -6.285617    1.056153
    149          1           0       -6.276345   -5.903968    0.472258
    150          1           0       -7.050261   -6.085346    2.088730
    151          1           0       -7.086455   -4.505432    1.184916
    152          1           0      -12.159741   -2.136227    3.752524
    153          1           0      -11.847169   -3.458701    2.582236
    154          1           0      -12.980934   -2.126748    2.121020
    155          1           0      -11.513885    2.752514    1.533475
    156          1           0      -11.130361    5.815158    4.542800
    157          1           0       -9.590495    6.087458    3.504230
    158          1           0       -9.710661    4.981179    4.894898
 ---------------------------------------------------------------------

 SCF Done:  E(RCAM-B3LYP) =  -4069.81198838     A.U. after   19 cycles

 Excitation energies and oscillator strengths:

 Excited State   1:      Singlet-A      1.6705 eV  742.22 nm  f=0.1179  <S**2>=0.000
     309 -> 315       -0.10532
     310 -> 316       -0.13714
     311 -> 313        0.41675
     312 -> 314        0.54531
 This state for optimization and/or second-order correction.
 Total Energy, E(TD-HF/TD-DFT) =  -4069.75060012
 Copying the excited state density for this state as the 1-particle RhoCI density.

 Excited State   2:      Singlet-A      1.6851 eV  735.76 nm  f=0.6493  <S**2>=0.000
     309 -> 315       -0.14064
     310 -> 316        0.10695
     311 -> 313        0.54455
     312 -> 314       -0.41630

 Excited State   3:      Singlet-A      2.1869 eV  566.93 nm  f=0.0554  <S**2>=0.000
     309 -> 313       -0.14934
     310 -> 314        0.62490
     312 -> 316        0.26611

 Excited State   4:      Singlet-A      2.1934 eV  565.26 nm  f=0.1378  <S**2>=0.000
     309 -> 313        0.62317
     310 -> 314        0.14841
     311 -> 315        0.27111

 Excited State   5:      Singlet-A      2.7793 eV  446.09 nm  f=0.0000  <S**2>=0.000
     312 -> 313        0.70706

 The electronic state is 1-A.
 Alpha  occ. eigenvalues --  -46.87809 -46.87577 -19.26364 -19.26309 -19.19115
 Alpha  occ. eigenvalues --  -19.19100 -19.18804 -19.18587 -19.18206 -19.17981
 Alpha  occ. eigenvalues --  -14.42465 -14.42415 -14.41458 -14.41278 -14.39413
 Alpha  occ. eigenvalues --  -14.39264 -14.38603 -14.38518 -10.39154 -10.39042
 Alpha  occ. eigenvalues --  -10.35435 -10.35258 -10.34427 -10.34160 -10.31775
 Alpha  occ. eigenvalues --  -10.31728 -10.31426 -10.31233 -10.30935 -10.30926
 Alpha  occ. eigenvalues --  -10.30588 -10.30519 -10.30315 -10.30279 -10.30206
 Alpha  occ. eigenvalues --  -10.30052 -10.29930 -10.29821 -10.29642 -10.29343
 Alpha  occ. eigenvalues --  -10.29307 -10.29261 -10.28781 -10.28648 -10.28603
 Alpha  occ. eigenvalues --  -10.28593 -10.28381 -10.28318 -10.28142 -10.28066
 Alpha  occ. eigenvalues --  -10.27914 -10.27808 -10.27740 -10.27592 -10.27583
 Alpha  occ. eigenvalues --  -10.27487 -10.27475 -10.27446 -10.27438 -10.27423
 Alpha  occ. eigenvalues --  -10.27403 -10.27366 -10.27307 -10.27305 -10.27201
 Alpha  occ. eigenvalues --  -10.26986 -10.26752 -10.26629 -10.26381 -10.26256
 Alpha  occ. eigenvalues --  -10.26223 -10.26154 -10.26073 -10.26026 -10.25955
 Alpha  occ. eigenvalues --  -10.25866 -10.25853 -10.25788 -10.25423 -10.25332
 Alpha  occ. eigenvalues --  -10.24852 -10.24796 -10.24789 -10.24665 -10.24645
 Alpha  occ. eigenvalues --  -10.24608  -3.16552  -3.16327  -1.91434  -1.91210
 Alpha  occ. eigenvalues --   -1.91020  -1.90862  -1.90798  -1.90635  -1.16712
 Alpha  occ. eigenvalues --   -1.16601  -1.08668  -1.08592  -1.07203  -1.06899
 Alpha  occ. eigenvalues --   -1.06838  -1.06721  -1.04597  -1.04413  -1.03770
 Alpha  occ. eigenvalues --   -1.03580  -1.03246  -1.02956  -1.02423  -1.02028
 Alpha  occ. eigenvalues --   -0.91996  -0.91910  -0.89518  -0.89418  -0.89215
 Alpha  occ. eigenvalues --   -0.89079  -0.88284  -0.88146  -0.87889  -0.87717
 Alpha  occ. eigenvalues --   -0.87688  -0.87603  -0.87274  -0.86996  -0.85006
 Alpha  occ. eigenvalues --   -0.84923  -0.83933  -0.83805  -0.82956  -0.82808
 Alpha  occ. eigenvalues --   -0.82668  -0.82558  -0.81628  -0.81533  -0.80620
 Alpha  occ. eigenvalues --   -0.80364  -0.78804  -0.78531  -0.77230  -0.77062
 Alpha  occ. eigenvalues --   -0.76962  -0.76832  -0.75953  -0.75764  -0.74902
 Alpha  occ. eigenvalues --   -0.74730  -0.72787  -0.72617  -0.71687  -0.71505
 Alpha  occ. eigenvalues --   -0.69893  -0.69686  -0.68894  -0.68746  -0.67656
 Alpha  occ. eigenvalues --   -0.67518  -0.67243  -0.67109  -0.65314  -0.65199
 Alpha  occ. eigenvalues --   -0.64877  -0.64694  -0.64641  -0.64581  -0.64271
 Alpha  occ. eigenvalues --   -0.64129  -0.62344  -0.62218  -0.60442  -0.60232
 Alpha  occ. eigenvalues --   -0.59827  -0.59719  -0.59003  -0.58915  -0.58521
 Alpha  occ. eigenvalues --   -0.58348  -0.57627  -0.57490  -0.57319  -0.57150
 Alpha  occ. eigenvalues --   -0.56327  -0.56118  -0.56031  -0.55822  -0.55530
 Alpha  occ. eigenvalues --   -0.55355  -0.55354  -0.55180  -0.54550  -0.54424
 Alpha  occ. eigenvalues --   -0.53923  -0.53839  -0.53308  -0.53241  -0.53141
 Alpha  occ. eigenvalues --   -0.53052  -0.52945  -0.52828  -0.52760  -0.52540
 Alpha  occ. eigenvalues --   -0.52423  -0.52330  -0.51937  -0.51816  -0.51640
 Alpha  occ. eigenvalues --   -0.51569  -0.51217  -0.51128  -0.50560  -0.50335
 Alpha  occ. eigenvalues --   -0.50025  -0.49921  -0.49883  -0.49781  -0.49531
 Alpha  occ. eigenvalues --   -0.49385  -0.49236  -0.49122  -0.49113  -0.49032
 Alpha  occ. eigenvalues --   -0.48625  -0.48486  -0.48470  -0.48450  -0.48305
 Alpha  occ. eigenvalues --   -0.48223  -0.47708  -0.47505  -0.47307  -0.47022
 Alpha  occ. eigenvalues --   -0.46808  -0.46633  -0.46583  -0.46474  -0.46372
 Alpha  occ. eigenvalues --   -0.46186  -0.46181  -0.46014  -0.45858  -0.45759
 Alpha  occ. eigenvalues --   -0.45200  -0.45134  -0.44608  -0.44511  -0.44442
 Alpha  occ. eigenvalues --   -0.44395  -0.44153  -0.44107  -0.44048  -0.44037
 Alpha  occ. eigenvalues --   -0.43994  -0.43829  -0.43533  -0.43493  -0.43400
 Alpha  occ. eigenvalues --   -0.43310  -0.43044  -0.42870  -0.42829  -0.42755
 Alpha  occ. eigenvalues --   -0.42655  -0.42471  -0.42017  -0.41893  -0.41723
 Alpha  occ. eigenvalues --   -0.41594  -0.41556  -0.41384  -0.41157  -0.40913
 Alpha  occ. eigenvalues --   -0.40885  -0.40821  -0.40639  -0.40593  -0.40572
 Alpha  occ. eigenvalues --   -0.40422  -0.40267  -0.40145  -0.39422  -0.39354
 Alpha  occ. eigenvalues --   -0.38470  -0.38278  -0.37781  -0.37585  -0.37323
 Alpha  occ. eigenvalues --   -0.37290  -0.37190  -0.37121  -0.36766  -0.36720
 Alpha  occ. eigenvalues --   -0.36220  -0.36149  -0.34301  -0.34174  -0.33839
 Alpha  occ. eigenvalues --   -0.33809  -0.33203  -0.33094  -0.31334  -0.31150
 Alpha  occ. eigenvalues --   -0.31049  -0.30889  -0.30067  -0.29888  -0.29458
 Alpha  occ. eigenvalues --   -0.29339  -0.29230  -0.29127  -0.24095  -0.23955
 Alpha  occ. eigenvalues --   -0.21139  -0.21032
 Alpha virt. eigenvalues --   -0.08786  -0.08703  -0.01758  -0.01598  -0.00065
 Alpha virt. eigenvalues --    0.00076   0.02179   0.02286   0.03105   0.03308
 Alpha virt. eigenvalues --    0.04696   0.04804   0.05030   0.05217   0.06135

 Mulliken charges:
               1
     1  Mg   0.838589
     2  C   -0.003230
     3  C   -0.094150
     4  C   -0.045675
     5  C   -0.063812
     6  N   -0.256809
     7  C   -0.052591
     8  C   -0.014010
     9  C   -0.087025
    10  C    0.046339
    11  C    0.104789
    12  C    0.053480
    13  C   -0.071660
    14  H    0.035451
    15  N   -0.433187
    16  C    0.168535
    17  C   -0.177025
    18  C   -0.003784
    19  C    0.148765
    20  C    0.110139
    21  C    0.012502
    22  O   -0.249336
    23  C    0.062369
    24  N   -0.341134
    25  C    0.041323
    26  C   -0.028246
    27  C   -0.023979
    28  C    0.074823
    29  C    0.076144
    30  C    0.035072
    31  C   -0.004588
    32  N   -0.310352
    33  C    0.080197
    34  C   -0.169900
    35  C    0.008139
    36  C    0.082777
    37  C    0.127385
    38  C    0.045769
    39  O   -0.188973
    40  C   -0.005213
    41  C    0.212874
    42  O   -0.257803
    43  O   -0.304578
    44  C    0.157933
    45  H   -0.017508
    46  H   -0.016568
    47  H   -0.041414
    48  H    0.000829
    49  H   -0.003992
    50  H    0.025437
    51  H    0.016576
    52  H    0.016723
    53  H    0.011341
    54  H    0.043639
    55  H    0.017969
    56  H    0.018186
    57  H    0.005862
    58  H    0.026982
    59  H    0.039925
    60  H    0.037318
    61  H    0.036002
    62  H    0.031780
    63  H    0.016872
    64  H    0.009436
    65  H    0.023406
    66  H    0.012478
    67  H    0.004776
    68  H    0.006591
    69  H    0.004697
    70  H    0.009096
    71  H    0.018734
    72  H    0.028592
    73  H    0.047131
    74  H    0.009276
    75  H    0.046002
    76  H    0.035184
    77  H    0.042863
    78  H    0.046517
    79  H    0.052927
    80  Mg   0.837751
    81  C   -0.016851
    82  C   -0.087579
    83  C   -0.045470
    84  C   -0.064925
    85  N   -0.254562
    86  C   -0.050075
    87  C   -0.015094
    88  C   -0.090525
    89  C    0.045745
    90  C    0.114372
    91  C    0.062472
    92  C   -0.077747
    93  H    0.034343
    94  N   -0.423574
    95  C    0.163011
    96  C   -0.174296
    97  C   -0.007498
    98  C    0.152131
    99  C    0.099183
   100  C    0.015659
   101  O   -0.253452
   102  C    0.061147
   103  N   -0.350045
   104  C    0.037593
   105  C   -0.019858
   106  C   -0.034715
   107  C    0.088747
   108  C    0.073701
   109  C    0.034780
   110  C   -0.007640
   111  N   -0.324008
   112  C    0.078196
   113  C   -0.163388
   114  C    0.002095
   115  C    0.096016
   116  C    0.131541
   117  C    0.042157
   118  O   -0.188379
   119  C    0.000938
   120  C    0.211244
   121  O   -0.251171
   122  O   -0.305607
   123  C    0.152138
   124  H   -0.019389
   125  H   -0.015533
   126  H   -0.040721
   127  H   -0.000854
   128  H   -0.004151
   129  H    0.022311
   130  H    0.014492
   131  H    0.016304
   132  H    0.014175
   133  H    0.037487
   134  H    0.020697
   135  H    0.019781
   136  H    0.008776
   137  H    0.026470
   138  H    0.041557
   139  H    0.038542
   140  H    0.036700
   141  H    0.035219
   142  H    0.014420
   143  H    0.012223
   144  H    0.025079
   145  H    0.011687
   146  H    0.005523
   147  H    0.006116
   148  H    0.003464
   149  H    0.011010
   150  H    0.017759
   151  H    0.030181
   152  H    0.045715
   153  H    0.008349
   154  H    0.046716
   155  H    0.034866
   156  H    0.043707
   157  H    0.049468
   158  H    0.053350
 Sum of Mulliken charges =  -0.00000

 Dipole moment (field-independent basis, Debye):
    X=              3.1279    Y=              3.0808    Z=              0.4579  Tot=              4.4141
 Quadrupole moment (field-independent basis, Debye-Ang):
   XX=           -517.7888   YY=           -463.2718   ZZ=           -526.6116
   XY=              8.5312   XZ=             72.4711   YZ=             17.8977

 Normal termination of Gaussian 16 at Sat Sep 11 20:21:36 2021.
