 Gaussian 16, Revision A.03,
 Gaussian 16:  ES64L-G16RevA.03 25-Dec-2016

 -----------------------------------
 #p cam-b3lyp/Def2SVP td=(nstates=5)
 -----------------------------------

 --------------------------------
 TDDFT excited states in gaussian
 --------------------------------
 Symbolic Z-matrix:
 Charge =  0 Multiplicity = 1

                         Standard orientation:
 ---------------------------------------------------------------------
 Center     Atomic      Atomic             Coordinates (Angstroms)
 Number     Number       Type             X           Y           Z
 ---------------------------------------------------------------------
      1         12           0       -3.889782    0.560983    0.420755
      2          6           0       -4.171117   -2.645724   -1.144524
      3          6           0       -4.325155   -1.025550    3.410141
      4          6           0       -4.099188    3.417257    1.782544
      5          6           0       -4.609014    1.974702   -2.682431
      6          7           0       -4.197233   -1.569449    0.937844
      7          6           0       -4.225241   -2.706517    0.249757
      8          6           0       -4.241418   -3.975402    1.153662
      9          6           0       -4.855247   -3.333455    2.477715
     10          6           0       -4.403089   -1.896900    2.283329
     11          6           0       -6.379551   -3.367029    2.520978
     12          6           0       -2.804510   -4.544168    1.405717
     13          6           0       -2.755094   -5.954761    1.999973
     14          1           0       -1.688350   -6.852835    1.584200
     15          7           0       -3.686686    1.096940    2.311351
     16          6           0       -3.888372    0.316834    3.400407
     17          6           0       -3.609389    1.173697    4.572856
     18          6           0       -3.413748    2.566289    4.082443
     19          6           0       -3.755677    2.418669    2.690800
     20          6           0       -3.503703    0.646346    5.970884
     21          6           0       -2.996566    3.831777    4.762613
     22          8           0       -3.113982    4.975315    4.203053
     23          6           0       -2.523006    3.705059    6.152838
     24          7           0       -4.510370    2.426559   -0.280765
     25          6           0       -4.446814    3.512490    0.497502
     26          6           0       -4.670211    4.766171   -0.295163
     27          6           0       -4.659428    4.326456   -1.830183
     28          6           0       -4.504237    2.797814   -1.636689
     29          6           0       -5.967896    5.527641    0.008464
     30          6           0       -3.661788    5.056775   -2.763869
     31          6           0       -2.243646    4.693943   -2.383971
     32          7           0       -4.143666   -0.163155   -1.609568
     33          6           0       -4.461584    0.599032   -2.743003
     34          6           0       -4.634196   -0.344018   -3.863240
     35          6           0       -4.419598   -1.598781   -3.296353
     36          6           0       -4.157078   -1.451016   -1.904397
     37          6           0       -5.006224    0.000342   -5.192693
     38          6           0       -4.375301   -3.031834   -3.537711
     39          8           0       -4.427261   -3.744179   -4.541383
     40          6           0       -4.333040   -3.775898   -2.130440
     41          6           0       -3.244685   -4.812422   -2.196857
     42          8           0       -2.046332   -4.476720   -2.289705
     43          8           0       -3.759044   -6.016530   -1.903427
     44          6           0       -2.725519   -7.085926   -1.922726
     45          1           0       -4.685666   -1.380351    4.377658
     46          1           0       -4.074115    4.430654    2.188542
     47          1           0       -4.750925    2.349303   -3.697807
     48          1           0       -4.885222   -4.779491    0.796760
     49          1           0       -4.407798   -3.752950    3.378567
     50          1           0       -6.797494   -3.710628    1.574836
     51          1           0       -6.687662   -2.340997    2.723015
     52          1           0       -6.730113   -3.957439    3.367914
     53          1           0       -2.333598   -3.985505    2.214542
     54          1           0       -2.213038   -4.517865    0.489859
     55          1           0       -3.722846   -6.451878    1.927590
     56          1           0       -2.574668   -5.867846    3.071463
     57          1           0       -3.859236   -0.381007    6.039340
     58          1           0       -4.203929    1.217282    6.580331
     59          1           0       -2.496104    0.750436    6.373676
     60          1           0       -3.311405    3.263477    6.762741
     61          1           0       -2.183879    4.697790    6.446654
     62          1           0       -1.687142    3.005336    6.178729
     63          1           0       -3.869944    5.484959   -0.123865
     64          1           0       -5.628627    4.478138   -2.305913
     65          1           0       -5.807709    6.563209    0.309536
     66          1           0       -6.510223    4.976584    0.776259
     67          1           0       -6.693259    5.537082   -0.804663
     68          1           0       -3.757812    6.136158   -2.651363
     69          1           0       -3.805877    4.819069   -3.817902
     70          1           0       -2.026958    5.381476   -1.567162
     71          1           0       -1.569804    4.861848   -3.224777
     72          1           0       -2.185596    3.682127   -1.982293
     73          1           0       -4.363525   -0.584619   -5.850513
     74          1           0       -4.889426    1.068831   -5.372395
     75          1           0       -6.050316   -0.312234   -5.197593
     76          1           0       -5.315612   -4.222896   -1.982565
     77          1           0       -3.068321   -7.851079   -2.619334
     78          1           0       -2.565558   -7.381023   -0.885550
     79          1           0       -1.764977   -6.820033   -2.365445
     80         12           0        3.984827    0.868396   -0.587932
     81          6           0        4.072500   -2.483977    0.689954
     82          6           0        3.472570    1.917393    2.617040
     83          6           0        3.454157    3.780268   -1.731100
     84          6           0        3.362208   -0.495298   -3.734100
     85          7           0        3.814351   -0.235820    1.320971
     86          6           0        3.925656   -1.502388    1.692134
     87          6           0        3.957408   -1.722002    3.228470
     88          6           0        3.196635   -0.381365    3.678792
     89          6           0        3.540313    0.507385    2.485185
     90          6           0        1.686235   -0.537694    3.738664
     91          6           0        5.419752   -1.770587    3.795218
     92          6           0        5.536271   -2.288047    5.230628
     93          1           0        6.705168   -3.086155    5.590059
     94          7           0        4.017359    2.631313    0.322920
     95          6           0        3.811124    2.873533    1.634435
     96          6           0        3.921154    4.331546    1.796441
     97          6           0        4.045646    4.945439    0.446501
     98          6           0        3.818009    3.785901   -0.392394
     99          6           0        3.982017    4.998705    3.139804
    100          6           0        4.311286    6.346929   -0.013379
    101          8           0        4.140907    6.698743   -1.234041
    102          6           0        4.686776    7.317569    1.025062
    103          7           0        3.272695    1.557460   -2.415604
    104          6           0        3.188430    2.874570   -2.672605
    105          6           0        2.914612    3.128415   -4.135813
    106          6           0        3.073284    1.708927   -4.855154
    107          6           0        3.335209    0.825110   -3.615936
    108          6           0        1.541414    3.714193   -4.463764
    109          6           0        4.070295    1.629723   -6.043587
    110          6           0        5.484552    1.819482   -5.544324
    111          7           0        3.936480   -1.115972   -1.441159
    112          6           0        3.628911   -1.463777   -2.774775
    113          6           0        3.612322   -2.939207   -2.847150
    114          6           0        3.890923   -3.350710   -1.535081
    115          6           0        4.048664   -2.212181   -0.699400
    116          6           0        3.316237   -3.712001   -4.005279
    117          6           0        4.076955   -4.489401   -0.664760
    118          8           0        4.145494   -5.706726   -0.829592
    119          6           0        4.077764   -3.979911    0.840835
    120          6           0        5.249469   -4.609113    1.543496
    121          8           0        6.413368   -4.326651    1.208580
    122          8           0        4.809150   -5.268459    2.630574
    123          6           0        5.936102   -5.900458    3.367056
    124          1           0        3.083404    2.333440    3.546737
    125          1           0        3.367360    4.763033   -2.200264
    126          1           0        3.272789   -0.996896   -4.700056
    127          1           0        3.412954   -2.592499    3.574260
    128          1           0        3.621655    0.026064    4.592421
    129          1           0        1.364559   -1.493740    3.353130
    130          1           0        1.283146    0.267375    3.138312
    131          1           0        1.329154   -0.361873    4.757443
    132          1           0        5.783776   -0.744611    3.935219
    133          1           0        6.058953   -2.343215    3.151668
    134          1           0        4.616096   -2.781054    5.567035
    135          1           0        5.641797   -1.431459    5.900807
    136          1           0        3.701064    4.308470    3.944821
    137          1           0        3.198533    5.764106    3.152502
    138          1           0        4.945658    5.476201    3.329684
    139          1           0        3.898338    7.370377    1.772082
    140          1           0        4.922744    8.240129    0.491130
    141          1           0        5.582832    6.951487    1.538554
    142          1           0        3.640780    3.816156   -4.551497
    143          1           0        2.124040    1.364909   -5.291527
    144          1           0        1.595720    4.668216   -5.021405
    145          1           0        0.996322    3.845115   -3.538411
    146          1           0        0.882337    3.057623   -5.029222
    147          1           0        3.880010    2.439580   -6.752160
    148          1           0        4.010749    0.697888   -6.595967
    149          1           0        5.582141    2.907737   -5.487170
    150          1           0        6.198995    1.395488   -6.247053
    151          1           0        5.599570    1.424399   -4.528285
    152          1           0        4.040851   -4.514748   -4.037530
    153          1           0        3.353037   -3.105662   -4.907929
    154          1           0        2.298902   -4.035330   -3.769166
    155          1           0        3.126855   -4.274074    1.286735
    156          1           0        5.702656   -6.966031    3.455015
    157          1           0        6.036758   -5.327496    4.307982
    158          1           0        6.900408   -5.935222    2.873746
 ---------------------------------------------------------------------

 SCF Done:  E(RCAM-B3LYP) =  -4069.81213218     A.U. after   19 cycles

 Excitation energies and oscillator strengths:

 Excited State   1:      Singlet-A      1.6463 eV  753.10 nm  f=0.1063  <S**2>=0.000
     309 -> 315        0.11638
     310 -> 316       -0.11853
     311 -> 313       -0.48029
     312 -> 314        0.49169
 This state for optimization and/or second-order correction.
 Total Energy, E(TD-HF/TD-DFT) =  -4069.75163103
 Copying the excited state density for this state as the 1-particle RhoCI density.

 Excited State   2:      Singlet-A      1.6980 eV  730.17 nm  f=0.5494  <S**2>=0.000
     309 -> 315       -0.12841
     310 -> 316       -0.12598
     311 -> 313        0.48929
     312 -> 314        0.47827

 Excited State   3:      Singlet-A      2.1826 eV  568.06 nm  f=0.0383  <S**2>=0.000
     309 -> 313       -0.41238
     310 -> 314        0.49477
     311 -> 315       -0.17185
     312 -> 316        0.20779

 Excited State   4:      Singlet-A      2.1927 eV  565.45 nm  f=0.1469  <S**2>=0.000
     309 -> 313        0.49132
     310 -> 314        0.40851
     311 -> 315        0.21493
     312 -> 316        0.17996

 Excited State   5:      Singlet-A      2.2334 eV  555.14 nm  f=0.0000  <S**2>=0.000
     312 -> 313        0.70706

 The electronic state is 1-A.
 Alpha  occ. eigenvalues --  -46.87907 -46.87407 -19.26263 -19.26238 -19.19035
 Alpha  occ. eigenvalues --  -19.19025 -19.19018 -19.18470 -19.18274 -19.17794
 Alpha  occ. eigenvalues --  -14.42556 -14.42263 -14.41552 -14.41108 -14.39529
 Alpha  occ. eigenvalues --  -14.39096 -14.38698 -14.38319 -10.39082 -10.38956
 Alpha  occ. eigenvalues --  -10.35665 -10.35150 -10.34486 -10.33975 -10.31719
 Alpha  occ. eigenvalues --  -10.31540 -10.31502 -10.31070 -10.31017 -10.30826
 Alpha  occ. eigenvalues --  -10.30685 -10.30627 -10.30326 -10.30110 -10.30072
 Alpha  occ. eigenvalues --  -10.30013 -10.29888 -10.29768 -10.29622 -10.29393
 Alpha  occ. eigenvalues --  -10.29163 -10.29104 -10.28807 -10.28640 -10.28612
 Alpha  occ. eigenvalues --  -10.28486 -10.28485 -10.28192 -10.28152 -10.28037
 Alpha  occ. eigenvalues --  -10.27928 -10.27843 -10.27735 -10.27708 -10.27701
 Alpha  occ. eigenvalues --  -10.27570 -10.27514 -10.27505 -10.27433 -10.27273
 Alpha  occ. eigenvalues --  -10.27241 -10.27221 -10.27206 -10.27182 -10.27172
 Alpha  occ. eigenvalues --  -10.26840 -10.26734 -10.26722 -10.26615 -10.26303
 Alpha  occ. eigenvalues --  -10.26213 -10.26191 -10.26132 -10.25996 -10.25983
 Alpha  occ. eigenvalues --  -10.25912 -10.25645 -10.25500 -10.25306 -10.25258
 Alpha  occ. eigenvalues --  -10.24960 -10.24896 -10.24671 -10.24562 -10.24525
 Alpha  occ. eigenvalues --  -10.24440  -3.16649  -3.16157  -1.91530  -1.91117
 Alpha  occ. eigenvalues --   -1.91040  -1.90959  -1.90629  -1.90464  -1.16596
 Alpha  occ. eigenvalues --   -1.16547  -1.08722  -1.08408  -1.07429  -1.06818
 Alpha  occ. eigenvalues --   -1.06726  -1.06637  -1.04688  -1.04264  -1.03867
 Alpha  occ. eigenvalues --   -1.03410  -1.03352  -1.02771  -1.02524  -1.01845
 Alpha  occ. eigenvalues --   -0.92069  -0.91741  -0.89602  -0.89256  -0.89248
 Alpha  occ. eigenvalues --   -0.89025  -0.88364  -0.87999  -0.87993  -0.87773
 Alpha  occ. eigenvalues --   -0.87488  -0.87458  -0.87394  -0.86853  -0.85060
 Alpha  occ. eigenvalues --   -0.84839  -0.83997  -0.83660  -0.83166  -0.82727
 Alpha  occ. eigenvalues --   -0.82698  -0.82479  -0.81620  -0.81404  -0.80679
 Alpha  occ. eigenvalues --   -0.80228  -0.78955  -0.78349  -0.77308  -0.76974
 Alpha  occ. eigenvalues --   -0.76943  -0.76731  -0.75983  -0.75658  -0.74966
 Alpha  occ. eigenvalues --   -0.74606  -0.72886  -0.72417  -0.71759  -0.71379
 Alpha  occ. eigenvalues --   -0.69959  -0.69539  -0.68964  -0.68651  -0.67757
 Alpha  occ. eigenvalues --   -0.67368  -0.67306  -0.67029  -0.65356  -0.65109
 Alpha  occ. eigenvalues --   -0.64932  -0.64685  -0.64540  -0.64464  -0.64346
 Alpha  occ. eigenvalues --   -0.63975  -0.62312  -0.62106  -0.60594  -0.60086
 Alpha  occ. eigenvalues --   -0.59893  -0.59618  -0.59082  -0.58754  -0.58600
 Alpha  occ. eigenvalues --   -0.58196  -0.57651  -0.57399  -0.57338  -0.56994
 Alpha  occ. eigenvalues --   -0.56437  -0.55986  -0.55943  -0.55736  -0.55654
 Alpha  occ. eigenvalues --   -0.55391  -0.55231  -0.55037  -0.54557  -0.54308
 Alpha  occ. eigenvalues --   -0.53964  -0.53783  -0.53445  -0.53326  -0.53007
 Alpha  occ. eigenvalues --   -0.52981  -0.52946  -0.52887  -0.52725  -0.52485
 Alpha  occ. eigenvalues --   -0.52452  -0.52179  -0.52039  -0.51712  -0.51497
 Alpha  occ. eigenvalues --   -0.51429  -0.51271  -0.50969  -0.50798  -0.50245
 Alpha  occ. eigenvalues --   -0.50120  -0.50074  -0.49798  -0.49651  -0.49625
 Alpha  occ. eigenvalues --   -0.49330  -0.49281  -0.49171  -0.49012  -0.48886
 Alpha  occ. eigenvalues --   -0.48663  -0.48623  -0.48522  -0.48355  -0.48164
 Alpha  occ. eigenvalues --   -0.48109  -0.47796  -0.47408  -0.47397  -0.46895
 Alpha  occ. eigenvalues --   -0.46884  -0.46625  -0.46496  -0.46461  -0.46393
 Alpha  occ. eigenvalues --   -0.46238  -0.46019  -0.45884  -0.45824  -0.45578
 Alpha  occ. eigenvalues --   -0.45294  -0.45004  -0.44686  -0.44616  -0.44362
 Alpha  occ. eigenvalues --   -0.44242  -0.44239  -0.44167  -0.44115  -0.43933
 Alpha  occ. eigenvalues --   -0.43856  -0.43712  -0.43543  -0.43466  -0.43383
 Alpha  occ. eigenvalues --   -0.43198  -0.43116  -0.42763  -0.42746  -0.42669
 Alpha  occ. eigenvalues --   -0.42635  -0.42324  -0.42066  -0.41802  -0.41765
 Alpha  occ. eigenvalues --   -0.41598  -0.41447  -0.41289  -0.41230  -0.41017
 Alpha  occ. eigenvalues --   -0.40916  -0.40802  -0.40637  -0.40549  -0.40523
 Alpha  occ. eigenvalues --   -0.40286  -0.40280  -0.40104  -0.39476  -0.39196
 Alpha  occ. eigenvalues --   -0.38533  -0.38154  -0.37794  -0.37533  -0.37403
 Alpha  occ. eigenvalues --   -0.37330  -0.37037  -0.36993  -0.36733  -0.36635
 Alpha  occ. eigenvalues --   -0.36237  -0.36011  -0.34392  -0.34004  -0.33792
 Alpha  occ. eigenvalues --   -0.33709  -0.33289  -0.32915  -0.31549  -0.31141
 Alpha  occ. eigenvalues --   -0.31033  -0.30731  -0.30126  -0.29705  -0.29601
 Alpha  occ. eigenvalues --   -0.29448  -0.29049  -0.28890  -0.24187  -0.23777
 Alpha  occ. eigenvalues --   -0.21245  -0.20851
 Alpha virt. eigenvalues --   -0.08904  -0.08515  -0.01868  -0.01432  -0.00217
 Alpha virt. eigenvalues --    0.00216   0.02081   0.02387   0.02600   0.03589
 Alpha virt. eigenvalues --    0.04646   0.04943   0.05085   0.05313   0.06156

 Mulliken charges:
               1
     1  Mg   0.838697
     2  C   -0.002514
     3  C   -0.094760
     4  C   -0.045438
     5  C   -0.064359
     6  N   -0.256833
     7  C   -0.052095
     8  C   -0.013903
     9  C   -0.086816
    10  C    0.046189
    11  C    0.104815
    12  C    0.053573
    13  C   -0.073582
    14  H    0.041067
    15  N   -0.433152
    16  C    0.168123
    17  C   -0.178180
    18  C   -0.005055
    19  C    0.148951
    20  C    0.110206
    21  C    0.011026
    22  O   -0.249443
    23  C    0.063368
    24  N   -0.341316
    25  C    0.041427
    26  C   -0.028375
    27  C   -0.024477
    28  C    0.075741
    29  C    0.076115
    30  C    0.036940
    31  C   -0.011504
    32  N   -0.310648
    33  C    0.080959
    34  C   -0.170360
    35  C    0.008406
    36  C    0.083448
    37  C    0.127403
    38  C    0.045839
    39  O   -0.187930
    40  C   -0.005199
    41  C    0.212897
    42  O   -0.257296
    43  O   -0.305109
    44  C    0.156963
    45  H   -0.017743
    46  H   -0.016897
    47  H   -0.041519
    48  H    0.001492
    49  H   -0.004261
    50  H    0.025696
    51  H    0.016271
    52  H    0.016810
    53  H    0.009113
    54  H    0.045317
    55  H    0.017796
    56  H    0.016924
    57  H    0.006213
    58  H    0.027129
    59  H    0.036678
    60  H    0.038310
    61  H    0.034817
    62  H    0.027905
    63  H    0.017217
    64  H    0.009591
    65  H    0.023420
    66  H    0.012336
    67  H    0.004921
    68  H    0.006951
    69  H    0.003414
    70  H    0.011280
    71  H    0.023812
    72  H    0.028968
    73  H    0.046957
    74  H    0.008982
    75  H    0.046609
    76  H    0.035451
    77  H    0.043119
    78  H    0.047324
    79  H    0.055842
    80  Mg   0.837217
    81  C   -0.016548
    82  C   -0.087843
    83  C   -0.044781
    84  C   -0.061278
    85  N   -0.254432
    86  C   -0.049914
    87  C   -0.014786
    88  C   -0.090918
    89  C    0.045284
    90  C    0.114403
    91  C    0.062784
    92  C   -0.077291
    93  H    0.034477
    94  N   -0.423444
    95  C    0.162144
    96  C   -0.174032
    97  C   -0.007991
    98  C    0.151392
    99  C    0.099169
   100  C    0.015493
   101  O   -0.254277
   102  C    0.061118
   103  N   -0.349858
   104  C    0.035653
   105  C   -0.017650
   106  C   -0.035556
   107  C    0.088851
   108  C    0.067590
   109  C    0.034701
   110  C   -0.007515
   111  N   -0.325033
   112  C    0.078760
   113  C   -0.157350
   114  C    0.003726
   115  C    0.096634
   116  C    0.128453
   117  C    0.044412
   118  O   -0.189000
   119  C    0.000227
   120  C    0.210833
   121  O   -0.251104
   122  O   -0.306159
   123  C    0.152221
   124  H   -0.021337
   125  H   -0.016492
   126  H   -0.038536
   127  H   -0.002227
   128  H   -0.005708
   129  H    0.022476
   130  H    0.017366
   131  H    0.011280
   132  H    0.014140
   133  H    0.037875
   134  H    0.019307
   135  H    0.019052
   136  H    0.007247
   137  H    0.027927
   138  H    0.038644
   139  H    0.039122
   140  H    0.035529
   141  H    0.033324
   142  H    0.013542
   143  H    0.014486
   144  H    0.023321
   145  H    0.016692
   146  H    0.005442
   147  H    0.005405
   148  H    0.004564
   149  H    0.010370
   150  H    0.017603
   151  H    0.030233
   152  H    0.043566
   153  H    0.007727
   154  H    0.058983
   155  H    0.034780
   156  H    0.042967
   157  H    0.048859
   158  H    0.053639
 Sum of Mulliken charges =  -0.00000

 Dipole moment (field-independent basis, Debye):
    X=             -3.3107    Y=              1.6631    Z=              6.9354  Tot=              7.8630
 Quadrupole moment (field-independent basis, Debye-Ang):
   XX=           -519.6459   YY=           -533.5841   ZZ=           -465.6108
   XY=             13.2687   XZ=              3.6155   YZ=            -32.2675

 Normal termination of Gaussian 16 at Fri Sep  3 16:24:15 2021.
