 Gaussian 16, Revision A.03,
 Gaussian 16:  ES64L-G16RevA.03 25-Dec-2016

 -----------------------------------
 #p cam-b3lyp/Def2SVP td=(nstates=5)
 -----------------------------------

 --------------------------------
 TDDFT excited states in gaussian
 --------------------------------
 Symbolic Z-matrix:
 Charge =  0 Multiplicity = 1

                         Standard orientation:
 ---------------------------------------------------------------------
 Center     Atomic      Atomic             Coordinates (Angstroms)
 Number     Number       Type             X           Y           Z
 ---------------------------------------------------------------------
      1         12           0        4.152433   -0.327953    0.577632
      2          6           0        4.319634    2.755924   -1.231777
      3          6           0        4.529259    1.499815    3.434262
      4          6           0        4.463221   -3.060904    2.155926
      5          6           0        4.923347   -1.951115   -2.408452
      6          7           0        4.383199    1.845737    0.927581
      7          6           0        4.370849    2.926386    0.153490
      8          6           0        4.341159    4.261216    0.956436
      9          6           0        4.976900    3.746049    2.324805
     10          6           0        4.576531    2.283527    2.243215
     11          6           0        6.499005    3.837287    2.361879
     12          6           0        2.884694    4.796112    1.166975
     13          6           0        2.784540    6.245815    1.650382
     14          1           0        1.686553    7.070330    1.168771
     15          7           0        3.967695   -0.722824    2.504495
     16          6           0        4.140792    0.145968    3.529446
     17          6           0        3.892059   -0.626955    4.765327
     18          6           0        3.746618   -2.059435    4.384613
     19          6           0        4.083745   -2.007895    2.984946
     20          6           0        3.766870    0.002948    6.118582
     21          6           0        3.374642   -3.282547    5.161634
     22          8           0        3.533181   -4.461054    4.691994
     23          6           0        2.896153   -3.065559    6.538953
     24          7           0        4.839727   -2.218891    0.021201
     25          6           0        4.814678   -3.242876    0.881324
     26          6           0        5.083188   -4.545388    0.187563
     27          6           0        5.057448   -4.226515   -1.376857
     28          6           0        4.847563   -2.694001   -1.301904
     29          6           0        6.407135   -5.234232    0.546268
     30          6           0        4.087048   -5.062097   -2.248950
     31          6           0        2.656640   -4.721816   -1.895055
     32          7           0        4.381263    0.245408   -1.503218
     33          6           0        4.726818   -0.590410   -2.574981
     34          6           0        4.866138    0.268630   -3.765236
     35          6           0        4.606497    1.555054   -3.296679
     36          6           0        4.348734    1.506230   -1.896869
     37          6           0        5.250917   -0.164128   -5.064889
     38          6           0        4.511073    2.962617   -3.648126
     39          8           0        4.538016    3.596510   -4.704037
     40          6           0        4.441510    3.811426   -2.302574
     41          6           0        3.316797    4.800164   -2.446544
     42          8           0        2.131270    4.415700   -2.510410
     43          8           0        3.787595    6.040976   -2.248359
     44          6           0        2.716478    7.068073   -2.348022
     45          1           0        4.876358    1.941113    4.370594
     46          1           0        4.474222   -4.040070    2.639196
     47          1           0        5.079079   -2.397904   -3.392108
     48          1           0        4.955960    5.057734    0.536909
     49          1           0        4.514276    4.217790    3.191500
     50          1           0        6.904861    4.121302    1.391035
     51          1           0        6.843530    2.841639    2.642022
     52          1           0        6.827791    4.503644    3.159780
     53          1           0        2.433667    4.285293    2.017681
     54          1           0        2.295002    4.677868    0.257245
     55          1           0        3.733921    6.770079    1.537544
     56          1           0        2.606801    6.235738    2.725793
     57          1           0        4.085381    1.044558    6.106511
     58          1           0        4.486770   -0.493713    6.768798
     59          1           0        2.763438   -0.105558    6.530509
     60          1           0        3.667941   -2.550206    7.111058
     61          1           0        2.592617   -4.044035    6.909492
     62          1           0        2.035776   -2.396231    6.512507
     63          1           0        4.309066   -5.276874    0.415796
     64          1           0        6.031693   -4.379868   -1.841619
     65          1           0        6.283953   -6.248437    0.926950
     66          1           0        6.929012   -4.606364    1.267876
     67          1           0        7.132780   -5.280694   -0.265334
     68          1           0        4.221575   -6.125408   -2.053458
     69          1           0        4.223068   -4.901724   -3.318543
     70          1           0        2.464282   -5.351339   -1.026993
     71          1           0        1.989660   -4.978278   -2.718811
     72          1           0        2.562222   -3.684657   -1.572763
     73          1           0        4.588029    0.344816   -5.764550
     74          1           0        5.172516   -1.246811   -5.161088
     75          1           0        6.283158    0.184218   -5.096338
     76          1           0        5.407384    4.303336   -2.191970
     77          1           0        3.032032    7.788744   -3.102537
     78          1           0        2.545540    7.436691   -1.336436
     79          1           0        1.766287    6.734566   -2.766651
     80         12           0       -3.693881   -0.987566   -0.384892
     81          6           0       -6.444861    1.249333    0.169614
     82          6           0       -1.753836    1.767874   -0.912518
     83          6           0       -1.364284   -2.928994   -1.318298
     84          6           0       -6.035798   -3.507937   -0.940615
     85          7           0       -4.154437    1.175478   -0.347657
     86          6           0       -5.220342    1.909000   -0.064566
     87          6           0       -4.941568    3.431845    0.048538
     88          6           0       -3.618537    3.502156   -0.858936
     89          6           0       -3.117721    2.071429   -0.672187
     90          6           0       -3.911582    3.716852   -2.334532
     91          6           0       -4.650258    3.878190    1.524311
     92          6           0       -4.674867    5.390707    1.755465
     93          1           0       -5.187501    5.892163    3.027562
     94          7           0       -1.741614   -0.667844   -0.542957
     95          6           0       -1.123756    0.516983   -0.731933
     96          6           0        0.314228    0.214353   -0.801028
     97          6           0        0.482860   -1.264258   -0.802389
     98          6           0       -0.898974   -1.687063   -0.911302
     99          6           0        1.371935    1.279317   -0.777658
    100          6           0        1.689181   -2.150841   -0.731913
    101          8           0        1.619134   -3.404763   -0.988021
    102          6           0        2.971610   -1.491390   -0.445601
    103          7           0       -3.695434   -2.881715   -1.241929
    104          6           0       -2.543068   -3.524433   -1.500577
    105          6           0       -2.792945   -4.970820   -1.855404
    106          6           0       -4.340359   -5.228354   -1.544356
    107          6           0       -4.756287   -3.799893   -1.129737
    108          6           0       -2.492918   -5.362269   -3.302168
    109          6           0       -4.679735   -6.404023   -0.587650
    110          6           0       -4.190055   -6.091523    0.808038
    111          7           0       -5.838647   -1.183369   -0.212533
    112          6           0       -6.618938   -2.319346   -0.520416
    113          6           0       -8.035044   -1.933111   -0.353350
    114          6           0       -7.980800   -0.581980    0.020801
    115          6           0       -6.627401   -0.150678    0.062946
    116          6           0       -9.159809   -2.772740   -0.590080
    117          6           0       -8.761218    0.580379    0.379371
    118          8           0       -9.953640    0.793339    0.595030
    119          6           0       -7.807806    1.852110    0.368767
    120          6           0       -8.053057    2.627051    1.634399
    121          8           0       -7.765124    2.137835    2.740905
    122          8           0       -8.381471    3.893212    1.319176
    123          6           0       -8.623605    4.704359    2.541959
    124          1           0       -1.111848    2.550296   -1.318175
    125          1           0       -0.594154   -3.670008   -1.544747
    126          1           0       -6.821945   -4.263665   -0.999921
    127          1           0       -5.713263    4.067182   -0.369336
    128          1           0       -2.901108    4.212804   -0.456890
    129          1           0       -4.969360    3.668440   -2.546426
    130          1           0       -3.384668    2.929002   -2.856752
    131          1           0       -3.464702    4.655322   -2.674957
    132          1           0       -3.599018    3.669065    1.760749
    133          1           0       -5.322844    3.397216    2.207637
    134          1           0       -5.134365    5.928375    0.917186
    135          1           0       -3.645030    5.755477    1.775586
    136          1           0        0.943150    2.275754   -0.940903
    137          1           0        2.012530    1.112948   -1.650484
    138          1           0        1.986799    1.242569    0.124152
    139          1           0        3.170176   -0.741549   -1.207683
    140          1           0        3.699747   -2.298804   -0.346732
    141          1           0        2.885118   -0.956774    0.506935
    142          1           0       -2.195794   -5.629490   -1.236796
    143          1           0       -4.905176   -5.467578   -2.457369
    144          1           0       -1.762323   -6.188650   -3.388202
    145          1           0       -2.138182   -4.484959   -3.826601
    146          1           0       -3.361461   -5.648949   -3.892633
    147          1           0       -4.159144   -7.311501   -0.903285
    148          1           0       -5.738548   -6.637241   -0.548558
    149          1           0       -3.135089   -6.379032    0.769573
    150          1           0       -4.732851   -6.679807    1.545141
    151          1           0       -4.231093   -5.014404    1.007548
    152          1           0       -9.848187   -2.609177    0.228383
    153          1           0       -8.867389   -3.818267   -0.661744
    154          1           0       -9.501342   -2.375338   -1.549606
    155          1           0       -8.048724    2.434750   -0.521219
    156          1           0       -9.626401    5.132459    2.447987
    157          1           0       -7.776800    5.413577    2.602533
    158          1           0       -8.706348    4.176916    3.485043
 ---------------------------------------------------------------------

 SCF Done:  E(RCAM-B3LYP) =  -4069.37961715     A.U. after   19 cycles

 Excitation energies and oscillator strengths:

 Excited State   1:      Singlet-A      1.5564 eV  796.61 nm  f=0.3417  <S**2>=0.000
     310 -> 313       -0.20757
     311 -> 313        0.51652
     312 -> 313       -0.17425
     312 -> 314        0.35665
 This state for optimization and/or second-order correction.
 Total Energy, E(TD-HF/TD-DFT) =  -4069.32242079
 Copying the excited state density for this state as the 1-particle RhoCI density.

 Excited State   2:      Singlet-A      1.5845 eV  782.50 nm  f=0.3526  <S**2>=0.000
     310 -> 313       -0.15232
     311 -> 313       -0.44578
     312 -> 313       -0.15776
     312 -> 314        0.47071

 Excited State   3:      Singlet-A      1.7323 eV  715.70 nm  f=0.1329  <S**2>=0.000
     310 -> 313        0.47970
     312 -> 313        0.32941
     312 -> 314        0.34165

 Excited State   4:      Singlet-A      2.0218 eV  613.22 nm  f=0.0110  <S**2>=0.000
     308 -> 313        0.13956
     310 -> 313       -0.34381
     310 -> 314        0.13292
     312 -> 313        0.56090

 Excited State   5:      Singlet-A      2.0477 eV  605.49 nm  f=0.0673  <S**2>=0.000
     308 -> 313       -0.17718
     310 -> 314        0.52703
     310 -> 316       -0.13340
     310 -> 318        0.12437
     311 -> 314       -0.25380
     311 -> 315        0.13484

 The electronic state is 1-A.
 Alpha  occ. eigenvalues --  -46.87704 -46.87297 -19.26994 -19.26147 -19.20420
 Alpha  occ. eigenvalues --  -19.19914 -19.19631 -19.18940 -19.18241 -19.17698
 Alpha  occ. eigenvalues --  -14.43264 -14.42787 -14.42120 -14.41024 -14.40071
 Alpha  occ. eigenvalues --  -14.38974 -14.38539 -14.38234 -10.39874 -10.38862
 Alpha  occ. eigenvalues --  -10.36222 -10.35107 -10.34554 -10.33886 -10.32334
 Alpha  occ. eigenvalues --  -10.32325 -10.31713 -10.31606 -10.31564 -10.31133
 Alpha  occ. eigenvalues --  -10.30909 -10.30822 -10.30596 -10.30584 -10.30129
 Alpha  occ. eigenvalues --  -10.30049 -10.29917 -10.29774 -10.29744 -10.29243
 Alpha  occ. eigenvalues --  -10.29112 -10.29040 -10.28996 -10.28788 -10.28717
 Alpha  occ. eigenvalues --  -10.28699 -10.28496 -10.28422 -10.28361 -10.28236
 Alpha  occ. eigenvalues --  -10.28158 -10.27981 -10.27827 -10.27703 -10.27652
 Alpha  occ. eigenvalues --  -10.27558 -10.27539 -10.27319 -10.27307 -10.27265
 Alpha  occ. eigenvalues --  -10.27250 -10.27130 -10.27128 -10.27122 -10.26974
 Alpha  occ. eigenvalues --  -10.26813 -10.26762 -10.26740 -10.26587 -10.26448
 Alpha  occ. eigenvalues --  -10.26112 -10.25958 -10.25868 -10.25831 -10.25561
 Alpha  occ. eigenvalues --  -10.25528 -10.25503 -10.25347 -10.25318 -10.24817
 Alpha  occ. eigenvalues --  -10.24589 -10.24567 -10.24467 -10.23508 -10.23269
 Alpha  occ. eigenvalues --  -10.18985  -3.17741  -3.16049  -1.92875  -1.92142
 Alpha  occ. eigenvalues --   -1.91928  -1.90932  -1.90520  -1.90356  -1.17356
 Alpha  occ. eigenvalues --   -1.16436  -1.12968  -1.09367  -1.08796  -1.08326
 Alpha  occ. eigenvalues --   -1.07985  -1.07441  -1.06722  -1.05073  -1.04334
 Alpha  occ. eigenvalues --   -1.04132  -1.03463  -1.03355  -1.02707  -1.01750
 Alpha  occ. eigenvalues --   -0.92710  -0.91629  -0.90644  -0.89974  -0.89653
 Alpha  occ. eigenvalues --   -0.89229  -0.88771  -0.88444  -0.88270  -0.88045
 Alpha  occ. eigenvalues --   -0.88002  -0.87430  -0.87329  -0.86944  -0.85665
 Alpha  occ. eigenvalues --   -0.84794  -0.84280  -0.83896  -0.83603  -0.83427
 Alpha  occ. eigenvalues --   -0.82676  -0.82434  -0.82122  -0.81358  -0.81127
 Alpha  occ. eigenvalues --   -0.80325  -0.79497  -0.78742  -0.77605  -0.77353
 Alpha  occ. eigenvalues --   -0.76864  -0.76616  -0.76428  -0.75728  -0.75331
 Alpha  occ. eigenvalues --   -0.74519  -0.73339  -0.72554  -0.72323  -0.71404
 Alpha  occ. eigenvalues --   -0.71258  -0.69645  -0.69516  -0.68756  -0.68342
 Alpha  occ. eigenvalues --   -0.67957  -0.67784  -0.67174  -0.67037  -0.65908
 Alpha  occ. eigenvalues --   -0.65519  -0.65270  -0.64972  -0.64496  -0.64437
 Alpha  occ. eigenvalues --   -0.63959  -0.63133  -0.62327  -0.61950  -0.61490
 Alpha  occ. eigenvalues --   -0.60843  -0.59995  -0.59484  -0.59261  -0.59090
 Alpha  occ. eigenvalues --   -0.58693  -0.58396  -0.58239  -0.57969  -0.57573
 Alpha  occ. eigenvalues --   -0.57264  -0.57139  -0.56704  -0.56409  -0.56068
 Alpha  occ. eigenvalues --   -0.55753  -0.55638  -0.55353  -0.55294  -0.55019
 Alpha  occ. eigenvalues --   -0.54982  -0.54476  -0.54266  -0.53908  -0.53767
 Alpha  occ. eigenvalues --   -0.53689  -0.53537  -0.53283  -0.52898  -0.52730
 Alpha  occ. eigenvalues --   -0.52633  -0.52516  -0.52258  -0.52188  -0.51838
 Alpha  occ. eigenvalues --   -0.51549  -0.51494  -0.51269  -0.51185  -0.50921
 Alpha  occ. eigenvalues --   -0.50652  -0.50557  -0.50275  -0.50090  -0.49778
 Alpha  occ. eigenvalues --   -0.49710  -0.49514  -0.49458  -0.49293  -0.49132
 Alpha  occ. eigenvalues --   -0.48874  -0.48835  -0.48728  -0.48677  -0.48300
 Alpha  occ. eigenvalues --   -0.48210  -0.48034  -0.47942  -0.47842  -0.47294
 Alpha  occ. eigenvalues --   -0.47177  -0.46810  -0.46547  -0.46403  -0.46352
 Alpha  occ. eigenvalues --   -0.46271  -0.46074  -0.45874  -0.45754  -0.45535
 Alpha  occ. eigenvalues --   -0.45442  -0.45144  -0.44991  -0.44778  -0.44676
 Alpha  occ. eigenvalues --   -0.44593  -0.44305  -0.44213  -0.44053  -0.43963
 Alpha  occ. eigenvalues --   -0.43879  -0.43750  -0.43578  -0.43542  -0.43519
 Alpha  occ. eigenvalues --   -0.43287  -0.43153  -0.42978  -0.42883  -0.42614
 Alpha  occ. eigenvalues --   -0.42553  -0.42256  -0.42101  -0.41970  -0.41750
 Alpha  occ. eigenvalues --   -0.41564  -0.41436  -0.41395  -0.41220  -0.41126
 Alpha  occ. eigenvalues --   -0.40941  -0.40765  -0.40510  -0.40417  -0.40231
 Alpha  occ. eigenvalues --   -0.40087  -0.39897  -0.39227  -0.38870  -0.38342
 Alpha  occ. eigenvalues --   -0.38135  -0.38009  -0.37494  -0.37379  -0.37297
 Alpha  occ. eigenvalues --   -0.37003  -0.36906  -0.36555  -0.36237  -0.36095
 Alpha  occ. eigenvalues --   -0.35943  -0.35323  -0.34515  -0.33914  -0.33653
 Alpha  occ. eigenvalues --   -0.33555  -0.32881  -0.32689  -0.32076  -0.30685
 Alpha  occ. eigenvalues --   -0.30349  -0.30138  -0.29822  -0.29612  -0.29148
 Alpha  occ. eigenvalues --   -0.28945  -0.28851  -0.24579  -0.23773  -0.22621
 Alpha  occ. eigenvalues --   -0.21833  -0.20594
 Alpha virt. eigenvalues --   -0.09382  -0.08475  -0.02616  -0.01602  -0.00791
 Alpha virt. eigenvalues --   -0.00235   0.01258   0.02411   0.03342   0.03541
 Alpha virt. eigenvalues --    0.04302   0.04884   0.05059   0.05401   0.05908

 Mulliken charges:
               1
     1  Mg   0.414055
     2  C    0.015933
     3  C   -0.104574
     4  C   -0.033647
     5  C   -0.010766
     6  N   -0.242275
     7  C   -0.062048
     8  C   -0.013268
     9  C   -0.085357
    10  C    0.057253
    11  C    0.104999
    12  C    0.049689
    13  C   -0.071548
    14  H    0.034094
    15  N   -0.413106
    16  C    0.182127
    17  C   -0.176348
    18  C   -0.000137
    19  C    0.154577
    20  C    0.110013
    21  C    0.015770
    22  O   -0.243270
    23  C    0.061107
    24  N   -0.197145
    25  C   -0.018434
    26  C   -0.005368
    27  C    0.014035
    28  C   -0.054189
    29  C    0.084642
    30  C    0.085379
    31  C   -0.033983
    32  N   -0.338898
    33  C    0.028808
    34  C   -0.152044
    35  C    0.012249
    36  C    0.041045
    37  C    0.127960
    38  C    0.042207
    39  O   -0.190343
    40  C   -0.008255
    41  C    0.216358
    42  O   -0.262682
    43  O   -0.302795
    44  C    0.156785
    45  H   -0.018601
    46  H   -0.008664
    47  H   -0.040624
    48  H    0.000421
    49  H   -0.003619
    50  H    0.027764
    51  H    0.018016
    52  H    0.018027
    53  H    0.011584
    54  H    0.042554
    55  H    0.019607
    56  H    0.019376
    57  H    0.009235
    58  H    0.030354
    59  H    0.044468
    60  H    0.038193
    61  H    0.039532
    62  H    0.034139
    63  H    0.018885
    64  H    0.000838
    65  H    0.023477
    66  H    0.006360
    67  H    0.006990
    68  H   -0.019095
    69  H   -0.017845
    70  H   -0.017890
    71  H   -0.008835
    72  H    0.034290
    73  H    0.045571
    74  H    0.010834
    75  H    0.044690
    76  H    0.036380
    77  H    0.045585
    78  H    0.047269
    79  H    0.051446
    80  Mg   0.836806
    81  C   -0.016559
    82  C   -0.094047
    83  C   -0.056409
    84  C   -0.065540
    85  N   -0.254143
    86  C   -0.051039
    87  C   -0.015097
    88  C   -0.088983
    89  C    0.043719
    90  C    0.114356
    91  C    0.062899
    92  C   -0.076652
    93  H    0.032042
    94  N   -0.425329
    95  C    0.158059
    96  C   -0.186597
    97  C    0.048326
    98  C    0.157025
    99  C    0.113865
   100  C    0.078267
   101  O   -0.157924
   102  C   -0.132718
   103  N   -0.350827
   104  C    0.036204
   105  C   -0.020155
   106  C   -0.034059
   107  C    0.088550
   108  C    0.072812
   109  C    0.035020
   110  C   -0.007352
   111  N   -0.323639
   112  C    0.076845
   113  C   -0.164685
   114  C    0.001912
   115  C    0.094785
   116  C    0.131781
   117  C    0.041338
   118  O   -0.189977
   119  C    0.001130
   120  C    0.211106
   121  O   -0.251980
   122  O   -0.305409
   123  C    0.152460
   124  H   -0.001284
   125  H   -0.018585
   126  H   -0.041870
   127  H   -0.001455
   128  H   -0.003402
   129  H    0.020649
   130  H    0.017643
   131  H    0.018034
   132  H    0.012960
   133  H    0.036594
   134  H    0.020994
   135  H    0.018483
   136  H    0.015084
   137  H    0.065055
   138  H    0.070583
   139  H    0.199272
   140  H    0.196774
   141  H    0.063925
   142  H    0.012449
   143  H    0.012048
   144  H    0.023680
   145  H    0.011872
   146  H    0.006417
   147  H    0.005133
   148  H    0.003524
   149  H    0.010071
   150  H    0.017340
   151  H    0.030602
   152  H    0.044640
   153  H    0.007381
   154  H    0.046009
   155  H    0.034752
   156  H    0.043347
   157  H    0.049037
   158  H    0.052736
 Sum of Mulliken charges =  -0.00000

 Dipole moment (field-independent basis, Debye):
    X=              5.3855    Y=              2.9512    Z=              3.8213  Tot=              7.2329
 Quadrupole moment (field-independent basis, Debye-Ang):
   XX=           -555.4197   YY=           -472.4615   ZZ=           -508.3984
   XY=             12.0653   XZ=             37.4275   YZ=             34.9267

 Normal termination of Gaussian 16 at Wed Sep  8 13:48:18 2021.
