 Gaussian 16, Revision A.03,
 Gaussian 16:  ES64L-G16RevA.03 25-Dec-2016

 -----------------------------------
 #p cam-b3lyp/Def2SVP td=(nstates=5)
 -----------------------------------

 --------------------------------
 TDDFT excited states in gaussian
 --------------------------------
 Symbolic Z-matrix:
 Charge =  0 Multiplicity = 1

                         Standard orientation:
 ---------------------------------------------------------------------
 Center     Atomic      Atomic             Coordinates (Angstroms)
 Number     Number       Type             X           Y           Z
 ---------------------------------------------------------------------
      1         12           0       -7.550478    0.768204   -0.333503
      2          6           0       -7.919142   -2.350182    1.384627
      3          6           0       -8.463915    2.306772    2.571924
      4          6           0       -7.673524    3.497026   -1.944406
      5          6           0       -7.781038   -1.017393   -3.317484
      6          7           0       -8.095860   -0.028744    1.658501
      7          6           0       -8.140101   -1.240480    2.203397
      8          6           0       -8.369071   -1.216986    3.744304
      9          6           0       -9.076030    0.206349    3.872072
     10          6           0       -8.483940    0.882398    2.648016
     11          6           0      -10.592319    0.149650    3.716653
     12          6           0       -7.024796   -1.262983    4.545889
     13          6           0       -7.164866   -1.571331    6.039427
     14          1           0       -6.137159   -2.371030    6.688772
     15          7           0       -7.523957    2.636693    0.307509
     16          6           0       -7.916526    3.080580    1.525762
     17          6           0       -7.704090    4.543939    1.514257
     18          6           0       -7.335131    4.939269    0.126569
     19          6           0       -7.524105    3.694581   -0.573730
     20          6           0       -7.806973    5.399972    2.739154
     21          6           0       -6.893946    6.235980   -0.475118
     22          8           0       -6.847889    6.418237   -1.739727
     23          6           0       -6.597853    7.330340    0.467084
     24          7           0       -7.924491    1.218753   -2.337188
     25          6           0       -7.859910    2.477384   -2.785140
     26          6           0       -7.882249    2.525251   -4.284190
     27          6           0       -7.730319    1.014039   -4.777047
     28          6           0       -7.729114    0.314252   -3.395538
     29          6           0       -9.137042    3.144192   -4.915394
     30          6           0       -6.572408    0.707975   -5.759893
     31          6           0       -5.244085    0.882940   -5.058436
     32          7           0       -7.626982   -1.324303   -0.904998
     33          6           0       -7.744955   -1.839816   -2.203845
     34          6           0       -7.865527   -3.303968   -2.078193
     35          6           0       -7.825716   -3.538568   -0.705159
     36          6           0       -7.715347   -2.297357   -0.015589
     37          6           0       -8.049731   -4.220113   -3.151124
     38          6           0       -7.875530   -4.547162    0.340841
     39          8           0       -7.870674   -5.778888    0.358719
     40          6           0       -8.060661   -3.809402    1.739863
     41          6           0       -7.063980   -4.399195    2.700113
     42          8           0       -5.838808   -4.227704    2.536068
     43          8           0       -7.709400   -4.865029    3.780379
     44          6           0       -6.775252   -5.437335    4.786354
     45          1           0       -8.963382    2.884112    3.352406
     46          1           0       -7.609870    4.406517   -2.545415
     47          1           0       -7.771501   -1.647020   -4.209074
     48          1           0       -9.032936   -1.997202    4.117092
     49          1           0       -8.773704    0.731022    4.778185
     50          1           0      -10.924998   -0.843354    3.414676
     51          1           0      -10.833566    0.882537    2.946478
     52          1           0      -11.087923    0.494758    4.624427
     53          1           0       -6.605453   -0.258482    4.602364
     54          1           0       -6.330693   -1.972920    4.094737
     55          1           0       -8.156328   -1.959123    6.275073
     56          1           0       -7.103615   -0.632127    6.589286
     57          1           0       -8.254032    4.856916    3.570883
     58          1           0       -8.522309    6.191164    2.515505
     59          1           0       -6.847911    5.838675    3.014964
     60          1           0       -7.486505    7.543806    1.061458
     61          1           0       -6.212123    8.150944   -0.136796
     62          1           0       -5.833160    6.995223    1.168434
     63          1           0       -7.049204    3.111985   -4.669164
     64          1           0       -8.621168    0.662156   -5.297854
     65          1           0       -8.925591    3.986442   -5.574641
     66          1           0       -9.809860    3.437297   -4.109978
     67          1           0       -9.759424    2.445908   -5.474375
     68          1           0       -6.588832    1.407655   -6.594832
     69          1           0       -6.612541   -0.300588   -6.171526
     70          1           0       -5.066296    1.954830   -5.137651
     71          1           0       -4.465175    0.318947   -5.572656
     72          1           0       -5.319328    0.642632   -3.997740
     73          1           0       -7.386884   -5.061804   -2.950728
     74          1           0       -7.822478   -3.756712   -4.110926
     75          1           0       -9.108913   -4.451479   -3.039503
     76          1           0       -9.088160   -3.988344    2.055057
     77          1           0       -7.098419   -6.460416    4.978974
     78          1           0       -6.762710   -4.743850    5.627381
     79          1           0       -5.750630   -5.604598    4.452418
     80         12           0        8.298751    0.203622    0.176458
     81          6           0        5.744741   -1.922913   -1.177777
     82          6           0        6.193398    2.830572   -0.372372
     83          6           0       10.686346    2.148415    0.941022
     84          6           0       10.570917   -2.365854   -0.440619
     85          7           0        6.258338    0.312664   -0.670363
     86          6           0        5.363754   -0.567453   -1.093987
     87          6           0        3.957311    0.027831   -1.371712
     88          6           0        4.389163    1.551785   -1.636165
     89          6           0        5.676833    1.586862   -0.815587
     90          6           0        4.739800    1.834744   -3.087486
     91          6           0        3.002283   -0.091776   -0.132505
     92          6           0        1.526792    0.185740   -0.428567
     93          1           0        0.515713   -0.581913    0.293165
     94          7           0        8.276002    2.109672    0.728760
     95          6           0        7.332854    3.030011    0.437685
     96          6           0        7.789370    4.283741    1.057280
     97          6           0        9.159175    4.068332    1.597614
     98          6           0        9.441353    2.744325    1.080446
     99          6           0        6.919359    5.502359    1.164466
    100          6           0       10.070074    4.919041    2.429930
    101          8           0       11.308956    4.628481    2.583540
    102          6           0        9.491562    6.152262    2.983095
    103          7           0       10.365414    0.017289    0.047935
    104          6           0       11.176630    0.990384    0.498427
    105          6           0       12.610952    0.521600    0.556307
    106          6           0       12.559974   -1.052590    0.278981
    107          6           0       11.047843   -1.213068    0.008615
    108          6           0       13.567309    1.182268   -0.436308
    109          6           0       13.223628   -1.975532    1.337470
    110          6           0       12.443370   -1.921471    2.631179
    111          7           0        8.182193   -1.851125   -0.481173
    112          6           0        9.258034   -2.739963   -0.697088
    113          6           0        8.689068   -3.985859   -1.250660
    114          6           0        7.313433   -3.725020   -1.340665
    115          6           0        7.046631   -2.402289   -0.894914
    116          6           0        9.429595   -5.137486   -1.639878
    117          6           0        6.027705   -4.264159   -1.721369
    118          8           0        5.621839   -5.366465   -2.087342
    119          6           0        4.970951   -3.077260   -1.751669
    120          6           0        3.740872   -3.531618   -1.014797
    121          8           0        3.785165   -3.763806    0.206165
    122          8           0        2.672265   -3.408052   -1.822987
    123          6           0        1.426211   -3.836160   -1.133143
    124          1           0        5.705458    3.745167   -0.710488
    125          1           0       11.534153    2.738999    1.295873
    126          1           0       11.201258   -3.248580   -0.567668
    127          1           0        3.458302   -0.374169   -2.245301
    128          1           0        3.658470    2.245741   -1.228893
    129          1           0        4.754597    0.933084   -3.681559
    130          1           0        5.720410    2.292057   -3.069429
    131          1           0        4.062954    2.589174   -3.498632
    132          1           0        3.212550    0.731426    0.562370
    133          1           0        3.102699   -1.052181    0.334600
    134          1           0        1.314915    0.184096   -1.504706
    135          1           0        1.295016    1.205380   -0.111337
    136          1           0        6.027046    5.416419    0.532173
    137          1           0        7.481397    6.335782    0.729280
    138          1           0        6.665054    5.748800    2.197547
    139          1           0        9.125901    6.775684    2.170632
    140          1           0       10.268161    6.578878    3.620877
    141          1           0        8.620655    5.887248    3.592931
    142          1           0       13.034092    0.691844    1.538691
    143          1           0       13.076192   -1.318682   -0.655117
    144          1           0       14.433923    1.668477    0.050151
    145          1           0       13.008639    1.899529   -1.022789
    146          1           0       13.968264    0.520138   -1.201832
    147          1           0       14.231970   -1.623179    1.568219
    148          1           0       13.308898   -3.008535    1.017117
    149          1           0       12.833356   -1.022131    3.117166
    150          1           0       12.634597   -2.808839    3.231222
    151          1           0       11.376458   -1.756936    2.440716
    152          1           0        8.886321   -5.996746   -1.269688
    153          1           0       10.444284   -5.108771   -1.248284
    154          1           0        9.405934   -5.026270   -2.727227
    155          1           0        4.761456   -2.851783   -2.798020
    156          1           0        0.965175   -4.608555   -1.756467
    157          1           0        0.844339   -2.910372   -0.965564
    158          1           0        1.530056   -4.359666   -0.189944
 ---------------------------------------------------------------------

 SCF Done:  E(RCAM-B3LYP) =  -4069.81189839     A.U. after   19 cycles

 Excitation energies and oscillator strengths:

 Excited State   1:      Singlet-A      1.6689 eV  742.89 nm  f=0.0131  <S**2>=0.000
     309 -> 315       -0.10744
     310 -> 316        0.13429
     311 -> 313       -0.42721
     312 -> 314        0.53728
 This state for optimization and/or second-order correction.
 Total Energy, E(TD-HF/TD-DFT) =  -4069.75056603
 Copying the excited state density for this state as the 1-particle RhoCI density.

 Excited State   2:      Singlet-A      1.6858 eV  735.46 nm  f=0.7396  <S**2>=0.000
     309 -> 315        0.13842
     310 -> 316        0.10947
     311 -> 313        0.53637
     312 -> 314        0.42658

 Excited State   3:      Singlet-A      2.1853 eV  567.36 nm  f=0.1042  <S**2>=0.000
     310 -> 314        0.64139
     312 -> 316       -0.27191

 Excited State   4:      Singlet-A      2.1924 eV  565.53 nm  f=0.0979  <S**2>=0.000
     309 -> 313        0.63947
     311 -> 315       -0.27750

 Excited State   5:      Singlet-A      2.7274 eV  454.59 nm  f=0.0000  <S**2>=0.000
     312 -> 313        0.70694

 The electronic state is 1-A.
 Alpha  occ. eigenvalues --  -46.87928 -46.87559 -19.26344 -19.26072 -19.19099
 Alpha  occ. eigenvalues --  -19.18965 -19.18924 -19.18638 -19.18271 -19.17919
 Alpha  occ. eigenvalues --  -14.42573 -14.42391 -14.41579 -14.41261 -14.39535
 Alpha  occ. eigenvalues --  -14.39253 -14.38716 -14.38497 -10.39159 -10.38861
 Alpha  occ. eigenvalues --  -10.35600 -10.35318 -10.34490 -10.34091 -10.31708
 Alpha  occ. eigenvalues --  -10.31519 -10.31381 -10.31193 -10.31028 -10.30909
 Alpha  occ. eigenvalues --  -10.30692 -10.30638 -10.30341 -10.30297 -10.30253
 Alpha  occ. eigenvalues --  -10.30055 -10.30049 -10.29797 -10.29759 -10.29385
 Alpha  occ. eigenvalues --  -10.29345 -10.29302 -10.28842 -10.28596 -10.28568
 Alpha  occ. eigenvalues --  -10.28490 -10.28415 -10.28298 -10.28212 -10.28009
 Alpha  occ. eigenvalues --  -10.27915 -10.27900 -10.27848 -10.27716 -10.27638
 Alpha  occ. eigenvalues --  -10.27611 -10.27586 -10.27566 -10.27523 -10.27443
 Alpha  occ. eigenvalues --  -10.27392 -10.27370 -10.27370 -10.27300 -10.27253
 Alpha  occ. eigenvalues --  -10.26891 -10.26790 -10.26574 -10.26506 -10.26360
 Alpha  occ. eigenvalues --  -10.26337 -10.26319 -10.26148 -10.26071 -10.25944
 Alpha  occ. eigenvalues --  -10.25906 -10.25840 -10.25756 -10.25557 -10.25332
 Alpha  occ. eigenvalues --  -10.24953 -10.24918 -10.24874 -10.24767 -10.24665
 Alpha  occ. eigenvalues --  -10.24592  -3.16672  -3.16310  -1.91554  -1.91192
 Alpha  occ. eigenvalues --   -1.91140  -1.90982  -1.90780  -1.90617  -1.16696
 Alpha  occ. eigenvalues --   -1.16377  -1.08725  -1.08516  -1.07368  -1.06892
 Alpha  occ. eigenvalues --   -1.06719  -1.06707  -1.04702  -1.04386  -1.03888
 Alpha  occ. eigenvalues --   -1.03561  -1.03363  -1.02941  -1.02539  -1.02011
 Alpha  occ. eigenvalues --   -0.92087  -0.91865  -0.89655  -0.89401  -0.89286
 Alpha  occ. eigenvalues --   -0.89014  -0.88420  -0.88133  -0.87986  -0.87791
 Alpha  occ. eigenvalues --   -0.87691  -0.87571  -0.87409  -0.87035  -0.85086
 Alpha  occ. eigenvalues --   -0.84864  -0.84071  -0.83783  -0.83112  -0.82853
 Alpha  occ. eigenvalues --   -0.82758  -0.82522  -0.81677  -0.81411  -0.80707
 Alpha  occ. eigenvalues --   -0.80291  -0.78925  -0.78542  -0.77338  -0.77033
 Alpha  occ. eigenvalues --   -0.77029  -0.76744  -0.76020  -0.75684  -0.75020
 Alpha  occ. eigenvalues --   -0.74695  -0.72896  -0.72597  -0.71786  -0.71466
 Alpha  occ. eigenvalues --   -0.70052  -0.69676  -0.68982  -0.68696  -0.67762
 Alpha  occ. eigenvalues --   -0.67486  -0.67326  -0.67060  -0.65390  -0.65128
 Alpha  occ. eigenvalues --   -0.64967  -0.64731  -0.64652  -0.64500  -0.64400
 Alpha  occ. eigenvalues --   -0.64103  -0.62387  -0.62082  -0.60577  -0.60251
 Alpha  occ. eigenvalues --   -0.59911  -0.59671  -0.59107  -0.58879  -0.58621
 Alpha  occ. eigenvalues --   -0.58305  -0.57684  -0.57431  -0.57392  -0.57128
 Alpha  occ. eigenvalues --   -0.56428  -0.56096  -0.56058  -0.55689  -0.55643
 Alpha  occ. eigenvalues --   -0.55457  -0.55319  -0.55119  -0.54631  -0.54335
 Alpha  occ. eigenvalues --   -0.53994  -0.53771  -0.53425  -0.53334  -0.53119
 Alpha  occ. eigenvalues --   -0.53024  -0.53008  -0.52881  -0.52749  -0.52584
 Alpha  occ. eigenvalues --   -0.52569  -0.52316  -0.52025  -0.51779  -0.51722
 Alpha  occ. eigenvalues --   -0.51518  -0.51308  -0.51069  -0.50715  -0.50399
 Alpha  occ. eigenvalues --   -0.50167  -0.50047  -0.49876  -0.49781  -0.49628
 Alpha  occ. eigenvalues --   -0.49377  -0.49328  -0.49193  -0.49076  -0.48970
 Alpha  occ. eigenvalues --   -0.48694  -0.48595  -0.48561  -0.48410  -0.48282
 Alpha  occ. eigenvalues --   -0.48227  -0.47811  -0.47471  -0.47415  -0.47009
 Alpha  occ. eigenvalues --   -0.46918  -0.46655  -0.46597  -0.46482  -0.46414
 Alpha  occ. eigenvalues --   -0.46276  -0.46163  -0.45958  -0.45916  -0.45665
 Alpha  occ. eigenvalues --   -0.45330  -0.45113  -0.44682  -0.44634  -0.44376
 Alpha  occ. eigenvalues --   -0.44353  -0.44275  -0.44191  -0.44129  -0.44008
 Alpha  occ. eigenvalues --   -0.43969  -0.43815  -0.43590  -0.43501  -0.43372
 Alpha  occ. eigenvalues --   -0.43248  -0.43141  -0.42822  -0.42797  -0.42747
 Alpha  occ. eigenvalues --   -0.42685  -0.42466  -0.42135  -0.41851  -0.41819
 Alpha  occ. eigenvalues --   -0.41637  -0.41547  -0.41324  -0.41254  -0.40986
 Alpha  occ. eigenvalues --   -0.40959  -0.40876  -0.40697  -0.40620  -0.40576
 Alpha  occ. eigenvalues --   -0.40390  -0.40327  -0.40068  -0.39592  -0.39346
 Alpha  occ. eigenvalues --   -0.38597  -0.38253  -0.37845  -0.37490  -0.37449
 Alpha  occ. eigenvalues --   -0.37369  -0.37165  -0.37060  -0.36806  -0.36565
 Alpha  occ. eigenvalues --   -0.36299  -0.36073  -0.34410  -0.34146  -0.33860
 Alpha  occ. eigenvalues --   -0.33652  -0.33309  -0.33065  -0.31494  -0.31196
 Alpha  occ. eigenvalues --   -0.31159  -0.30865  -0.30128  -0.29818  -0.29581
 Alpha  occ. eigenvalues --   -0.29445  -0.29232  -0.29107  -0.24206  -0.23931
 Alpha  occ. eigenvalues --   -0.21253  -0.21016
 Alpha virt. eigenvalues --   -0.08901  -0.08691  -0.01880  -0.01586  -0.00189
 Alpha virt. eigenvalues --    0.00068   0.02082   0.02320   0.02942   0.03325
 Alpha virt. eigenvalues --    0.04608   0.04862   0.05016   0.05382   0.06096

 Mulliken charges:
               1
     1  Mg   0.837849
     2  C   -0.003037
     3  C   -0.093987
     4  C   -0.046221
     5  C   -0.064047
     6  N   -0.256817
     7  C   -0.052377
     8  C   -0.013942
     9  C   -0.086980
    10  C    0.046228
    11  C    0.104746
    12  C    0.053435
    13  C   -0.072144
    14  H    0.036978
    15  N   -0.433155
    16  C    0.168175
    17  C   -0.177164
    18  C   -0.004262
    19  C    0.148530
    20  C    0.110110
    21  C    0.011794
    22  O   -0.249899
    23  C    0.062678
    24  N   -0.341098
    25  C    0.041233
    26  C   -0.028164
    27  C   -0.023988
    28  C    0.074653
    29  C    0.076099
    30  C    0.035171
    31  C   -0.004528
    32  N   -0.310468
    33  C    0.080198
    34  C   -0.169851
    35  C    0.008521
    36  C    0.082635
    37  C    0.127331
    38  C    0.046019
    39  O   -0.187709
    40  C   -0.005254
    41  C    0.213158
    42  O   -0.257564
    43  O   -0.304735
    44  C    0.157405
    45  H   -0.017348
    46  H   -0.016997
    47  H   -0.041291
    48  H    0.001291
    49  H   -0.003864
    50  H    0.025657
    51  H    0.016408
    52  H    0.016938
    53  H    0.010927
    54  H    0.044031
    55  H    0.018075
    56  H    0.017971
    57  H    0.006155
    58  H    0.026999
    59  H    0.039180
    60  H    0.037756
    61  H    0.035327
    62  H    0.030925
    63  H    0.016088
    64  H    0.009843
    65  H    0.023182
    66  H    0.012754
    67  H    0.005040
    68  H    0.006524
    69  H    0.005163
    70  H    0.008260
    71  H    0.017899
    72  H    0.028556
    73  H    0.047767
    74  H    0.009185
    75  H    0.046418
    76  H    0.035518
    77  H    0.043469
    78  H    0.046545
    79  H    0.054093
    80  Mg   0.837675
    81  C   -0.016566
    82  C   -0.087810
    83  C   -0.045738
    84  C   -0.065164
    85  N   -0.254537
    86  C   -0.049798
    87  C   -0.014909
    88  C   -0.090435
    89  C    0.045745
    90  C    0.114407
    91  C    0.062695
    92  C   -0.079095
    93  H    0.038320
    94  N   -0.423444
    95  C    0.162762
    96  C   -0.174795
    97  C   -0.008061
    98  C    0.152091
    99  C    0.099431
   100  C    0.015384
   101  O   -0.253471
   102  C    0.061299
   103  N   -0.350117
   104  C    0.037433
   105  C   -0.019761
   106  C   -0.034795
   107  C    0.089007
   108  C    0.073759
   109  C    0.034787
   110  C   -0.007641
   111  N   -0.324175
   112  C    0.078607
   113  C   -0.163232
   114  C    0.002416
   115  C    0.096179
   116  C    0.131482
   117  C    0.042365
   118  O   -0.187246
   119  C    0.001067
   120  C    0.211477
   121  O   -0.250982
   122  O   -0.306164
   123  C    0.151404
   124  H   -0.019769
   125  H   -0.015873
   126  H   -0.040627
   127  H   -0.000392
   128  H   -0.004256
   129  H    0.022384
   130  H    0.014091
   131  H    0.016285
   132  H    0.013261
   133  H    0.038167
   134  H    0.020657
   135  H    0.018723
   136  H    0.008741
   137  H    0.025889
   138  H    0.039319
   139  H    0.038146
   140  H    0.036068
   141  H    0.033676
   142  H    0.014206
   143  H    0.012281
   144  H    0.024899
   145  H    0.011599
   146  H    0.005511
   147  H    0.006048
   148  H    0.003609
   149  H    0.010789
   150  H    0.017819
   151  H    0.030272
   152  H    0.046206
   153  H    0.008318
   154  H    0.046858
   155  H    0.034894
   156  H    0.045005
   157  H    0.050619
   158  H    0.054726
 Sum of Mulliken charges =  -0.00000

 Dipole moment (field-independent basis, Debye):
    X=             -3.3952    Y=              7.1936    Z=              1.5400  Tot=              8.1023
 Quadrupole moment (field-independent basis, Debye-Ang):
   XX=           -479.9542   YY=           -548.6321   ZZ=           -475.6410
   XY=            -22.8663   XZ=            -33.0140   YZ=              7.5422

 Normal termination of Gaussian 16 at Sun Sep 12 01:58:56 2021.
