 Gaussian 16, Revision A.03,
 Gaussian 16:  ES64L-G16RevA.03 25-Dec-2016

 -----------------------------------
 #p cam-b3lyp/Def2SVP td=(nstates=5)
 -----------------------------------

 --------------------------------
 TDDFT excited states in gaussian
 --------------------------------
 Symbolic Z-matrix:
 Charge =  0 Multiplicity = 1

                         Standard orientation:
 ---------------------------------------------------------------------
 Center     Atomic      Atomic             Coordinates (Angstroms)
 Number     Number       Type             X           Y           Z
 ---------------------------------------------------------------------
      1         12           0       -3.341600   -1.970882    0.366214
      2          6           0       -5.289952    0.831886   -0.711113
      3          6           0       -3.691365   -3.235386   -2.783668
      4          6           0       -2.017884   -4.655311    1.414181
      5          6           0       -4.104866   -1.054931    3.640984
      6          7           0       -4.380202   -1.204649   -1.432352
      7          6           0       -5.038936   -0.089165   -1.730574
      8          6           0       -5.372392    0.044891   -3.246558
      9          6           0       -5.336380   -1.497281   -3.649556
     10          6           0       -4.385066   -2.005515   -2.580620
     11          6           0       -6.679689   -2.201149   -3.486486
     12          6           0       -4.288497    0.865492   -4.023422
     13          6           0       -4.695365    1.319729   -5.428228
     14          1           0       -4.229227    2.611626   -5.908924
     15          7           0       -2.500365   -3.457212   -0.626759
     16          6           0       -2.749939   -3.818728   -1.908283
     17          6           0       -1.875024   -4.978969   -2.182227
     18          6           0       -1.236215   -5.380369   -0.898133
     19          6           0       -1.921545   -4.519093    0.031333
     20          6           0       -1.677315   -5.555503   -3.550536
     21          6           0       -0.183802   -6.388671   -0.560666
     22          8           0        0.059990   -6.740149    0.644159
     23          6           0        0.502433   -7.027784   -1.698057
     24          7           0       -3.271752   -2.881102    2.243513
     25          6           0       -2.582161   -4.010621    2.437515
     26          6           0       -2.439708   -4.319291    3.898463
     27          6           0       -2.970262   -3.029759    4.676521
     28          6           0       -3.426533   -2.190021    3.457946
     29          6           0       -3.191797   -5.561180    4.396542
     30          6           0       -2.005977   -2.380111    5.700499
     31          6           0       -0.822975   -1.774554    4.978762
     32          7           0       -4.338411   -0.303693    1.334663
     33          6           0       -4.563179   -0.138779    2.709056
     34          6           0       -5.368449    1.085685    2.871224
     35          6           0       -5.571539    1.541919    1.570282
     36          6           0       -4.955851    0.644160    0.651996
     37          6           0       -5.860575    1.602535    4.102122
     38          6           0       -6.186408    2.565652    0.740967
     39          8           0       -6.762358    3.631591    0.963562
     40          6           0       -6.132672    2.081396   -0.775092
     41          6           0       -5.624126    3.230952   -1.601657
     42          8           0       -4.452724    3.641864   -1.473851
     43          8           0       -6.510131    3.508020   -2.570559
     44          6           0       -6.052528    4.620408   -3.445400
     45          1           0       -3.931340   -3.837979   -3.661868
     46          1           0       -1.478848   -5.510870    1.826368
     47          1           0       -4.309214   -0.660949    4.638217
     48          1           0       -6.356381    0.462642   -3.460272
     49          1           0       -4.908897   -1.649073   -4.640485
     50          1           0       -7.410049   -1.557169   -2.996807
     51          1           0       -6.475526   -3.079622   -2.874035
     52          1           0       -7.037206   -2.580131   -4.444260
     53          1           0       -3.453795    0.211061   -4.274527
     54          1           0       -3.970598    1.731862   -3.442329
     55          1           0       -5.769858    1.219234   -5.584027
     56          1           0       -4.251642    0.634558   -6.150620
     57          1           0       -2.402309   -5.159529   -4.260560
     58          1           0       -1.912857   -6.617584   -3.485623
     59          1           0       -0.654976   -5.426756   -3.906314
     60          1           0       -0.232791   -7.535306   -2.322889
     61          1           0        1.282736   -7.653075   -1.265635
     62          1           0        0.951045   -6.252942   -2.320404
     63          1           0       -1.396941   -4.491524    4.161897
     64          1           0       -3.869125   -3.242561    5.255688
     65          1           0       -2.549170   -6.298046    4.878999
     66          1           0       -3.719785   -5.997776    3.549250
     67          1           0       -4.014124   -5.353705    5.080756
     68          1           0       -1.614008   -3.133428    6.383008
     69          1           0       -2.476609   -1.601431    6.300845
     70          1           0       -0.156046   -2.625917    4.847537
     71          1           0       -0.356201   -1.004038    5.593284
     72          1           0       -1.100670   -1.421996    3.985245
     73          1           0       -5.692669    2.678980    4.069846
     74          1           0       -5.354039    1.147958    4.953229
     75          1           0       -6.909498    1.313682    4.037453
     76          1           0       -7.148111    1.797443   -1.049639
     77          1           0       -6.834718    5.379554   -3.434961
     78          1           0       -5.794094    4.173354   -4.405483
     79          1           0       -5.200484    5.197865   -3.084978
     80         12           0        3.471454    2.111993    0.182388
     81          6           0        4.946950   -0.814959   -1.278749
     82          6           0        3.520526    0.463736    3.168260
     83          6           0        1.766838    4.489924    1.410054
     84          6           0        2.502937    3.057303   -3.029165
     85          7           0        4.168992    0.089809    0.744919
     86          6           0        4.768207   -0.910745    0.117069
     87          6           0        5.272455   -2.045050    1.049087
     88          6           0        4.275057   -1.802713    2.284140
     89          6           0        3.992382   -0.315481    2.081845
     90          6           0        2.963686   -2.559865    2.156200
     91          6           0        6.770280   -1.848629    1.473277
     92          6           0        7.419095   -3.070727    2.126955
     93          1           0        8.831223   -3.333441    1.863593
     94          7           0        3.185498    2.644736    2.072624
     95          6           0        3.267688    1.853112    3.162504
     96          6           0        2.950676    2.715784    4.311182
     97          6           0        2.513672    4.041645    3.795574
     98          6           0        2.450424    3.764096    2.374641
     99          6           0        3.150617    2.281963    5.734293
    100          6           0        2.191971    5.340332    4.470944
    101          8           0        1.603099    6.294479    3.849932
    102          6           0        2.502302    5.427822    5.905360
    103          7           0        2.122012    3.456224   -0.650924
    104          6           0        1.561660    4.424949    0.094382
    105          6           0        0.845339    5.433796   -0.771357
    106          6           0        1.247795    5.071343   -2.276099
    107          6           0        2.092878    3.805416   -2.014101
    108          6           0       -0.677671    5.457608   -0.643826
    109          6           0        1.867356    6.209482   -3.132521
    110          6           0        3.228312    6.581521   -2.589584
    111          7           0        3.828120    1.394645   -1.824161
    112          6           0        3.305131    1.923355   -3.024595
    113          6           0        3.736480    1.029109   -4.118522
    114          6           0        4.466990    0.021509   -3.470760
    115          6           0        4.472298    0.259206   -2.069710
    116          6           0        3.404467    1.178079   -5.494640
    117          6           0        5.225857   -1.194957   -3.652533
    118          8           0        5.628907   -1.830095   -4.626118
    119          6           0        5.463692   -1.859750   -2.228494
    120          6           0        6.915778   -2.239502   -2.129844
    121          8           0        7.798874   -1.363905   -2.120944
    122          8           0        7.009841   -3.551060   -1.844652
    123          6           0        8.430957   -3.973121   -1.725845
    124          1           0        3.280260   -0.042140    4.103811
    125          1           0        1.253625    5.384985    1.769151
    126          1           0        2.324458    3.336691   -4.069729
    127          1           0        5.142338   -3.046633    0.657078
    128          1           0        4.775267   -1.969938    3.234496
    129          1           0        2.870331   -3.044480    1.195692
    130          1           0        2.183621   -1.820896    2.284534
    131          1           0        2.852000   -3.263271    2.986297
    132          1           0        6.815277   -1.141233    2.311313
    133          1           0        7.363450   -1.527311    0.639297
    134          1           0        6.824954   -3.980872    1.980050
    135          1           0        7.422058   -2.924467    3.209828
    136          1           0        3.325122    1.201213    5.804625
    137          1           0        2.198389    2.437661    6.252835
    138          1           0        3.928346    2.854740    6.243940
    139          1           0        1.964492    4.648063    6.439408
    140          1           0        2.285129    6.459462    6.188940
    141          1           0        3.570150    5.225988    6.045225
    142          1           0        1.180266    6.439883   -0.550638
    143          1           0        0.375926    4.750803   -2.865115
    144          1           0       -1.076591    6.450323   -0.361967
    145          1           0       -0.971218    4.710022    0.081084
    146          1           0       -1.220567    5.142591   -1.533338
    147          1           0        1.251125    7.109677   -3.068866
    148          1           0        1.961177    5.957077   -4.183462
    149          1           0        2.988944    7.273598   -1.776686
    150          1           0        3.827525    7.066691   -3.357436
    151          1           0        3.726318    5.711559   -2.145955
    152          1           0        4.309641    0.987425   -6.055716
    153          1           0        3.008126    2.169693   -5.702910
    154          1           0        2.641728    0.401458   -5.596419
    155          1           0        4.807731   -2.728335   -2.158777
    156          1           0        8.577713   -4.801718   -2.425549
    157          1           0        8.590542   -4.186254   -0.652133
    158          1           0        9.190404   -3.276374   -2.060861
 ---------------------------------------------------------------------

 SCF Done:  E(RCAM-B3LYP) =  -4069.81310234     A.U. after   19 cycles

 Excitation energies and oscillator strengths:

 Excited State   1:      Singlet-A      1.6448 eV  753.77 nm  f=0.0773  <S**2>=0.000
     309 -> 315        0.10827
     310 -> 316        0.12628
     311 -> 313       -0.44913
     312 -> 314        0.52090
 This state for optimization and/or second-order correction.
 Total Energy, E(TD-HF/TD-DFT) =  -4069.75265525
 Copying the excited state density for this state as the 1-particle RhoCI density.

 Excited State   2:      Singlet-A      1.6990 eV  729.75 nm  f=0.5908  <S**2>=0.000
     309 -> 315       -0.13650
     310 -> 316        0.11731
     311 -> 313        0.51805
     312 -> 314        0.44669

 Excited State   3:      Singlet-A      2.1786 eV  569.10 nm  f=0.0395  <S**2>=0.000
     309 -> 313        0.30459
     310 -> 314        0.56970
     311 -> 315        0.12478
     312 -> 316       -0.23409

 Excited State   4:      Singlet-A      2.1973 eV  564.26 nm  f=0.1394  <S**2>=0.000
     309 -> 313        0.56318
     310 -> 314       -0.29977
     311 -> 315        0.24884
     312 -> 316        0.13390

 Excited State   5:      Singlet-A      2.2228 eV  557.77 nm  f=0.0001  <S**2>=0.000
     312 -> 313        0.70682

 The electronic state is 1-A.
 Alpha  occ. eigenvalues --  -46.87949 -46.87369 -19.26532 -19.26222 -19.19342
 Alpha  occ. eigenvalues --  -19.19015 -19.18968 -19.18448 -19.18309 -19.17884
 Alpha  occ. eigenvalues --  -14.42599 -14.42205 -14.41625 -14.41019 -14.39551
 Alpha  occ. eigenvalues --  -14.39069 -14.38734 -14.38332 -10.39360 -10.38942
 Alpha  occ. eigenvalues --  -10.35592 -10.35127 -10.34536 -10.34063 -10.31918
 Alpha  occ. eigenvalues --  -10.31650 -10.31550 -10.31056 -10.31051 -10.30737
 Alpha  occ. eigenvalues --  -10.30713 -10.30672 -10.30388 -10.30127 -10.30120
 Alpha  occ. eigenvalues --  -10.30114 -10.29774 -10.29773 -10.29521 -10.29396
 Alpha  occ. eigenvalues --  -10.29168 -10.29141 -10.28897 -10.28706 -10.28508
 Alpha  occ. eigenvalues --  -10.28444 -10.28440 -10.28246 -10.28141 -10.27926
 Alpha  occ. eigenvalues --  -10.27866 -10.27835 -10.27772 -10.27754 -10.27720
 Alpha  occ. eigenvalues --  -10.27714 -10.27564 -10.27516 -10.27388 -10.27340
 Alpha  occ. eigenvalues --  -10.27300 -10.27227 -10.27207 -10.27000 -10.26880
 Alpha  occ. eigenvalues --  -10.26874 -10.26713 -10.26567 -10.26472 -10.26461
 Alpha  occ. eigenvalues --  -10.26347 -10.26199 -10.26192 -10.25953 -10.25755
 Alpha  occ. eigenvalues --  -10.25737 -10.25667 -10.25628 -10.25625 -10.25196
 Alpha  occ. eigenvalues --  -10.24968 -10.24968 -10.24638 -10.24400 -10.24338
 Alpha  occ. eigenvalues --  -10.24227  -3.16692  -3.16120  -1.91573  -1.91160
 Alpha  occ. eigenvalues --   -1.91002  -1.91002  -1.90589  -1.90428  -1.16886
 Alpha  occ. eigenvalues --   -1.16511  -1.08773  -1.08506  -1.07373  -1.06922
 Alpha  occ. eigenvalues --   -1.06802  -1.06695  -1.04730  -1.04214  -1.03930
 Alpha  occ. eigenvalues --   -1.03388  -1.03365  -1.02722  -1.02569  -1.01806
 Alpha  occ. eigenvalues --   -0.92134  -0.91739  -0.89763  -0.89333  -0.89148
 Alpha  occ. eigenvalues --   -0.88855  -0.88523  -0.88000  -0.87827  -0.87772
 Alpha  occ. eigenvalues --   -0.87580  -0.87384  -0.87361  -0.86890  -0.85139
 Alpha  occ. eigenvalues --   -0.84712  -0.84212  -0.83415  -0.83116  -0.82804
 Alpha  occ. eigenvalues --   -0.82631  -0.82356  -0.81776  -0.81386  -0.80764
 Alpha  occ. eigenvalues --   -0.80197  -0.78917  -0.78402  -0.77408  -0.77118
 Alpha  occ. eigenvalues --   -0.76862  -0.76576  -0.76087  -0.75578  -0.75115
 Alpha  occ. eigenvalues --   -0.74246  -0.72933  -0.72421  -0.71842  -0.71176
 Alpha  occ. eigenvalues --   -0.70214  -0.69305  -0.69026  -0.68549  -0.67800
 Alpha  occ. eigenvalues --   -0.67366  -0.67308  -0.66956  -0.65453  -0.65038
 Alpha  occ. eigenvalues --   -0.65007  -0.64823  -0.64498  -0.64488  -0.64375
 Alpha  occ. eigenvalues --   -0.63801  -0.62512  -0.62049  -0.60588  -0.60040
 Alpha  occ. eigenvalues --   -0.59946  -0.59522  -0.59164  -0.58680  -0.58679
 Alpha  occ. eigenvalues --   -0.58139  -0.57775  -0.57506  -0.57369  -0.56902
 Alpha  occ. eigenvalues --   -0.56455  -0.56181  -0.55973  -0.55677  -0.55666
 Alpha  occ. eigenvalues --   -0.55584  -0.55233  -0.54895  -0.54778  -0.54116
 Alpha  occ. eigenvalues --   -0.54046  -0.53625  -0.53471  -0.53369  -0.53129
 Alpha  occ. eigenvalues --   -0.52955  -0.52888  -0.52879  -0.52749  -0.52650
 Alpha  occ. eigenvalues --   -0.52426  -0.52049  -0.52026  -0.51755  -0.51716
 Alpha  occ. eigenvalues --   -0.51416  -0.51384  -0.50951  -0.50674  -0.50265
 Alpha  occ. eigenvalues --   -0.50233  -0.50049  -0.49697  -0.49663  -0.49377
 Alpha  occ. eigenvalues --   -0.49366  -0.49242  -0.49219  -0.48971  -0.48822
 Alpha  occ. eigenvalues --   -0.48773  -0.48666  -0.48587  -0.48321  -0.48100
 Alpha  occ. eigenvalues --   -0.47887  -0.47865  -0.47449  -0.47297  -0.46989
 Alpha  occ. eigenvalues --   -0.46777  -0.46711  -0.46530  -0.46396  -0.46353
 Alpha  occ. eigenvalues --   -0.46241  -0.45994  -0.45991  -0.45724  -0.45545
 Alpha  occ. eigenvalues --   -0.45427  -0.44758  -0.44670  -0.44630  -0.44352
 Alpha  occ. eigenvalues --   -0.44250  -0.44244  -0.44178  -0.44160  -0.43862
 Alpha  occ. eigenvalues --   -0.43742  -0.43712  -0.43684  -0.43558  -0.43328
 Alpha  occ. eigenvalues --   -0.43210  -0.43044  -0.42954  -0.42916  -0.42745
 Alpha  occ. eigenvalues --   -0.42572  -0.42245  -0.42149  -0.41874  -0.41698
 Alpha  occ. eigenvalues --   -0.41645  -0.41373  -0.41306  -0.41149  -0.41070
 Alpha  occ. eigenvalues --   -0.40971  -0.40794  -0.40632  -0.40451  -0.40400
 Alpha  occ. eigenvalues --   -0.40390  -0.40026  -0.39973  -0.39779  -0.39006
 Alpha  occ. eigenvalues --   -0.38702  -0.37915  -0.37872  -0.37533  -0.37417
 Alpha  occ. eigenvalues --   -0.37381  -0.36964  -0.36956  -0.36869  -0.36550
 Alpha  occ. eigenvalues --   -0.36419  -0.35818  -0.34445  -0.34044  -0.33959
 Alpha  occ. eigenvalues --   -0.33687  -0.33355  -0.32886  -0.31499  -0.31204
 Alpha  occ. eigenvalues --   -0.30996  -0.30671  -0.30173  -0.29793  -0.29584
 Alpha  occ. eigenvalues --   -0.29457  -0.29084  -0.28980  -0.24242  -0.23746
 Alpha  occ. eigenvalues --   -0.21281  -0.20822
 Alpha virt. eigenvalues --   -0.08920  -0.08526  -0.01916  -0.01363  -0.00197
 Alpha virt. eigenvalues --    0.00221   0.02040   0.02331   0.02551   0.03625
 Alpha virt. eigenvalues --    0.04556   0.04841   0.05046   0.05325   0.05964

 Mulliken charges:
               1
     1  Mg   0.839033
     2  C   -0.003248
     3  C   -0.093057
     4  C   -0.047023
     5  C   -0.063851
     6  N   -0.256665
     7  C   -0.052391
     8  C   -0.014164
     9  C   -0.087177
    10  C    0.046318
    11  C    0.104667
    12  C    0.053532
    13  C   -0.071715
    14  H    0.034558
    15  N   -0.433382
    16  C    0.168793
    17  C   -0.175987
    18  C   -0.004058
    19  C    0.148849
    20  C    0.109635
    21  C    0.010944
    22  O   -0.251295
    23  C    0.062199
    24  N   -0.340915
    25  C    0.041595
    26  C   -0.028146
    27  C   -0.023602
    28  C    0.074035
    29  C    0.076124
    30  C    0.035763
    31  C   -0.006950
    32  N   -0.310654
    33  C    0.080462
    34  C   -0.168978
    35  C    0.008696
    36  C    0.083083
    37  C    0.127212
    38  C    0.046231
    39  O   -0.187878
    40  C   -0.005809
    41  C    0.214811
    42  O   -0.258637
    43  O   -0.303979
    44  C    0.157515
    45  H   -0.016821
    46  H   -0.017682
    47  H   -0.041928
    48  H    0.001058
    49  H   -0.003368
    50  H    0.025515
    51  H    0.016594
    52  H    0.017242
    53  H    0.012085
    54  H    0.042408
    55  H    0.018448
    56  H    0.018934
    57  H    0.006374
    58  H    0.027082
    59  H    0.042470
    60  H    0.038145
    61  H    0.035509
    62  H    0.033804
    63  H    0.014383
    64  H    0.010073
    65  H    0.022770
    66  H    0.013438
    67  H    0.005116
    68  H    0.005542
    69  H    0.005278
    70  H    0.006515
    71  H    0.014821
    72  H    0.032705
    73  H    0.048692
    74  H    0.008604
    75  H    0.046085
    76  H    0.035779
    77  H    0.043950
    78  H    0.046783
    79  H    0.052416
    80  Mg   0.836613
    81  C   -0.017596
    82  C   -0.089116
    83  C   -0.044310
    84  C   -0.064467
    85  N   -0.255103
    86  C   -0.050163
    87  C   -0.014935
    88  C   -0.091295
    89  C    0.045903
    90  C    0.114247
    91  C    0.062556
    92  C   -0.077688
    93  H    0.033520
    94  N   -0.423890
    95  C    0.164078
    96  C   -0.175052
    97  C   -0.006890
    98  C    0.152336
    99  C    0.099386
   100  C    0.015532
   101  O   -0.251393
   102  C    0.061366
   103  N   -0.350501
   104  C    0.040236
   105  C   -0.022117
   106  C   -0.032751
   107  C    0.089179
   108  C    0.071508
   109  C    0.034478
   110  C   -0.007222
   111  N   -0.323767
   112  C    0.078067
   113  C   -0.164322
   114  C    0.001058
   115  C    0.096145
   116  C    0.131886
   117  C    0.040582
   118  O   -0.190625
   119  C    0.001667
   120  C    0.211143
   121  O   -0.251051
   122  O   -0.305890
   123  C    0.152264
   124  H   -0.019793
   125  H   -0.013321
   126  H   -0.041755
   127  H   -0.000419
   128  H   -0.005236
   129  H    0.024831
   130  H    0.014068
   131  H    0.018589
   132  H    0.013533
   133  H    0.037067
   134  H    0.021782
   135  H    0.019301
   136  H    0.008116
   137  H    0.024907
   138  H    0.039473
   139  H    0.037422
   140  H    0.036402
   141  H    0.033288
   142  H    0.012303
   143  H    0.013454
   144  H    0.023022
   145  H    0.019282
   146  H    0.016255
   147  H    0.006305
   148  H    0.001376
   149  H    0.011110
   150  H    0.016246
   151  H    0.029401
   152  H    0.045083
   153  H    0.008302
   154  H    0.043919
   155  H    0.032605
   156  H    0.042873
   157  H    0.050006
   158  H    0.053284
 Sum of Mulliken charges =  -0.00000

 Dipole moment (field-independent basis, Debye):
    X=             -2.5928    Y=             -4.3071    Z=              0.8859  Tot=              5.1048
 Quadrupole moment (field-independent basis, Debye-Ang):
   XX=           -531.1995   YY=           -526.8272   ZZ=           -462.4867
   XY=             15.0156   XZ=             50.3114   YZ=            -17.8360

 Normal termination of Gaussian 16 at Fri Sep  3 14:19:02 2021.
