 Gaussian 16, Revision A.03,
 Gaussian 16:  ES64L-G16RevA.03 25-Dec-2016

 -----------------------------------
 #p cam-b3lyp/Def2SVP td=(nstates=5)
 -----------------------------------

 --------------------------------
 TDDFT excited states in gaussian
 --------------------------------
 Symbolic Z-matrix:
 Charge =  0 Multiplicity = 1

                         Standard orientation:
 ---------------------------------------------------------------------
 Center     Atomic      Atomic             Coordinates (Angstroms)
 Number     Number       Type             X           Y           Z
 ---------------------------------------------------------------------
      1         12           0       -5.218103   -0.688822   -0.122020
      2          6           0       -5.420102    2.715123    0.966359
      3          6           0       -5.959886    0.426532   -3.260301
      4          6           0       -5.493126   -3.718914   -1.016181
      5          6           0       -5.618838   -1.623777    3.211286
      6          7           0       -5.615847    1.337377   -0.920121
      7          6           0       -5.603779    2.564892   -0.409991
      8          6           0       -5.729420    3.683046   -1.487636
      9          6           0       -6.449310    2.845008   -2.637179
     10          6           0       -5.951586    1.457109   -2.273957
     11          6           0       -7.971479    2.861680   -2.541115
     12          6           0       -4.333922    4.216784   -1.956082
     13          6           0       -4.368644    5.522090   -2.756285
     14          1           0       -3.286889    6.479517   -2.581682
     15          7           0       -5.179140   -1.502040   -1.922022
     16          6           0       -5.496435   -0.896181   -3.091443
     17          6           0       -5.309093   -1.917988   -4.143818
     18          6           0       -5.040355   -3.219530   -3.471609
     19          6           0       -5.255508   -2.866263   -2.091649
     20          6           0       -5.343655   -1.606509   -5.608583
     21          6           0       -4.661608   -4.570251   -3.991449
     22          8           0       -4.703296   -5.617225   -3.258864
     23          6           0       -4.320948   -4.651237   -5.423383
     24          7           0       -5.732712   -2.431507    0.905530
     25          6           0       -5.718763   -3.621817    0.295652
     26          6           0       -5.842193   -4.743266    1.284114
     27          6           0       -5.699025   -4.077335    2.728341
     28          6           0       -5.593936   -2.594282    2.295006
     29          6           0       -7.146338   -5.550276    1.221262
     30          6           0       -4.604688   -4.652152    3.662381
     31          6           0       -3.235405   -4.341371    3.100619
     32          7           0       -5.298630    0.331136    1.792202
     33          6           0       -5.494893   -0.253736    3.051599
     34          6           0       -5.582935    0.846109    4.029687
     35          6           0       -5.447472    2.002572    3.264123
     36          6           0       -5.311399    1.648594    1.891361
     37          6           0       -5.823625    0.703454    5.424733
     38          6           0       -5.410719    3.455889    3.283532
     39          8           0       -5.384629    4.310902    4.169965
     40          6           0       -5.513750    3.979797    1.783288
     41          6           0       -4.445547    5.021621    1.591315
     42          8           0       -3.237061    4.711601    1.619889
     43          8           0       -5.009524    6.164405    1.171178
     44          6           0       -4.000928    7.231270    0.933086
     45          1           0       -6.415307    0.629209   -4.231617
     46          1           0       -5.484666   -4.781710   -1.266844
     47          1           0       -5.658769   -1.842116    4.280017
     48          1           0       -6.354048    4.527471   -1.195731
     49          1           0       -6.095576    3.126981   -3.628685
     50          1           0       -8.307423    3.341097   -1.621755
     51          1           0       -8.275647    1.814924   -2.557732
     52          1           0       -8.410744    3.315497   -3.429862
     53          1           0       -3.928144    3.545788   -2.713162
     54          1           0       -3.660120    4.332589   -1.106432
     55          1           0       -5.335662    6.018077   -2.668061
     56          1           0       -4.286011    5.275989   -3.814967
     57          1           0       -5.725125   -0.603537   -5.795858
     58          1           0       -6.085142   -2.267297   -6.057208
     59          1           0       -4.375546   -1.763457   -6.084466
     60          1           0       -5.171168   -4.311725   -6.015335
     61          1           0       -3.989923   -5.674647   -5.596311
     62          1           0       -3.505662   -3.957924   -5.632127
     63          1           0       -5.046453   -5.474386    1.147413
     64          1           0       -6.616899   -4.162001    3.310589
     65          1           0       -6.993236   -6.618300    1.064453
     66          1           0       -7.768403   -5.124702    0.434361
     67          1           0       -7.793300   -5.441915    2.091385
     68          1           0       -4.688362   -5.736775    3.721865
     69          1           0       -4.655870   -4.259374    4.677939
     70          1           0       -3.080789   -5.142635    2.378884
     71          1           0       -2.483595   -4.376313    3.889778
     72          1           0       -3.235542   -3.401227    2.548699
     73          1           0       -5.135236    1.385014    5.924299
     74          1           0       -5.668715   -0.324997    5.750148
     75          1           0       -6.869050    1.006345    5.481285
     76          1           0       -6.514791    4.392970    1.663597
     77          1           0       -4.293779    8.090337    1.536805
     78          1           0       -3.943395    7.367849   -0.146933
     79          1           0       -2.998377    7.041391    1.318023
     80         12           0        5.364390   -0.819611    0.275762
     81          6           0        5.228885    2.696442   -0.430010
     82          6           0        4.605637   -1.355759   -3.006224
     83          6           0        5.032539   -3.900363    0.958578
     84          6           0        4.977809   -0.016968    3.645045
     85          7           0        4.989823    0.571386   -1.402661
     86          6           0        5.026329    1.885281   -1.565979
     87          6           0        4.915010    2.353299   -3.041830
     88          6           0        4.161782    1.069664   -3.645001
     89          6           0        4.638516    0.015590   -2.647847
     90          6           0        2.647691    1.162656   -3.554401
     91          6           0        6.319181    2.562020   -3.710228
     92          6           0        6.291403    3.311122   -5.044333
     93          1           0        7.397174    4.211026   -5.360438
     94          7           0        5.374095   -2.407249   -0.914985
     95          6           0        5.060849   -2.442154   -2.227205
     96          6           0        5.203861   -3.847563   -2.637732
     97          6           0        5.467194   -4.666492   -1.423346
     98          6           0        5.276671   -3.670947   -0.387647
     99          6           0        5.167639   -4.283548   -4.073708
    100          6           0        5.818216   -6.110121   -1.226076
    101          8           0        5.767980   -6.663551   -0.071065
    102          6           0        6.132111   -6.880090   -2.438548
    103          7           0        4.839497   -1.829629    2.015502
    104          6           0        4.821481   -3.173478    2.056038
    105          6           0        4.686482   -3.674679    3.474119
    106          6           0        4.861468   -2.385364    4.403968
    107          6           0        4.983767   -1.300323    3.311669
    108          6           0        3.367562   -4.369779    3.811293
    109          6           0        5.956443   -2.454010    5.503514
    110          6           0        7.326518   -2.493428    4.865750
    111          7           0        5.326608    0.994920    1.447986
    112          6           0        5.126823    1.106181    2.841469
    113          6           0        5.068332    2.547737    3.159177
    114          6           0        5.216295    3.179935    1.915426
    115          6           0        5.336811    2.201286    0.892081
    116          6           0        4.850562    3.106946    4.449903
    117          6           0        5.287279    4.452567    1.234207
    118          8           0        5.330172    5.628680    1.592904
    119          6           0        5.171764    4.195563   -0.330083
    120          6           0        6.255550    4.984990   -1.011783
    121          8           0        7.453115    4.706673   -0.824743
    122          8           0        5.699533    5.791120   -1.934483
    123          6           0        6.735686    6.586710   -2.645293
    124          1           0        4.149702   -1.632706   -3.957179
    125          1           0        5.019784   -4.949374    1.263373
    126          1           0        4.957683    0.315950    4.684963
    127          1           0        4.313894    3.241972   -3.192464
    128          1           0        4.517545    0.836786   -4.645282
    129          1           0        2.330156    2.027037   -2.990344
    130          1           0        2.325814    0.252591   -3.065293
    131          1           0        2.207949    1.138461   -4.555585
    132          1           0        6.702843    1.590741   -4.048091
    133          1           0        6.993620    3.051585   -3.034895
    134          1           0        5.329438    3.808622   -5.217760
    135          1           0        6.365322    2.580953   -5.853906
    136          1           0        4.794181   -3.485423   -4.727116
    137          1           0        4.411601   -5.072565   -4.149351
    138          1           0        6.125874   -4.678042   -4.418424
    139          1           0        5.282912   -6.847510   -3.116974
    140          1           0        6.444442   -7.865162   -2.086477
    141          1           0        6.966816   -6.393684   -2.955556
    142          1           0        5.468692   -4.386092    3.708961
    143          1           0        3.943724   -2.161875    4.967558
    144          1           0        3.502173   -5.398238    4.196277
    145          1           0        2.747441   -4.373744    2.924740
    146          1           0        2.739860   -3.845661    4.529952
    147          1           0        5.856158   -3.376429    6.080786
    148          1           0        5.915426   -1.628351    6.206074
    149          1           0        7.454296   -3.552074    4.620746
    150          1           0        8.085974   -2.156460    5.568394
    151          1           0        7.338310   -1.933276    3.923553
    152          1           0        5.548487    3.926826    4.555791
    153          1           0        4.986819    2.364168    5.233154
    154          1           0        3.806297    3.416329    4.354759
    155          1           0        4.176050    4.513458   -0.641649
    156          1           0        6.460584    7.640265   -2.535552
    157          1           0        6.771538    6.179924   -3.673398
    158          1           0        7.738145    6.585900   -2.233571
 ---------------------------------------------------------------------

 SCF Done:  E(RCAM-B3LYP) =  -4069.81150609     A.U. after   19 cycles

 Excitation energies and oscillator strengths:

 Excited State   1:      Singlet-A      1.6588 eV  747.43 nm  f=0.0497  <S**2>=0.000
     309 -> 315       -0.11429
     310 -> 316        0.12540
     311 -> 313       -0.46129
     312 -> 314        0.50901
 This state for optimization and/or second-order correction.
 Total Energy, E(TD-HF/TD-DFT) =  -4069.75054602
 Copying the excited state density for this state as the 1-particle RhoCI density.

 Excited State   2:      Singlet-A      1.6942 eV  731.82 nm  f=0.6637  <S**2>=0.000
     309 -> 315        0.13272
     310 -> 316        0.11997
     311 -> 313        0.50734
     312 -> 314        0.45991

 Excited State   3:      Singlet-A      2.1840 eV  567.71 nm  f=0.0316  <S**2>=0.000
     309 -> 313       -0.28666
     310 -> 314        0.57612
     311 -> 315        0.12017
     312 -> 316       -0.24335

 Excited State   4:      Singlet-A      2.1932 eV  565.32 nm  f=0.1545  <S**2>=0.000
     309 -> 313        0.57323
     310 -> 314        0.28400
     311 -> 315       -0.25024
     312 -> 316       -0.12493

 Excited State   5:      Singlet-A      2.4853 eV  498.86 nm  f=0.0000  <S**2>=0.000
     312 -> 313        0.70709

 The electronic state is 1-A.
 Alpha  occ. eigenvalues --  -46.87873 -46.87495 -19.26265 -19.26241 -19.19038
 Alpha  occ. eigenvalues --  -19.19013 -19.18919 -19.18565 -19.18218 -19.17864
 Alpha  occ. eigenvalues --  -14.42526 -14.42341 -14.41522 -14.41195 -14.39484
 Alpha  occ. eigenvalues --  -14.39188 -14.38660 -14.38424 -10.39078 -10.38962
 Alpha  occ. eigenvalues --  -10.35556 -10.35245 -10.34435 -10.34041 -10.31679
 Alpha  occ. eigenvalues --  -10.31623 -10.31475 -10.31149 -10.30987 -10.30882
 Alpha  occ. eigenvalues --  -10.30644 -10.30581 -10.30288 -10.30220 -10.30185
 Alpha  occ. eigenvalues --  -10.29986 -10.29986 -10.29720 -10.29711 -10.29340
 Alpha  occ. eigenvalues --  -10.29273 -10.29226 -10.28818 -10.28612 -10.28608
 Alpha  occ. eigenvalues --  -10.28600 -10.28441 -10.28239 -10.28189 -10.28033
 Alpha  occ. eigenvalues --  -10.27870 -10.27823 -10.27807 -10.27671 -10.27609
 Alpha  occ. eigenvalues --  -10.27565 -10.27519 -10.27507 -10.27472 -10.27367
 Alpha  occ. eigenvalues --  -10.27345 -10.27321 -10.27298 -10.27230 -10.27195
 Alpha  occ. eigenvalues --  -10.26876 -10.26780 -10.26610 -10.26560 -10.26298
 Alpha  occ. eigenvalues --  -10.26289 -10.26244 -10.26095 -10.26003 -10.25929
 Alpha  occ. eigenvalues --  -10.25909 -10.25764 -10.25586 -10.25487 -10.25265
 Alpha  occ. eigenvalues --  -10.24905 -10.24859 -10.24747 -10.24687 -10.24605
 Alpha  occ. eigenvalues --  -10.24526  -3.16616  -3.16245  -1.91498  -1.91127
 Alpha  occ. eigenvalues --   -1.91084  -1.90926  -1.90716  -1.90552  -1.16617
 Alpha  occ. eigenvalues --   -1.16531  -1.08670  -1.08470  -1.07321  -1.06821
 Alpha  occ. eigenvalues --   -1.06818  -1.06636  -1.04656  -1.04339  -1.03835
 Alpha  occ. eigenvalues --   -1.03500  -1.03310  -1.02870  -1.02486  -1.01942
 Alpha  occ. eigenvalues --   -0.92035  -0.91819  -0.89587  -0.89337  -0.89258
 Alpha  occ. eigenvalues --   -0.89037  -0.88352  -0.88070  -0.87943  -0.87749
 Alpha  occ. eigenvalues --   -0.87595  -0.87530  -0.87376  -0.86969  -0.85054
 Alpha  occ. eigenvalues --   -0.84876  -0.83995  -0.83730  -0.83074  -0.82792
 Alpha  occ. eigenvalues --   -0.82716  -0.82526  -0.81618  -0.81455  -0.80655
 Alpha  occ. eigenvalues --   -0.80297  -0.78888  -0.78471  -0.77290  -0.77006
 Alpha  occ. eigenvalues --   -0.76986  -0.76771  -0.75975  -0.75705  -0.74955
 Alpha  occ. eigenvalues --   -0.74660  -0.72847  -0.72528  -0.71736  -0.71434
 Alpha  occ. eigenvalues --   -0.69970  -0.69617  -0.68946  -0.68698  -0.67713
 Alpha  occ. eigenvalues --   -0.67447  -0.67301  -0.67082  -0.65352  -0.65143
 Alpha  occ. eigenvalues --   -0.64911  -0.64676  -0.64617  -0.64517  -0.64334
 Alpha  occ. eigenvalues --   -0.64054  -0.62318  -0.62144  -0.60532  -0.60186
 Alpha  occ. eigenvalues --   -0.59877  -0.59661  -0.59053  -0.58835  -0.58568
 Alpha  occ. eigenvalues --   -0.58270  -0.57624  -0.57391  -0.57370  -0.57080
 Alpha  occ. eigenvalues --   -0.56385  -0.56042  -0.55998  -0.55764  -0.55601
 Alpha  occ. eigenvalues --   -0.55385  -0.55308  -0.55101  -0.54557  -0.54353
 Alpha  occ. eigenvalues --   -0.53965  -0.53798  -0.53381  -0.53297  -0.53072
 Alpha  occ. eigenvalues --   -0.53006  -0.52965  -0.52850  -0.52769  -0.52538
 Alpha  occ. eigenvalues --   -0.52499  -0.52261  -0.51980  -0.51693  -0.51655
 Alpha  occ. eigenvalues --   -0.51535  -0.51252  -0.51044  -0.50695  -0.50343
 Alpha  occ. eigenvalues --   -0.50104  -0.50011  -0.49850  -0.49723  -0.49593
 Alpha  occ. eigenvalues --   -0.49351  -0.49283  -0.49160  -0.49058  -0.48958
 Alpha  occ. eigenvalues --   -0.48642  -0.48547  -0.48502  -0.48414  -0.48226
 Alpha  occ. eigenvalues --   -0.48194  -0.47767  -0.47460  -0.47369  -0.46976
 Alpha  occ. eigenvalues --   -0.46865  -0.46624  -0.46563  -0.46435  -0.46427
 Alpha  occ. eigenvalues --   -0.46215  -0.46115  -0.45921  -0.45864  -0.45660
 Alpha  occ. eigenvalues --   -0.45265  -0.45063  -0.44635  -0.44591  -0.44381
 Alpha  occ. eigenvalues --   -0.44329  -0.44216  -0.44161  -0.44081  -0.43987
 Alpha  occ. eigenvalues --   -0.43934  -0.43792  -0.43530  -0.43456  -0.43421
 Alpha  occ. eigenvalues --   -0.43246  -0.43090  -0.42799  -0.42746  -0.42744
 Alpha  occ. eigenvalues --   -0.42667  -0.42407  -0.42070  -0.41830  -0.41766
 Alpha  occ. eigenvalues --   -0.41603  -0.41509  -0.41335  -0.41207  -0.40945
 Alpha  occ. eigenvalues --   -0.40917  -0.40849  -0.40634  -0.40597  -0.40574
 Alpha  occ. eigenvalues --   -0.40350  -0.40311  -0.40128  -0.39504  -0.39284
 Alpha  occ. eigenvalues --   -0.38534  -0.38212  -0.37816  -0.37549  -0.37388
 Alpha  occ. eigenvalues --   -0.37334  -0.37117  -0.37060  -0.36731  -0.36648
 Alpha  occ. eigenvalues --   -0.36232  -0.36076  -0.34358  -0.34090  -0.33780
 Alpha  occ. eigenvalues --   -0.33730  -0.33254  -0.33011  -0.31446  -0.31125
 Alpha  occ. eigenvalues --   -0.31106  -0.30813  -0.30074  -0.29769  -0.29536
 Alpha  occ. eigenvalues --   -0.29395  -0.29160  -0.29021  -0.24153  -0.23869
 Alpha  occ. eigenvalues --   -0.21204  -0.20951
 Alpha virt. eigenvalues --   -0.08853  -0.08622  -0.01827  -0.01522  -0.00147
 Alpha virt. eigenvalues --    0.00126   0.02137   0.02392   0.03024   0.03379
 Alpha virt. eigenvalues --    0.04648   0.04869   0.05091   0.05297   0.06121

 Mulliken charges:
               1
     1  Mg   0.838501
     2  C   -0.002879
     3  C   -0.094644
     4  C   -0.045744
     5  C   -0.064038
     6  N   -0.256728
     7  C   -0.052453
     8  C   -0.013896
     9  C   -0.086894
    10  C    0.046144
    11  C    0.104813
    12  C    0.053638
    13  C   -0.072028
    14  H    0.036955
    15  N   -0.433055
    16  C    0.168136
    17  C   -0.177706
    18  C   -0.004312
    19  C    0.148643
    20  C    0.110286
    21  C    0.012000
    22  O   -0.249294
    23  C    0.062786
    24  N   -0.341163
    25  C    0.041181
    26  C   -0.028222
    27  C   -0.024073
    28  C    0.075065
    29  C    0.076093
    30  C    0.035076
    31  C   -0.004464
    32  N   -0.310559
    33  C    0.080648
    34  C   -0.169704
    35  C    0.008583
    36  C    0.083118
    37  C    0.127287
    38  C    0.046341
    39  O   -0.187660
    40  C   -0.005345
    41  C    0.212961
    42  O   -0.256709
    43  O   -0.305035
    44  C    0.157119
    45  H   -0.017737
    46  H   -0.016716
    47  H   -0.041400
    48  H    0.001324
    49  H   -0.004406
    50  H    0.025684
    51  H    0.016448
    52  H    0.016669
    53  H    0.010090
    54  H    0.044502
    55  H    0.018225
    56  H    0.017236
    57  H    0.005795
    58  H    0.026959
    59  H    0.038070
    60  H    0.037562
    61  H    0.035436
    62  H    0.030010
    63  H    0.016826
    64  H    0.009613
    65  H    0.023413
    66  H    0.012509
    67  H    0.004854
    68  H    0.006731
    69  H    0.004545
    70  H    0.009529
    71  H    0.017517
    72  H    0.028873
    73  H    0.047747
    74  H    0.009021
    75  H    0.046295
    76  H    0.035288
    77  H    0.043449
    78  H    0.046134
    79  H    0.055134
    80  Mg   0.838151
    81  C   -0.016501
    82  C   -0.087996
    83  C   -0.045290
    84  C   -0.063905
    85  N   -0.254427
    86  C   -0.049418
    87  C   -0.015072
    88  C   -0.090653
    89  C    0.045826
    90  C    0.114448
    91  C    0.062660
    92  C   -0.077463
    93  H    0.034475
    94  N   -0.423404
    95  C    0.162735
    96  C   -0.174869
    97  C   -0.007876
    98  C    0.151857
    99  C    0.099475
   100  C    0.015534
   101  O   -0.253494
   102  C    0.061265
   103  N   -0.349817
   104  C    0.037360
   105  C   -0.019769
   106  C   -0.034966
   107  C    0.089037
   108  C    0.073726
   109  C    0.034704
   110  C   -0.007575
   111  N   -0.324434
   112  C    0.078787
   113  C   -0.161716
   114  C    0.003155
   115  C    0.096341
   116  C    0.130898
   117  C    0.043627
   118  O   -0.187543
   119  C    0.000419
   120  C    0.211010
   121  O   -0.251283
   122  O   -0.305605
   123  C    0.152197
   124  H   -0.020842
   125  H   -0.015847
   126  H   -0.039937
   127  H   -0.000870
   128  H   -0.005270
   129  H    0.023863
   130  H    0.014800
   131  H    0.013957
   132  H    0.013831
   133  H    0.037748
   134  H    0.020191
   135  H    0.019102
   136  H    0.007831
   137  H    0.025978
   138  H    0.039237
   139  H    0.038307
   140  H    0.036055
   141  H    0.033510
   142  H    0.014039
   143  H    0.012943
   144  H    0.024415
   145  H    0.012149
   146  H    0.005284
   147  H    0.005827
   148  H    0.003892
   149  H    0.010683
   150  H    0.017709
   151  H    0.030189
   152  H    0.045474
   153  H    0.008115
   154  H    0.050710
   155  H    0.036332
   156  H    0.043537
   157  H    0.048979
   158  H    0.053473
 Sum of Mulliken charges =  -0.00000

 Dipole moment (field-independent basis, Debye):
    X=             -3.8265    Y=             -2.0499    Z=             -7.3123  Tot=              8.5037
 Quadrupole moment (field-independent basis, Debye-Ang):
   XX=           -518.5226   YY=           -544.7961   ZZ=           -454.4183
   XY=            -13.6710   XZ=              0.7152   YZ=            -42.0849

 Normal termination of Gaussian 16 at Fri Sep 10 21:50:57 2021.
