 Gaussian 16, Revision A.03,
 Gaussian 16:  ES64L-G16RevA.03 25-Dec-2016

 -----------------------------------
 #p cam-b3lyp/Def2SVP td=(nstates=5)
 -----------------------------------

 --------------------------------
 TDDFT excited states in gaussian
 --------------------------------
 Symbolic Z-matrix:
 Charge =  0 Multiplicity = 1

                         Standard orientation:
 ---------------------------------------------------------------------
 Center     Atomic      Atomic             Coordinates (Angstroms)
 Number     Number       Type             X           Y           Z
 ---------------------------------------------------------------------
      1         12           0        3.677680    1.088861    1.204178
      2          6           0        4.838183   -2.192687    0.369379
      3          6           0        5.447269    2.235381   -1.478566
      4          6           0        3.040493    4.037571    2.181791
      5          6           0        2.965423   -0.133634    4.389120
      6          7           0        4.941458    0.054417   -0.290290
      7          6           0        5.256808   -1.213690   -0.534481
      8          6           0        6.010725   -1.414167   -1.883107
      9          6           0        6.618842    0.050004   -2.051615
     10          6           0        5.589667    0.833503   -1.256096
     11          6           0        7.983799    0.222328   -1.393055
     12          6           0        5.040534   -1.770420   -3.059349
     13          6           0        5.717379   -2.299241   -4.327254
     14          1           0        5.040543   -3.324780   -5.106684
     15          7           0        3.751098    2.805710    0.229555
     16          6           0        4.515716    3.091058   -0.851751
     17          6           0        4.213720    4.494742   -1.205515
     18          6           0        3.354458    5.060613   -0.128690
     19          6           0        3.369418    3.984816    0.829337
     20          6           0        4.682146    5.143161   -2.471959
     21          6           0        2.642737    6.368213    0.018850
     22          8           0        2.142737    6.748611    1.132345
     23          6           0        2.623038    7.242951   -1.167526
     24          7           0        3.291798    1.909257    3.084519
     25          6           0        2.988348    3.204506    3.223198
     26          6           0        2.478934    3.501323    4.602450
     27          6           0        2.266667    2.085428    5.309512
     28          6           0        2.798862    1.173694    4.176471
     29          6           0        3.386478    4.377491    5.476923
     30          6           0        0.860840    1.793953    5.891844
     31          6           0       -0.144698    1.672271    4.768820
     32          7           0        3.690618   -0.851709    2.176322
     33          6           0        3.379227   -1.125718    3.515960
     34          6           0        3.635634   -2.561235    3.734161
     35          6           0        4.097143   -3.022102    2.502716
     36          6           0        4.152039   -1.937457    1.581400
     37          6           0        3.492774   -3.255177    4.968045
     38          6           0        4.580040   -4.173529    1.757810
     39          8           0        4.665628   -5.380859    1.986984
     40          6           0        5.194526   -3.658430    0.381981
     41          6           0        4.641674   -4.525937   -0.715787
     42          8           0        3.428403   -4.494622   -1.006235
     43          8           0        5.655784   -5.073191   -1.403273
     44          6           0        5.176203   -5.922810   -2.525906
     45          1           0        6.148708    2.737549   -2.147708
     46          1           0        2.707862    5.016963    2.531914
     47          1           0        2.685921   -0.603280    5.333982
     48          1           0        6.814730   -2.149600   -1.849381
     49          1           0        6.619411    0.373117   -3.092441
     50          1           0        8.255840   -0.653996   -0.804862
     51          1           0        7.888398    1.097652   -0.750250
     52          1           0        8.742190    0.476046   -2.134167
     53          1           0        4.600484   -0.853950   -3.452414
     54          1           0        4.282173   -2.482392   -2.731769
     55          1           0        6.752333   -2.584897   -4.137043
     56          1           0        5.789575   -1.480167   -5.042870
     57          1           0        5.428929    4.534959   -2.980833
     58          1           0        5.217566    6.048587   -2.186938
     59          1           0        3.853789    5.398596   -3.132950
     60          1           0        3.647191    7.472063   -1.462767
     61          1           0        1.994730    8.093016   -0.903958
     62          1           0        2.178435    6.697926   -2.000727
     63          1           0        1.525852    4.027128    4.562566
     64          1           0        2.939293    1.946125    6.156177
     65          1           0        2.899954    5.281068    5.845092
     66          1           0        4.277886    4.620880    4.899475
     67          1           0        3.818597    3.870165    6.339077
     68          1           0        0.535015    2.617531    6.526277
     69          1           0        0.822243    0.881501    6.486984
     70          1           0       -0.411504    2.709160    4.567553
     71          1           0       -1.014349    1.102014    5.097036
     72          1           0        0.314816    1.272639    3.864592
     73          1           0        3.001625   -4.199126    4.732035
     74          1           0        2.911618   -2.674413    5.683988
     75          1           0        4.536708   -3.358494    5.263655
     76          1           0        6.276879   -3.748288    0.468936
     77          1           0        5.615294   -6.911310   -2.390627
     78          1           0        5.412967   -5.385365   -3.444329
     79          1           0        4.113513   -6.167816   -2.525134
     80         12           0       -3.614267   -0.278699   -1.599262
     81          6           0       -5.065489   -1.445749    1.468471
     82          6           0       -5.483275    2.550989   -1.232844
     83          6           0       -2.702491    0.581709   -4.514018
     84          6           0       -2.770591   -3.587345   -2.296968
     85          7           0       -5.050582    0.354399   -0.040916
     86          6           0       -5.475985   -0.144873    1.109776
     87          6           0       -6.328647    0.834761    1.959962
     88          6           0       -6.848819    1.789035    0.777740
     89          6           0       -5.710018    1.585702   -0.219482
     90          6           0       -8.138030    1.303909    0.135920
     91          6           0       -5.465219    1.629343    3.001673
     92          6           0       -6.269790    2.372376    4.070454
     93          1           0       -5.719038    2.461031    5.420005
     94          7           0       -3.636064    1.500104   -2.479004
     95          6           0       -4.444854    2.541045   -2.189880
     96          6           0       -4.078926    3.608957   -3.133180
     97          6           0       -3.101713    3.057029   -4.110486
     98          6           0       -3.125172    1.655241   -3.743688
     99          6           0       -4.583291    5.016910   -3.003875
    100          6           0       -2.291083    3.684606   -5.203751
    101          8           0       -1.686392    2.976803   -6.084770
    102          6           0       -2.302499    5.153374   -5.267801
    103          7           0       -3.036939   -1.366148   -3.274518
    104          6           0       -2.638298   -0.744877   -4.398373
    105          6           0       -2.011495   -1.719008   -5.367173
    106          6           0       -1.852393   -3.088541   -4.556828
    107          6           0       -2.526028   -2.676859   -3.229371
    108          6           0       -2.796906   -1.976993   -6.652845
    109          6           0       -0.431135   -3.712795   -4.501983
    110          6           0        0.489196   -2.830284   -3.689860
    111          7           0       -3.691383   -2.160099   -0.539795
    112          6           0       -3.311487   -3.429764   -1.027331
    113          6           0       -3.654454   -4.417382    0.016411
    114          6           0       -4.235741   -3.650443    1.037380
    115          6           0       -4.272189   -2.284113    0.648381
    116          6           0       -3.465436   -5.825159   -0.076124
    117          6           0       -4.836497   -3.687443    2.351320
    118          8           0       -4.996819   -4.554778    3.209083
    119          6           0       -5.515609   -2.278901    2.636322
    120          6           0       -5.104372   -1.835128    4.013444
    121          8           0       -3.915703   -1.567584    4.262619
    122          8           0       -6.206752   -1.591493    4.745410
    123          6           0       -5.850435   -1.137800    6.116184
    124          1           0       -6.191546    3.373871   -1.333349
    125          1           0       -2.275657    0.838198   -5.486392
    126          1           0       -2.450199   -4.626535   -2.397543
    127          1           0       -7.170410    0.380422    2.468663
    128          1           0       -6.894029    2.826534    1.098548
    129          1           0       -8.429518    0.331021    0.502878
    130          1           0       -7.940335    1.263615   -0.927258
    131          1           0       -8.928151    2.048707    0.267521
    132          1           0       -4.990518    2.481133    2.497825
    133          1           0       -4.747758    0.985418    3.472049
    134          1           0       -7.315280    2.042457    4.102949
    135          1           0       -6.330028    3.426532    3.789100
    136          1           0       -5.413678    5.082767   -2.290064
    137          1           0       -5.030848    5.285941   -3.966775
    138          1           0       -3.788695    5.729355   -2.772120
    139          1           0       -3.325550    5.501649   -5.388338
    140          1           0       -1.595678    5.416960   -6.056985
    141          1           0       -1.946483    5.548115   -4.309662
    142          1           0       -1.031351   -1.378704   -5.677995
    143          1           0       -2.469925   -3.890649   -4.987070
    144          1           0       -2.216032   -1.762355   -7.569678
    145          1           0       -3.699784   -1.381467   -6.626586
    146          1           0       -3.189283   -2.986872   -6.759541
    147          1           0       -0.002604   -3.767658   -5.505725
    148          1           0       -0.415741   -4.716284   -4.089951
    149          1           0        0.808989   -2.074830   -4.413811
    150          1           0        1.336173   -3.401770   -3.315581
    151          1           0       -0.061254   -2.313247   -2.895297
    152          1           0       -3.064211   -6.148622    0.875134
    153          1           0       -2.800574   -6.083898   -0.897575
    154          1           0       -4.493163   -6.148101   -0.262545
    155          1           0       -6.594922   -2.413098    2.554714
    156          1           0       -6.351893   -1.812841    6.816588
    157          1           0       -6.130526   -0.068474    6.159196
    158          1           0       -4.817031   -1.241494    6.425664
 ---------------------------------------------------------------------

 SCF Done:  E(RCAM-B3LYP) =  -4069.81332721     A.U. after   19 cycles

 Excitation energies and oscillator strengths:

 Excited State   1:      Singlet-A      1.6364 eV  757.67 nm  f=0.0034  <S**2>=0.000
     309 -> 315       -0.11282
     310 -> 316        0.11849
     311 -> 314       -0.47273
     312 -> 313        0.49980
 This state for optimization and/or second-order correction.
 Total Energy, E(TD-HF/TD-DFT) =  -4069.75319116
 Copying the excited state density for this state as the 1-particle RhoCI density.

 Excited State   2:      Singlet-A      1.7081 eV  725.88 nm  f=0.6809  <S**2>=0.000
     309 -> 315        0.13265
     310 -> 316        0.12461
     311 -> 314        0.49671
     312 -> 313        0.46995

 Excited State   3:      Singlet-A      2.1788 eV  569.04 nm  f=0.0136  <S**2>=0.000
     309 -> 314        0.33513
     310 -> 313        0.55164
     311 -> 315       -0.13765
     312 -> 316       -0.22831

 Excited State   4:      Singlet-A      2.1953 eV  564.76 nm  f=0.1589  <S**2>=0.000
     309 -> 314        0.54642
     310 -> 313       -0.33027
     311 -> 315       -0.24045
     312 -> 316        0.14645

 Excited State   5:      Singlet-A      2.3922 eV  518.28 nm  f=0.0000  <S**2>=0.000
     312 -> 314        0.70685

 The electronic state is 1-A.
 Alpha  occ. eigenvalues --  -46.87572 -46.87425 -19.26336 -19.26299 -19.19126
 Alpha  occ. eigenvalues --  -19.19114 -19.18685 -19.18601 -19.17998 -19.17854
 Alpha  occ. eigenvalues --  -14.42271 -14.42233 -14.41215 -14.41107 -14.39186
 Alpha  occ. eigenvalues --  -14.39128 -14.38354 -14.38351 -10.39133 -10.39023
 Alpha  occ. eigenvalues --  -10.35324 -10.35286 -10.34226 -10.34035 -10.31764
 Alpha  occ. eigenvalues --  -10.31753 -10.31182 -10.31069 -10.30840 -10.30733
 Alpha  occ. eigenvalues --  -10.30330 -10.30278 -10.30153 -10.30103 -10.29962
 Alpha  occ. eigenvalues --  -10.29882 -10.29675 -10.29627 -10.29403 -10.29204
 Alpha  occ. eigenvalues --  -10.29161 -10.29026 -10.28609 -10.28575 -10.28565
 Alpha  occ. eigenvalues --  -10.28486 -10.28196 -10.28166 -10.27963 -10.27946
 Alpha  occ. eigenvalues --  -10.27768 -10.27569 -10.27500 -10.27435 -10.27372
 Alpha  occ. eigenvalues --  -10.27281 -10.27271 -10.27269 -10.27247 -10.27209
 Alpha  occ. eigenvalues --  -10.27194 -10.27191 -10.27170 -10.27099 -10.27051
 Alpha  occ. eigenvalues --  -10.26894 -10.26605 -10.26572 -10.26398 -10.26354
 Alpha  occ. eigenvalues --  -10.26075 -10.25864 -10.25749 -10.25744 -10.25634
 Alpha  occ. eigenvalues --  -10.25618 -10.25504 -10.25479 -10.25233 -10.25196
 Alpha  occ. eigenvalues --  -10.24638 -10.24612 -10.24572 -10.24461 -10.24068
 Alpha  occ. eigenvalues --  -10.23938  -3.16314  -3.16175  -1.91196  -1.91057
 Alpha  occ. eigenvalues --   -1.90782  -1.90645  -1.90625  -1.90482  -1.16684
 Alpha  occ. eigenvalues --   -1.16590  -1.08470  -1.08470  -1.07093  -1.06882
 Alpha  occ. eigenvalues --   -1.06862  -1.06706  -1.04372  -1.04276  -1.03533
 Alpha  occ. eigenvalues --   -1.03428  -1.03005  -1.02789  -1.02183  -1.01869
 Alpha  occ. eigenvalues --   -0.91788  -0.91776  -0.89236  -0.89187  -0.89021
 Alpha  occ. eigenvalues --   -0.88966  -0.88011  -0.87903  -0.87612  -0.87523
 Alpha  occ. eigenvalues --   -0.87458  -0.87448  -0.87084  -0.86940  -0.84819
 Alpha  occ. eigenvalues --   -0.84817  -0.83650  -0.83537  -0.82793  -0.82762
 Alpha  occ. eigenvalues --   -0.82489  -0.82461  -0.81468  -0.81427  -0.80429
 Alpha  occ. eigenvalues --   -0.80256  -0.78583  -0.78414  -0.76991  -0.76920
 Alpha  occ. eigenvalues --   -0.76767  -0.76670  -0.75761  -0.75650  -0.74664
 Alpha  occ. eigenvalues --   -0.74537  -0.72533  -0.72439  -0.71475  -0.71368
 Alpha  occ. eigenvalues --   -0.69549  -0.69336  -0.68699  -0.68634  -0.67453
 Alpha  occ. eigenvalues --   -0.67397  -0.67080  -0.67052  -0.65120  -0.65090
 Alpha  occ. eigenvalues --   -0.64675  -0.64549  -0.64445  -0.64426  -0.63996
 Alpha  occ. eigenvalues --   -0.63887  -0.62197  -0.62113  -0.60237  -0.60133
 Alpha  occ. eigenvalues --   -0.59621  -0.59602  -0.58778  -0.58761  -0.58309
 Alpha  occ. eigenvalues --   -0.58207  -0.57480  -0.57392  -0.57098  -0.56999
 Alpha  occ. eigenvalues --   -0.56128  -0.55988  -0.55907  -0.55751  -0.55356
 Alpha  occ. eigenvalues --   -0.55300  -0.55135  -0.54997  -0.54350  -0.54219
 Alpha  occ. eigenvalues --   -0.53745  -0.53742  -0.53118  -0.53050  -0.53035
 Alpha  occ. eigenvalues --   -0.52935  -0.52785  -0.52725  -0.52611  -0.52540
 Alpha  occ. eigenvalues --   -0.52049  -0.51920  -0.51644  -0.51581  -0.51499
 Alpha  occ. eigenvalues --   -0.51465  -0.50983  -0.50951  -0.50402  -0.50314
 Alpha  occ. eigenvalues --   -0.49809  -0.49789  -0.49690  -0.49537  -0.49367
 Alpha  occ. eigenvalues --   -0.49321  -0.49053  -0.49033  -0.48927  -0.48899
 Alpha  occ. eigenvalues --   -0.48452  -0.48387  -0.48307  -0.48238  -0.48199
 Alpha  occ. eigenvalues --   -0.48119  -0.47512  -0.47395  -0.47113  -0.46921
 Alpha  occ. eigenvalues --   -0.46561  -0.46468  -0.46408  -0.46359  -0.46143
 Alpha  occ. eigenvalues --   -0.46022  -0.45949  -0.45845  -0.45650  -0.45607
 Alpha  occ. eigenvalues --   -0.44956  -0.44926  -0.44418  -0.44349  -0.44308
 Alpha  occ. eigenvalues --   -0.44239  -0.43962  -0.43959  -0.43890  -0.43811
 Alpha  occ. eigenvalues --   -0.43786  -0.43748  -0.43365  -0.43342  -0.43189
 Alpha  occ. eigenvalues --   -0.43170  -0.42834  -0.42791  -0.42680  -0.42655
 Alpha  occ. eigenvalues --   -0.42347  -0.42234  -0.41720  -0.41613  -0.41507
 Alpha  occ. eigenvalues --   -0.41452  -0.41352  -0.41202  -0.40950  -0.40783
 Alpha  occ. eigenvalues --   -0.40710  -0.40649  -0.40603  -0.40483  -0.40288
 Alpha  occ. eigenvalues --   -0.40149  -0.40111  -0.40094  -0.39056  -0.38966
 Alpha  occ. eigenvalues --   -0.38212  -0.38067  -0.37615  -0.37497  -0.37095
 Alpha  occ. eigenvalues --   -0.37063  -0.37020  -0.36968  -0.36685  -0.36652
 Alpha  occ. eigenvalues --   -0.36011  -0.35968  -0.34070  -0.34024  -0.33798
 Alpha  occ. eigenvalues --   -0.33772  -0.32972  -0.32936  -0.31215  -0.31159
 Alpha  occ. eigenvalues --   -0.30833  -0.30752  -0.29862  -0.29759  -0.29240
 Alpha  occ. eigenvalues --   -0.29118  -0.29092  -0.28967  -0.23860  -0.23798
 Alpha  occ. eigenvalues --   -0.20894  -0.20874
 Alpha virt. eigenvalues --   -0.08562  -0.08555  -0.01530  -0.01452   0.00115
 Alpha virt. eigenvalues --    0.00142   0.02330   0.02426   0.02480   0.04484
 Alpha virt. eigenvalues --    0.04862   0.04933   0.04996   0.05223   0.06146

 Mulliken charges:
               1
     1  Mg   0.838752
     2  C   -0.003916
     3  C   -0.093496
     4  C   -0.046045
     5  C   -0.061220
     6  N   -0.256795
     7  C   -0.052687
     8  C   -0.014210
     9  C   -0.086826
    10  C    0.046127
    11  C    0.104952
    12  C    0.049929
    13  C   -0.070823
    14  H    0.032860
    15  N   -0.433056
    16  C    0.168531
    17  C   -0.177038
    18  C   -0.004609
    19  C    0.148490
    20  C    0.110228
    21  C    0.011285
    22  O   -0.250847
    23  C    0.062680
    24  N   -0.341313
    25  C    0.041384
    26  C   -0.027636
    27  C   -0.024143
    28  C    0.075281
    29  C    0.076535
    30  C    0.034628
    31  C   -0.006561
    32  N   -0.311066
    33  C    0.081766
    34  C   -0.166666
    35  C    0.008064
    36  C    0.083983
    37  C    0.127015
    38  C    0.046493
    39  O   -0.188726
    40  C   -0.006144
    41  C    0.212509
    42  O   -0.256765
    43  O   -0.304064
    44  C    0.157621
    45  H   -0.018124
    46  H   -0.017728
    47  H   -0.039651
    48  H    0.000249
    49  H   -0.003903
    50  H    0.025111
    51  H    0.016525
    52  H    0.016278
    53  H    0.013434
    54  H    0.047406
    55  H    0.017934
    56  H    0.018974
    57  H    0.006103
    58  H    0.025800
    59  H    0.040147
    60  H    0.037859
    61  H    0.033604
    62  H    0.030678
    63  H    0.015887
    64  H    0.008704
    65  H    0.022075
    66  H    0.011975
    67  H    0.004474
    68  H    0.003662
    69  H    0.006643
    70  H    0.003709
    71  H    0.030465
    72  H    0.029235
    73  H    0.049450
    74  H    0.011491
    75  H    0.044839
    76  H    0.035159
    77  H    0.043609
    78  H    0.046605
    79  H    0.051649
    80  Mg   0.837553
    81  C   -0.017722
    82  C   -0.087653
    83  C   -0.045899
    84  C   -0.061439
    85  N   -0.254623
    86  C   -0.049766
    87  C   -0.015273
    88  C   -0.090458
    89  C    0.045460
    90  C    0.114529
    91  C    0.062029
    92  C   -0.077168
    93  H    0.032608
    94  N   -0.423316
    95  C    0.162730
    96  C   -0.174905
    97  C   -0.008655
    98  C    0.151800
    99  C    0.099471
   100  C    0.014205
   101  O   -0.254820
   102  C    0.061538
   103  N   -0.350411
   104  C    0.037704
   105  C   -0.019173
   106  C   -0.034710
   107  C    0.089497
   108  C    0.074188
   109  C    0.034488
   110  C   -0.014714
   111  N   -0.324824
   112  C    0.080181
   113  C   -0.159668
   114  C    0.001776
   115  C    0.097284
   116  C    0.131244
   117  C    0.042807
   118  O   -0.188034
   119  C    0.000524
   120  C    0.211517
   121  O   -0.252114
   122  O   -0.305204
   123  C    0.152473
   124  H   -0.020412
   125  H   -0.016801
   126  H   -0.037888
   127  H   -0.001150
   128  H   -0.004505
   129  H    0.022101
   130  H    0.014428
   131  H    0.015730
   132  H    0.015110
   133  H    0.037168
   134  H    0.020727
   135  H    0.020131
   136  H    0.008780
   137  H    0.025019
   138  H    0.039625
   139  H    0.038824
   140  H    0.033889
   141  H    0.032800
   142  H    0.013477
   143  H    0.011267
   144  H    0.023521
   145  H    0.010935
   146  H    0.005259
   147  H    0.001900
   148  H    0.005875
   149  H    0.003508
   150  H    0.036407
   151  H    0.029534
   152  H    0.048046
   153  H    0.011612
   154  H    0.045503
   155  H    0.034677
   156  H    0.044006
   157  H    0.049410
   158  H    0.051641
 Sum of Mulliken charges =  -0.00000

 Dipole moment (field-independent basis, Debye):
    X=              0.1910    Y=              5.7433    Z=             -3.1741  Tot=              6.5649
 Quadrupole moment (field-independent basis, Debye-Ang):
   XX=           -465.0995   YY=           -526.7706   ZZ=           -491.8567
   XY=            -14.2993   XZ=            -20.6148   YZ=             25.8350

 Normal termination of Gaussian 16 at Wed Sep  8 17:56:24 2021.
