 Gaussian 16, Revision A.03,
 Gaussian 16:  ES64L-G16RevA.03 25-Dec-2016

 -----------------------------------
 #p cam-b3lyp/Def2SVP td=(nstates=5)
 -----------------------------------

 --------------------------------
 TDDFT excited states in gaussian
 --------------------------------
 Symbolic Z-matrix:
 Charge =  0 Multiplicity = 1

                         Standard orientation:
 ---------------------------------------------------------------------
 Center     Atomic      Atomic             Coordinates (Angstroms)
 Number     Number       Type             X           Y           Z
 ---------------------------------------------------------------------
      1         12           0        7.721312   -1.024869    0.146860
      2          6           0        8.059116    2.497100   -0.395209
      3          6           0        8.537115   -0.450189    3.409876
      4          6           0        7.874369   -4.166796    0.548711
      5          6           0        8.052963   -1.437407   -3.297771
      6          7           0        8.212110    0.831971    1.247728
      7          6           0        8.248080    2.124086    0.937382
      8          6           0        8.430661    3.052008    2.175526
      9          6           0        9.123995    2.014315    3.167736
     10          6           0        8.564328    0.722654    2.598255
     11          6           0       10.644601    1.983801    3.052278
     12          6           0        7.063330    3.561603    2.743370
     13          6           0        7.160678    4.721684    3.738402
     14          1           0        6.119337    5.738016    3.733178
     15          7           0        7.663188   -2.109794    1.796833
     16          6           0        8.016152   -1.709622    3.042049
     17          6           0        7.794426   -2.876253    3.923236
     18          6           0        7.464550   -4.043276    3.058751
     19          6           0        7.682678   -3.485653    1.748463
     20          6           0        7.854902   -2.801609    5.418067
     21          6           0        7.032958   -5.442530    3.365260
     22          8           0        7.023565   -6.361532    2.476484
     23          6           0        6.701521   -5.734599    4.771633
     24          7           0        8.152130   -2.603003   -1.149875
     25          6           0        8.092617   -3.873098   -0.734782
     26          6           0        8.159499   -4.828516   -1.889183
     27          6           0        8.032446   -3.937643   -3.208256
     28          6           0        7.994542   -2.538566   -2.545372
     29          6           0        9.428479   -5.687878   -1.974026
     30          6           0        6.906536   -4.312633   -4.204312
     31          6           0        5.556675   -4.038813   -3.579814
     32          7           0        7.828806    0.280365   -1.583994
     33          6           0        7.989032   -0.105857   -2.922588
     34          6           0        8.115525    1.130092   -3.716626
     35          6           0        8.036194    2.155738   -2.776625
     36          6           0        7.896979    1.595322   -1.474763
     37          6           0        8.337853    1.199771   -5.120247
     38          6           0        8.061382    3.594166   -2.566512
     39          8           0        8.064186    4.578749   -3.306837
     40          6           0        8.199641    3.869999   -1.004261
     41          6           0        7.178608    4.911170   -0.634444
     42          8           0        5.957782    4.659138   -0.693009
     43          8           0        7.794486    5.949307   -0.048350
     44          6           0        6.834471    7.005470    0.370036
     45          1           0        9.009144   -0.422165    4.393921
     46          1           0        7.822686   -5.254595    0.629091
     47          1           0        8.074307   -1.485723   -4.388029
     48          1           0        9.088245    3.905721    2.010654
     49          1           0        8.791198    2.150414    4.196543
     50          1           0       10.992768    2.588236    2.214806
     51          1           0       10.903914    0.936018    2.899310
     52          1           0       11.110503    2.273300    3.994563
     53          1           0        6.635812    2.796625    3.391519
     54          1           0        6.387780    3.837502    1.932914
     55          1           0        8.147200    5.185491    3.714589
     56          1           0        7.076749    4.315107    4.746296
     57          1           0        8.280465   -1.857199    5.755010
     58          1           0        8.571333   -3.554646    5.745743
     59          1           0        6.885116   -2.992073    5.878037
     60          1           0        7.570543   -5.527791    5.396597
     61          1           0        6.328591   -6.758101    4.786377
     62          1           0        5.918423   -5.050246    5.099303
     63          1           0        7.334467   -5.538953   -1.857121
     64          1           0        8.940806   -3.966715   -3.810510
     65          1           0        9.231259   -6.760114   -1.984935
     66          1           0       10.074922   -5.417626   -1.139540
     67          1           0       10.071945   -5.470000   -2.826022
     68          1           0        6.943290   -5.376762   -4.435019
     69          1           0        6.965680   -3.766867   -5.146062
     70          1           0        5.374211   -4.936988   -2.990898
     71          1           0        4.797276   -3.918010   -4.353073
     72          1           0        5.601731   -3.198396   -2.886882
     73          1           0        7.674918    1.979177   -5.495763
     74          1           0        8.136355    0.242785   -5.601059
     75          1           0        9.394735    1.464866   -5.144371
     76          1           0        9.218412    4.217886   -0.836325
     77          1           0        7.158527    7.936399   -0.095360
     78          1           0        6.792148    6.972056    1.458841
     79          1           0        5.821440    6.919826   -0.024644
     80         12           0       -8.147701   -0.470206   -0.238871
     81          6           0       -6.645852    2.784471   -0.413701
     82          6           0       -8.569825    0.068160    3.102770
     83          6           0       -9.060373   -3.496892    0.032482
     84          6           0       -6.601391   -1.194365   -3.277002
     85          7           0       -7.633934    1.244751    1.060069
     86          6           0       -7.121985    2.451700    0.871597
     87          6           0       -7.193534    3.381643    2.112424
     88          6           0       -7.271641    2.254419    3.253541
     89          6           0       -7.896472    1.124139    2.438233
     90          6           0       -5.907236    1.794785    3.739833
     91          6           0       -8.476259    4.285321    2.108943
     92          6           0       -8.458354    5.431250    3.122990
     93          1           0       -9.087597    6.696490    2.754663
     94          7           0       -9.165638   -1.380457    1.201205
     95          6           0       -9.246050   -1.013824    2.497499
     96          6           0      -10.098855   -2.020559    3.148177
     97          6           0      -10.380522   -3.102352    2.165773
     98          6           0       -9.510341   -2.703508    1.077762
     99          6           0      -10.627117   -1.859907    4.544083
    100          6           0      -11.274308   -4.304784    2.204759
    101          8           0      -11.183689   -5.239676    1.332648
    102          6           0      -12.194988   -4.400537    3.346984
    103          7           0       -7.704031   -2.180336   -1.334763
    104          6           0       -8.276429   -3.360028   -1.037107
    105          6           0       -8.022863   -4.378684   -2.122661
    106          6           0       -7.362657   -3.564275   -3.330320
    107          6           0       -7.262557   -2.171098   -2.671185
    108          6           0       -7.114092   -5.546583   -1.739860
    109          6           0       -8.053609   -3.678089   -4.716785
    110          6           0       -9.409704   -3.011356   -4.673902
    111          7           0       -7.009372    0.633293   -1.706709
    112          6           0       -6.433816    0.130276   -2.894060
    113          6           0       -5.661119    1.231808   -3.503956
    114          6           0       -5.823157    2.301108   -2.610180
    115          6           0       -6.622578    1.888750   -1.510008
    116          6           0       -4.896882    1.148104   -4.701898
    117          6           0       -5.490933    3.681816   -2.341901
    118          8           0       -4.912998    4.572747   -2.963159
    119          6           0       -5.904099    4.019266   -0.844640
    120          6           0       -6.656644    5.321625   -0.852737
    121          8           0       -7.761146    5.409867   -1.417441
    122          8           0       -6.055177    6.183316   -0.012440
    123          6           0       -6.771481    7.486207    0.022368
    124          1           0       -8.543560    0.040583    4.192465
    125          1           0       -9.438819   -4.521656    0.021618
    126          1           0       -6.171375   -1.311363   -4.274033
    127          1           0       -6.320180    4.004524    2.264239
    128          1           0       -7.935215    2.554475    4.060387
    129          1           0       -5.106375    2.218373    3.152179
    130          1           0       -5.911547    0.716240    3.651778
    131          1           0       -5.795149    2.009644    4.806416
    132          1           0       -9.323946    3.705274    2.495866
    133          1           0       -8.665603    4.674313    1.127387
    134          1           0       -7.455114    5.605307    3.530612
    135          1           0       -9.052781    5.135840    3.990978
    136          1           0      -10.117451   -1.047069    5.075997
    137          1           0      -10.348457   -2.763284    5.097373
    138          1           0      -11.713127   -1.748531    4.573231
    139          1           0      -11.623968   -4.396639    4.272400
    140          1           0      -12.812049   -5.279789    3.152037
    141          1           0      -12.826661   -3.505353    3.363179
    142          1           0       -8.951368   -4.820538   -2.462882
    143          1           0       -6.331845   -3.893121   -3.528135
    144          1           0       -7.589515   -6.535108   -1.884327
    145          1           0       -6.808970   -5.418270   -0.709828
    146          1           0       -6.159039   -5.578802   -2.261428
    147          1           0       -8.231228   -4.727036   -4.966433
    148          1           0       -7.472144   -3.248532   -5.525727
    149          1           0      -10.052976   -3.787530   -4.248634
    150          1           0       -9.733018   -2.735935   -5.675725
    151          1           0       -9.410190   -2.164759   -3.977530
    152          1           0       -5.104211    2.047125   -5.266933
    153          1           0       -5.145240    0.254226   -5.270284
    154          1           0       -3.886789    1.102672   -4.286060
    155          1           0       -4.986958    4.080050   -0.257487
    156          1           0       -6.038408    8.260504   -0.224127
    157          1           0       -7.244879    7.540272    1.020729
    158          1           0       -7.527788    7.662700   -0.733474
 ---------------------------------------------------------------------

 SCF Done:  E(RCAM-B3LYP) =  -4069.81152766     A.U. after   19 cycles

 Excitation energies and oscillator strengths:

 Excited State   1:      Singlet-A      1.6699 eV  742.45 nm  f=0.0645  <S**2>=0.000
     309 -> 315       -0.10523
     310 -> 316        0.13668
     311 -> 313       -0.41733
     312 -> 314        0.54488
 This state for optimization and/or second-order correction.
 Total Energy, E(TD-HF/TD-DFT) =  -4069.75015860
 Copying the excited state density for this state as the 1-particle RhoCI density.

 Excited State   2:      Singlet-A      1.6854 eV  735.64 nm  f=0.6967  <S**2>=0.000
     309 -> 315        0.14041
     310 -> 316        0.10698
     311 -> 313        0.54407
     312 -> 314        0.41683

 Excited State   3:      Singlet-A      2.1856 eV  567.27 nm  f=0.0512  <S**2>=0.000
     309 -> 313        0.16165
     310 -> 314        0.62200
     312 -> 316       -0.26416

 Excited State   4:      Singlet-A      2.1927 eV  565.44 nm  f=0.1414  <S**2>=0.000
     309 -> 313        0.62008
     310 -> 314       -0.16053
     311 -> 315       -0.26960

 Excited State   5:      Singlet-A      2.7764 eV  446.56 nm  f=0.0000  <S**2>=0.000
     312 -> 313        0.70708

 The electronic state is 1-A.
 Alpha  occ. eigenvalues --  -46.87764 -46.87578 -19.26248 -19.26207 -19.19062
 Alpha  occ. eigenvalues --  -19.18940 -19.18796 -19.18645 -19.18114 -19.17934
 Alpha  occ. eigenvalues --  -14.42418 -14.42417 -14.41418 -14.41277 -14.39371
 Alpha  occ. eigenvalues --  -14.39270 -14.38550 -14.38512 -10.39004 -10.38990
 Alpha  occ. eigenvalues --  -10.35431 -10.35324 -10.34334 -10.34111 -10.31661
 Alpha  occ. eigenvalues --  -10.31595 -10.31368 -10.31223 -10.30947 -10.30878
 Alpha  occ. eigenvalues --  -10.30532 -10.30473 -10.30310 -10.30270 -10.30182
 Alpha  occ. eigenvalues --  -10.30066 -10.29886 -10.29807 -10.29596 -10.29357
 Alpha  occ. eigenvalues --  -10.29314 -10.29225 -10.28716 -10.28646 -10.28598
 Alpha  occ. eigenvalues --  -10.28510 -10.28330 -10.28319 -10.28086 -10.28070
 Alpha  occ. eigenvalues --  -10.27909 -10.27756 -10.27696 -10.27591 -10.27553
 Alpha  occ. eigenvalues --  -10.27478 -10.27467 -10.27444 -10.27426 -10.27406
 Alpha  occ. eigenvalues --  -10.27398 -10.27383 -10.27367 -10.27301 -10.27104
 Alpha  occ. eigenvalues --  -10.26942 -10.26672 -10.26627 -10.26405 -10.26362
 Alpha  occ. eigenvalues --  -10.26206 -10.26165 -10.26070 -10.25988 -10.25959
 Alpha  occ. eigenvalues --  -10.25851 -10.25791 -10.25722 -10.25414 -10.25326
 Alpha  occ. eigenvalues --  -10.24793 -10.24777 -10.24756 -10.24672 -10.24666
 Alpha  occ. eigenvalues --  -10.24607  -3.16507  -3.16328  -1.91388  -1.91210
 Alpha  occ. eigenvalues --   -1.90975  -1.90817  -1.90799  -1.90635  -1.16556
 Alpha  occ. eigenvalues --   -1.16542  -1.08569  -1.08538  -1.07198  -1.06899
 Alpha  occ. eigenvalues --   -1.06845  -1.06564  -1.04548  -1.04414  -1.03729
 Alpha  occ. eigenvalues --   -1.03581  -1.03200  -1.02955  -1.02378  -1.02027
 Alpha  occ. eigenvalues --   -0.91931  -0.91895  -0.89491  -0.89414  -0.89156
 Alpha  occ. eigenvalues --   -0.89079  -0.88259  -0.88144  -0.87829  -0.87692
 Alpha  occ. eigenvalues --   -0.87641  -0.87604  -0.87250  -0.87047  -0.84950
 Alpha  occ. eigenvalues --   -0.84925  -0.83908  -0.83799  -0.82949  -0.82864
 Alpha  occ. eigenvalues --   -0.82615  -0.82578  -0.81534  -0.81504  -0.80556
 Alpha  occ. eigenvalues --   -0.80358  -0.78768  -0.78554  -0.77187  -0.77067
 Alpha  occ. eigenvalues --   -0.76896  -0.76819  -0.75882  -0.75756  -0.74867
 Alpha  occ. eigenvalues --   -0.74724  -0.72740  -0.72612  -0.71638  -0.71500
 Alpha  occ. eigenvalues --   -0.69883  -0.69685  -0.68841  -0.68751  -0.67606
 Alpha  occ. eigenvalues --   -0.67518  -0.67191  -0.67130  -0.65251  -0.65193
 Alpha  occ. eigenvalues --   -0.64814  -0.64687  -0.64583  -0.64571  -0.64239
 Alpha  occ. eigenvalues --   -0.64125  -0.62241  -0.62187  -0.60416  -0.60263
 Alpha  occ. eigenvalues --   -0.59771  -0.59718  -0.58952  -0.58908  -0.58466
 Alpha  occ. eigenvalues --   -0.58339  -0.57531  -0.57452  -0.57273  -0.57153
 Alpha  occ. eigenvalues --   -0.56274  -0.56117  -0.55921  -0.55799  -0.55489
 Alpha  occ. eigenvalues --   -0.55371  -0.55300  -0.55163  -0.54477  -0.54403
 Alpha  occ. eigenvalues --   -0.53862  -0.53840  -0.53268  -0.53189  -0.53146
 Alpha  occ. eigenvalues --   -0.53062  -0.52870  -0.52820  -0.52732  -0.52601
 Alpha  occ. eigenvalues --   -0.52412  -0.52327  -0.51867  -0.51771  -0.51585
 Alpha  occ. eigenvalues --   -0.51583  -0.51155  -0.51110  -0.50557  -0.50411
 Alpha  occ. eigenvalues --   -0.50007  -0.49908  -0.49894  -0.49792  -0.49484
 Alpha  occ. eigenvalues --   -0.49414  -0.49175  -0.49118  -0.49060  -0.49018
 Alpha  occ. eigenvalues --   -0.48548  -0.48471  -0.48435  -0.48407  -0.48294
 Alpha  occ. eigenvalues --   -0.48260  -0.47663  -0.47518  -0.47265  -0.47042
 Alpha  occ. eigenvalues --   -0.46764  -0.46629  -0.46522  -0.46481  -0.46324
 Alpha  occ. eigenvalues --   -0.46188  -0.46121  -0.45996  -0.45771  -0.45725
 Alpha  occ. eigenvalues --   -0.45173  -0.45131  -0.44532  -0.44482  -0.44428
 Alpha  occ. eigenvalues --   -0.44396  -0.44115  -0.44057  -0.44046  -0.44000
 Alpha  occ. eigenvalues --   -0.43979  -0.43856  -0.43465  -0.43444  -0.43355
 Alpha  occ. eigenvalues --   -0.43304  -0.42990  -0.42841  -0.42806  -0.42657
 Alpha  occ. eigenvalues --   -0.42602  -0.42479  -0.41977  -0.41888  -0.41665
 Alpha  occ. eigenvalues --   -0.41576  -0.41502  -0.41385  -0.41108  -0.40910
 Alpha  occ. eigenvalues --   -0.40841  -0.40803  -0.40654  -0.40628  -0.40542
 Alpha  occ. eigenvalues --   -0.40416  -0.40205  -0.40161  -0.39419  -0.39354
 Alpha  occ. eigenvalues --   -0.38442  -0.38276  -0.37716  -0.37583  -0.37291
 Alpha  occ. eigenvalues --   -0.37229  -0.37188  -0.37121  -0.36678  -0.36654
 Alpha  occ. eigenvalues --   -0.36146  -0.36135  -0.34251  -0.34169  -0.33766
 Alpha  occ. eigenvalues --   -0.33699  -0.33149  -0.33091  -0.31325  -0.31204
 Alpha  occ. eigenvalues --   -0.31001  -0.30890  -0.29972  -0.29837  -0.29418
 Alpha  occ. eigenvalues --   -0.29282  -0.29244  -0.29115  -0.24046  -0.23952
 Alpha  occ. eigenvalues --   -0.21095  -0.21034
 Alpha virt. eigenvalues --   -0.08741  -0.08706  -0.01719  -0.01603  -0.00029
 Alpha virt. eigenvalues --    0.00050   0.02244   0.02308   0.03156   0.03301
 Alpha virt. eigenvalues --    0.04750   0.04806   0.05169   0.05266   0.06211

 Mulliken charges:
               1
     1  Mg   0.838773
     2  C   -0.002818
     3  C   -0.094240
     4  C   -0.045934
     5  C   -0.063977
     6  N   -0.256764
     7  C   -0.052432
     8  C   -0.013988
     9  C   -0.086971
    10  C    0.046265
    11  C    0.104842
    12  C    0.053517
    13  C   -0.071733
    14  H    0.036204
    15  N   -0.433099
    16  C    0.168313
    17  C   -0.177325
    18  C   -0.004152
    19  C    0.148633
    20  C    0.110241
    21  C    0.012170
    22  O   -0.249761
    23  C    0.062540
    24  N   -0.341119
    25  C    0.041150
    26  C   -0.028115
    27  C   -0.023989
    28  C    0.074849
    29  C    0.076203
    30  C    0.035144
    31  C   -0.004472
    32  N   -0.310578
    33  C    0.080556
    34  C   -0.169470
    35  C    0.008569
    36  C    0.083156
    37  C    0.127215
    38  C    0.046463
    39  O   -0.187856
    40  C   -0.005478
    41  C    0.212927
    42  O   -0.256558
    43  O   -0.304980
    44  C    0.157471
    45  H   -0.017769
    46  H   -0.016982
    47  H   -0.041420
    48  H    0.001015
    49  H   -0.004228
    50  H    0.025520
    51  H    0.016407
    52  H    0.016521
    53  H    0.010958
    54  H    0.044464
    55  H    0.017881
    56  H    0.017617
    57  H    0.005755
    58  H    0.026703
    59  H    0.039185
    60  H    0.037313
    61  H    0.035487
    62  H    0.031271
    63  H    0.016401
    64  H    0.009483
    65  H    0.023095
    66  H    0.012540
    67  H    0.004734
    68  H    0.006236
    69  H    0.004841
    70  H    0.008586
    71  H    0.018017
    72  H    0.029146
    73  H    0.048112
    74  H    0.009095
    75  H    0.045996
    76  H    0.035092
    77  H    0.043077
    78  H    0.046063
    79  H    0.054394
    80  Mg   0.837727
    81  C   -0.016727
    82  C   -0.087900
    83  C   -0.045578
    84  C   -0.064798
    85  N   -0.254507
    86  C   -0.049769
    87  C   -0.015071
    88  C   -0.090518
    89  C    0.045701
    90  C    0.114391
    91  C    0.062566
    92  C   -0.077742
    93  H    0.034785
    94  N   -0.423437
    95  C    0.162778
    96  C   -0.174855
    97  C   -0.007961
    98  C    0.151998
    99  C    0.099467
   100  C    0.015413
   101  O   -0.253364
   102  C    0.061265
   103  N   -0.350016
   104  C    0.037443
   105  C   -0.019785
   106  C   -0.034847
   107  C    0.089017
   108  C    0.073685
   109  C    0.034738
   110  C   -0.007652
   111  N   -0.324227
   112  C    0.078548
   113  C   -0.162899
   114  C    0.002684
   115  C    0.096153
   116  C    0.131473
   117  C    0.042880
   118  O   -0.186780
   119  C    0.000711
   120  C    0.211317
   121  O   -0.251214
   122  O   -0.305459
   123  C    0.152052
   124  H   -0.020032
   125  H   -0.015750
   126  H   -0.040310
   127  H   -0.000484
   128  H   -0.004611
   129  H    0.022859
   130  H    0.014351
   131  H    0.015745
   132  H    0.013811
   133  H    0.037754
   134  H    0.020711
   135  H    0.019347
   136  H    0.008522
   137  H    0.025824
   138  H    0.039556
   139  H    0.038091
   140  H    0.036187
   141  H    0.033814
   142  H    0.014242
   143  H    0.012527
   144  H    0.024945
   145  H    0.011635
   146  H    0.005726
   147  H    0.006119
   148  H    0.003717
   149  H    0.010825
   150  H    0.017864
   151  H    0.030168
   152  H    0.046225
   153  H    0.008263
   154  H    0.048110
   155  H    0.035757
   156  H    0.044158
   157  H    0.049148
   158  H    0.053501
 Sum of Mulliken charges =  -0.00000

 Dipole moment (field-independent basis, Debye):
    X=              1.7827    Y=             -1.8869    Z=              8.2313  Tot=              8.6309
 Quadrupole moment (field-independent basis, Debye-Ang):
   XX=           -487.9863   YY=           -538.3808   ZZ=           -459.6821
   XY=            -11.3006   XZ=             -5.9073   YZ=             56.0760

 Normal termination of Gaussian 16 at Sun Sep 12 05:01:25 2021.
