 Gaussian 16, Revision A.03,
 Gaussian 16:  ES64L-G16RevA.03 25-Dec-2016

 -----------------------------------
 #p cam-b3lyp/Def2SVP td=(nstates=5)
 -----------------------------------

 --------------------------------
 TDDFT excited states in gaussian
 --------------------------------
 Symbolic Z-matrix:
 Charge =  0 Multiplicity = 1

                         Standard orientation:
 ---------------------------------------------------------------------
 Center     Atomic      Atomic             Coordinates (Angstroms)
 Number     Number       Type             X           Y           Z
 ---------------------------------------------------------------------
      1         12           0       -7.824260   -0.816752    0.061619
      2          6           0       -8.045875    2.748826    0.284672
      3          6           0       -8.692735   -0.516291   -3.224495
      4          6           0       -8.078905   -3.975846   -0.047490
      5          6           0       -8.093759   -0.903190    3.535170
      6          7           0       -8.283440    0.946614   -1.195497
      7          6           0       -8.274442    2.262115   -1.004325
      8          6           0       -8.456074    3.078688   -2.318704
      9          6           0       -9.201029    1.977261   -3.198419
     10          6           0       -8.667728    0.725876   -2.523475
     11          6           0      -10.719034    2.005238   -3.052193
     12          6           0       -7.086791    3.491180   -2.956392
     13          6           0       -7.171139    4.558294   -4.051612
     14          1           0       -6.100288    5.537615   -4.159110
     15          7           0       -7.833817   -2.048741   -1.482713
     16          6           0       -8.201498   -1.752747   -2.752550
     17          6           0       -8.033436   -3.001185   -3.527042
     18          6           0       -7.719731   -4.094414   -2.565514
     19          6           0       -7.892995   -3.413179   -1.308026
     20          6           0       -8.123836   -3.061140   -5.021024
     21          6           0       -7.336461   -5.528650   -2.750449
     22          8           0       -7.335157   -6.362718   -1.781479
     23          6           0       -7.044167   -5.957883   -4.130074
     24          7           0       -8.273609   -2.255880    1.505443
     25          6           0       -8.260682   -3.559744    1.207525
     26          6           0       -8.330963   -4.403466    2.445722
     27          6           0       -8.149221   -3.400589    3.674934
     28          6           0       -8.084180   -2.069593    2.885955
     29          6           0       -9.622714   -5.211183    2.632761
     30          6           0       -7.013729   -3.718528    4.679919
     31          6           0       -5.670108   -3.545325    4.007773
     32          7           0       -7.855774    0.643440    1.667200
     33          6           0       -7.998516    0.385979    3.038335
     34          6           0       -8.071233    1.692480    3.717921
     35          6           0       -7.981817    2.625238    2.686509
     36          6           0       -7.887313    1.944473    1.439144
     37          6           0       -8.261136    1.896674    5.113155
     38          6           0       -7.968915    4.038627    2.345887
     39          8           0       -7.926626    5.086147    2.992730
     40          6           0       -8.132541    4.175231    0.767789
     41          6           0       -7.089321    5.145754    0.285000
     42          8           0       -5.875516    4.861827    0.343556
     43          8           0       -7.686660    6.145051   -0.382184
     44          6           0       -6.705019    7.127992   -0.913562
     45          1           0       -9.184799   -0.563178   -4.197950
     46          1           0       -8.061199   -5.067529   -0.028734
     47          1           0       -8.093052   -0.851306    4.625473
     48          1           0       -9.084387    3.964130   -2.220526
     49          1           0       -8.886570    2.008551   -4.241424
     50          1           0      -11.031042    2.694091   -2.267302
     51          1           0      -11.005908    0.984420   -2.798959
     52          1           0      -11.196334    2.222218   -4.008164
     53          1           0       -6.696164    2.657278   -3.539555
     54          1           0       -6.386080    3.818363   -2.187445
     55          1           0       -8.142753    5.053144   -4.051960
     56          1           0       -7.121001    4.059166   -5.019372
     57          1           0       -8.528401   -2.138429   -5.435120
     58          1           0       -8.869140   -3.817982   -5.264791
     59          1           0       -7.170242   -3.323119   -5.479671
     60          1           0       -7.919935   -5.781625   -4.754985
     61          1           0       -6.702113   -6.989696   -4.057883
     62          1           0       -6.248382   -5.331193   -4.533726
     63          1           0       -7.528212   -5.139469    2.463497
     64          1           0       -9.044870   -3.346098    4.294222
     65          1           0       -9.457142   -6.283640    2.738252
     66          1           0      -10.278683   -4.997862    1.789262
     67          1           0      -10.240957   -4.896475    3.473089
     68          1           0       -7.077005   -4.755535    5.007881
     69          1           0       -7.036401   -3.087663    5.568596
     70          1           0       -5.527040   -4.498700    3.500387
     71          1           0       -4.890996   -3.378541    4.752339
     72          1           0       -5.705162   -2.770516    3.241660
     73          1           0       -7.567482    2.685802    5.403137
     74          1           0       -8.077762    0.981597    5.675838
     75          1           0       -9.308940    2.195978    5.132657
     76          1           0       -9.143942    4.538249    0.587769
     77          1           0       -6.991272    8.107172   -0.529505
     78          1           0       -6.687150    6.994231   -1.995316
     79          1           0       -5.686708    7.046829   -0.531732
     80         12           0        8.058403   -0.730680    0.095284
     81          6           0        7.521625    2.812808    0.281377
     82          6           0        7.488455   -0.490154   -3.259101
     83          6           0        8.079487   -3.900850   -0.035012
     84          6           0        7.456725   -0.861829    3.525521
     85          7           0        7.577767    0.993589   -1.204003
     86          6           0        7.460021    2.301570   -1.031738
     87          6           0        7.345497    3.115964   -2.348255
     88          6           0        6.776056    1.954955   -3.300445
     89          6           0        7.341455    0.739411   -2.568684
     90          6           0        5.259634    1.856745   -3.288806
     91          6           0        8.736879    3.639624   -2.850111
     92          6           0        8.665965    4.696947   -3.954103
     93          1           0        9.664684    5.762288   -3.962731
     94          7           0        8.303751   -1.950886   -1.450510
     95          6           0        8.044240   -1.683366   -2.747576
     96          6           0        8.371723   -2.913246   -3.485350
     97          6           0        8.689069   -3.981508   -2.499022
     98          6           0        8.341928   -3.310189   -1.262523
     99          6           0        8.440219   -2.969380   -4.983877
    100          6           0        9.205774   -5.380709   -2.645472
    101          8           0        9.181907   -6.212772   -1.670829
    102          6           0        9.654178   -5.776771   -3.988438
    103          7           0        7.598317   -2.202248    1.489961
    104          6           0        7.742441   -3.505644    1.192803
    105          6           0        7.618739   -4.363916    2.429105
    106          6           0        7.602214   -3.343647    3.660518
    107          6           0        7.630655   -2.009025    2.883757
    108          6           0        6.382926   -5.261028    2.495215
    109          6           0        8.657350   -3.571461    4.777418
    110          6           0       10.043985   -3.297714    4.241051
    111          7           0        7.758281    0.709191    1.677929
    112          6           0        7.496696    0.438580    3.038973
    113          6           0        7.251990    1.736064    3.701620
    114          6           0        7.366389    2.677074    2.667265
    115          6           0        7.641588    2.011241    1.442341
    116          6           0        6.921763    1.920096    5.073919
    117          6           0        7.306401    4.081397    2.331106
    118          8           0        7.193067    5.124391    2.973793
    119          6           0        7.279057    4.221350    0.748050
    120          6           0        8.282486    5.271536    0.357207
    121          8           0        9.497551    5.086425    0.546874
    122          8           0        7.665948    6.221231   -0.369646
    123          6           0        8.622410    7.279598   -0.790203
    124          1           0        7.103917   -0.562911   -4.276807
    125          1           0        8.183508   -4.987880   -0.002971
    126          1           0        7.359060   -0.809703    4.611988
    127          1           0        6.646540    3.942929   -2.311507
    128          1           0        7.193078    2.025251   -4.301705
    129          1           0        4.819344    2.508687   -2.549029
    130          1           0        5.033536    0.822577   -3.064265
    131          1           0        4.862219    2.041399   -4.290946
    132          1           0        9.247670    2.834411   -3.393665
    133          1           0        9.322169    4.010764   -2.031378
    134          1           0        7.657466    5.114735   -4.060545
    135          1           0        8.857071    4.210192   -4.913565
    136          1           0        7.996094   -2.076315   -5.440582
    137          1           0        7.788948   -3.790198   -5.303206
    138          1           0        9.451035   -3.156316   -5.352616
    139          1           0        8.832149   -5.664439   -4.691378
    140          1           0       10.071197   -6.779147   -3.873502
    141          1           0       10.441491   -5.086813   -4.312040
    142          1           0        8.472750   -5.022424    2.529775
    143          1           0        6.644527   -3.372490    4.200730
    144          1           0        6.627751   -6.332791    2.619506
    145          1           0        5.800022   -5.105803    1.597074
    146          1           0        5.670819   -5.009143    3.279216
    147          1           0        8.649398   -4.615946    5.098570
    148          1           0        8.491094   -2.962060    5.659456
    149          1           0       10.308265   -4.238360    3.748675
    150          1           0       10.731185   -3.070923    5.053680
    151          1           0       10.021279   -2.517694    3.471184
    152          1           0        7.510545    2.756534    5.426363
    153          1           0        7.119232    1.021284    5.654367
    154          1           0        5.851702    2.128229    4.990805
    155          1           0        6.263871    4.498206    0.461137
    156          1           0        8.217466    8.233889   -0.439434
    157          1           0        8.744250    7.155184   -1.882636
    158          1           0        9.602144    7.282535   -0.326995
 ---------------------------------------------------------------------

 SCF Done:  E(RCAM-B3LYP) =  -4069.81164851     A.U. after   19 cycles

 Excitation energies and oscillator strengths:

 Excited State   1:      Singlet-A      1.6698 eV  742.52 nm  f=0.0181  <S**2>=0.000
     309 -> 315       -0.10460
     310 -> 316        0.13708
     311 -> 313       -0.41488
     312 -> 314        0.54678
 This state for optimization and/or second-order correction.
 Total Energy, E(TD-HF/TD-DFT) =  -4069.75028546
 Copying the excited state density for this state as the 1-particle RhoCI density.

 Excited State   2:      Singlet-A      1.6854 eV  735.65 nm  f=0.7387  <S**2>=0.000
     309 -> 315        0.14098
     310 -> 316        0.10638
     311 -> 313        0.54594
     312 -> 314        0.41435

 Excited State   3:      Singlet-A      2.1854 eV  567.32 nm  f=0.0560  <S**2>=0.000
     309 -> 313       -0.14482
     310 -> 314        0.62621
     312 -> 316       -0.26568

 Excited State   4:      Singlet-A      2.1928 eV  565.41 nm  f=0.1371  <S**2>=0.000
     309 -> 313        0.62422
     310 -> 314        0.14372
     311 -> 315       -0.27142

 Excited State   5:      Singlet-A      2.7677 eV  447.97 nm  f=0.0000  <S**2>=0.000
     312 -> 313        0.70710

 The electronic state is 1-A.
 Alpha  occ. eigenvalues --  -46.87820 -46.87586 -19.26292 -19.26267 -19.19081
 Alpha  occ. eigenvalues --  -19.19029 -19.18843 -19.18654 -19.18180 -19.17960
 Alpha  occ. eigenvalues --  -14.42475 -14.42423 -14.41472 -14.41284 -14.39427
 Alpha  occ. eigenvalues --  -14.39279 -14.38608 -14.38522 -10.39089 -10.39009
 Alpha  occ. eigenvalues --  -10.35477 -10.35333 -10.34400 -10.34137 -10.31685
 Alpha  occ. eigenvalues --  -10.31681 -10.31428 -10.31231 -10.30952 -10.30936
 Alpha  occ. eigenvalues --  -10.30591 -10.30529 -10.30321 -10.30282 -10.30232
 Alpha  occ. eigenvalues --  -10.30072 -10.29940 -10.29817 -10.29653 -10.29366
 Alpha  occ. eigenvalues --  -10.29326 -10.29279 -10.28780 -10.28648 -10.28602
 Alpha  occ. eigenvalues --  -10.28583 -10.28388 -10.28329 -10.28146 -10.28068
 Alpha  occ. eigenvalues --  -10.27923 -10.27813 -10.27752 -10.27608 -10.27597
 Alpha  occ. eigenvalues --  -10.27521 -10.27518 -10.27469 -10.27449 -10.27426
 Alpha  occ. eigenvalues --  -10.27417 -10.27407 -10.27395 -10.27306 -10.27172
 Alpha  occ. eigenvalues --  -10.26959 -10.26744 -10.26632 -10.26447 -10.26371
 Alpha  occ. eigenvalues --  -10.26260 -10.26204 -10.26076 -10.26041 -10.25943
 Alpha  occ. eigenvalues --  -10.25860 -10.25849 -10.25752 -10.25453 -10.25326
 Alpha  occ. eigenvalues --  -10.24852 -10.24810 -10.24792 -10.24711 -10.24673
 Alpha  occ. eigenvalues --  -10.24615  -3.16563  -3.16335  -1.91445  -1.91218
 Alpha  occ. eigenvalues --   -1.91032  -1.90874  -1.90806  -1.90643  -1.16641
 Alpha  occ. eigenvalues --   -1.16562  -1.08637  -1.08566  -1.07244  -1.06908
 Alpha  occ. eigenvalues --   -1.06864  -1.06651  -1.04605  -1.04421  -1.03784
 Alpha  occ. eigenvalues --   -1.03589  -1.03256  -1.02964  -1.02434  -1.02036
 Alpha  occ. eigenvalues --   -0.91992  -0.91907  -0.89541  -0.89423  -0.89217
 Alpha  occ. eigenvalues --   -0.89080  -0.88308  -0.88150  -0.87887  -0.87710
 Alpha  occ. eigenvalues --   -0.87699  -0.87611  -0.87302  -0.87057  -0.85011
 Alpha  occ. eigenvalues --   -0.84930  -0.83956  -0.83806  -0.82996  -0.82873
 Alpha  occ. eigenvalues --   -0.82675  -0.82584  -0.81602  -0.81519  -0.80618
 Alpha  occ. eigenvalues --   -0.80369  -0.78822  -0.78565  -0.77243  -0.77074
 Alpha  occ. eigenvalues --   -0.76958  -0.76826  -0.75945  -0.75763  -0.74918
 Alpha  occ. eigenvalues --   -0.74731  -0.72795  -0.72623  -0.71694  -0.71506
 Alpha  occ. eigenvalues --   -0.69929  -0.69691  -0.68900  -0.68757  -0.67663
 Alpha  occ. eigenvalues --   -0.67528  -0.67252  -0.67137  -0.65313  -0.65199
 Alpha  occ. eigenvalues --   -0.64874  -0.64696  -0.64643  -0.64580  -0.64291
 Alpha  occ. eigenvalues --   -0.64133  -0.62312  -0.62201  -0.60468  -0.60273
 Alpha  occ. eigenvalues --   -0.59831  -0.59723  -0.59009  -0.58918  -0.58524
 Alpha  occ. eigenvalues --   -0.58350  -0.57599  -0.57470  -0.57329  -0.57164
 Alpha  occ. eigenvalues --   -0.56331  -0.56130  -0.55995  -0.55812  -0.55544
 Alpha  occ. eigenvalues --   -0.55383  -0.55357  -0.55173  -0.54539  -0.54414
 Alpha  occ. eigenvalues --   -0.53924  -0.53842  -0.53322  -0.53248  -0.53157
 Alpha  occ. eigenvalues --   -0.53071  -0.52934  -0.52830  -0.52786  -0.52609
 Alpha  occ. eigenvalues --   -0.52459  -0.52336  -0.51927  -0.51794  -0.51645
 Alpha  occ. eigenvalues --   -0.51592  -0.51215  -0.51124  -0.50606  -0.50420
 Alpha  occ. eigenvalues --   -0.50055  -0.49946  -0.49912  -0.49799  -0.49541
 Alpha  occ. eigenvalues --   -0.49421  -0.49235  -0.49128  -0.49120  -0.49027
 Alpha  occ. eigenvalues --   -0.48611  -0.48484  -0.48482  -0.48466  -0.48303
 Alpha  occ. eigenvalues --   -0.48273  -0.47720  -0.47526  -0.47320  -0.47051
 Alpha  occ. eigenvalues --   -0.46820  -0.46637  -0.46584  -0.46486  -0.46380
 Alpha  occ. eigenvalues --   -0.46198  -0.46180  -0.46008  -0.45836  -0.45740
 Alpha  occ. eigenvalues --   -0.45222  -0.45137  -0.44595  -0.44535  -0.44438
 Alpha  occ. eigenvalues --   -0.44406  -0.44167  -0.44115  -0.44053  -0.44040
 Alpha  occ. eigenvalues --   -0.44010  -0.43870  -0.43510  -0.43477  -0.43411
 Alpha  occ. eigenvalues --   -0.43312  -0.43048  -0.42854  -0.42821  -0.42715
 Alpha  occ. eigenvalues --   -0.42671  -0.42486  -0.42032  -0.41896  -0.41724
 Alpha  occ. eigenvalues --   -0.41590  -0.41562  -0.41391  -0.41164  -0.40915
 Alpha  occ. eigenvalues --   -0.40897  -0.40853  -0.40661  -0.40633  -0.40593
 Alpha  occ. eigenvalues --   -0.40423  -0.40270  -0.40165  -0.39463  -0.39360
 Alpha  occ. eigenvalues --   -0.38492  -0.38281  -0.37781  -0.37589  -0.37343
 Alpha  occ. eigenvalues --   -0.37291  -0.37195  -0.37128  -0.36726  -0.36693
 Alpha  occ. eigenvalues --   -0.36211  -0.36144  -0.34308  -0.34178  -0.33783
 Alpha  occ. eigenvalues --   -0.33782  -0.33208  -0.33100  -0.31372  -0.31213
 Alpha  occ. eigenvalues --   -0.31058  -0.30898  -0.30039  -0.29864  -0.29473
 Alpha  occ. eigenvalues --   -0.29341  -0.29255  -0.29130  -0.24103  -0.23960
 Alpha  occ. eigenvalues --   -0.21151  -0.21042
 Alpha virt. eigenvalues --   -0.08797  -0.08717  -0.01773  -0.01611  -0.00084
 Alpha virt. eigenvalues --    0.00040   0.02184   0.02290   0.03093   0.03294
 Alpha virt. eigenvalues --    0.04691   0.04802   0.05088   0.05247   0.06143

 Mulliken charges:
               1
     1  Mg   0.838650
     2  C   -0.002985
     3  C   -0.094288
     4  C   -0.045866
     5  C   -0.063925
     6  N   -0.256760
     7  C   -0.052484
     8  C   -0.013988
     9  C   -0.086970
    10  C    0.046251
    11  C    0.104812
    12  C    0.053536
    13  C   -0.071678
    14  H    0.035905
    15  N   -0.433127
    16  C    0.168335
    17  C   -0.177305
    18  C   -0.004062
    19  C    0.148653
    20  C    0.110217
    21  C    0.012216
    22  O   -0.249579
    23  C    0.062533
    24  N   -0.341164
    25  C    0.041223
    26  C   -0.028183
    27  C   -0.024000
    28  C    0.074880
    29  C    0.076147
    30  C    0.035105
    31  C   -0.004496
    32  N   -0.310517
    33  C    0.080468
    34  C   -0.169543
    35  C    0.008478
    36  C    0.083008
    37  C    0.127262
    38  C    0.046282
    39  O   -0.188048
    40  C   -0.005381
    41  C    0.212948
    42  O   -0.257042
    43  O   -0.304824
    44  C    0.157599
    45  H   -0.017689
    46  H   -0.016828
    47  H   -0.041363
    48  H    0.001040
    49  H   -0.004224
    50  H    0.025554
    51  H    0.016489
    52  H    0.016613
    53  H    0.010914
    54  H    0.044162
    55  H    0.018029
    56  H    0.017705
    57  H    0.005768
    58  H    0.026838
    59  H    0.039192
    60  H    0.037349
    61  H    0.035659
    62  H    0.031218
    63  H    0.016532
    64  H    0.009547
    65  H    0.023234
    66  H    0.012554
    67  H    0.004810
    68  H    0.006394
    69  H    0.004833
    70  H    0.008737
    71  H    0.018106
    72  H    0.028960
    73  H    0.047884
    74  H    0.009163
    75  H    0.046089
    76  H    0.035199
    77  H    0.043171
    78  H    0.046163
    79  H    0.053902
    80  Mg   0.837929
    81  C   -0.016771
    82  C   -0.087846
    83  C   -0.045542
    84  C   -0.064753
    85  N   -0.254540
    86  C   -0.049653
    87  C   -0.015097
    88  C   -0.090571
    89  C    0.045791
    90  C    0.114383
    91  C    0.062562
    92  C   -0.077762
    93  H    0.034709
    94  N   -0.423467
    95  C    0.162857
    96  C   -0.174802
    97  C   -0.007943
    98  C    0.152072
    99  C    0.099466
   100  C    0.015455
   101  O   -0.253301
   102  C    0.061253
   103  N   -0.350004
   104  C    0.037499
   105  C   -0.019814
   106  C   -0.034862
   107  C    0.089004
   108  C    0.073664
   109  C    0.034739
   110  C   -0.007643
   111  N   -0.324206
   112  C    0.078577
   113  C   -0.162906
   114  C    0.002520
   115  C    0.096230
   116  C    0.131414
   117  C    0.042717
   118  O   -0.187407
   119  C    0.000785
   120  C    0.211227
   121  O   -0.251216
   122  O   -0.305448
   123  C    0.152092
   124  H   -0.019987
   125  H   -0.015699
   126  H   -0.040367
   127  H   -0.000396
   128  H   -0.004667
   129  H    0.023180
   130  H    0.014476
   131  H    0.015814
   132  H    0.013781
   133  H    0.037682
   134  H    0.020826
   135  H    0.019347
   136  H    0.008527
   137  H    0.025834
   138  H    0.039555
   139  H    0.038086
   140  H    0.036214
   141  H    0.033797
   142  H    0.014241
   143  H    0.012573
   144  H    0.024962
   145  H    0.011772
   146  H    0.005759
   147  H    0.006148
   148  H    0.003683
   149  H    0.010840
   150  H    0.017833
   151  H    0.030130
   152  H    0.045994
   153  H    0.008364
   154  H    0.047789
   155  H    0.035751
   156  H    0.044038
   157  H    0.049280
   158  H    0.053450
 Sum of Mulliken charges =  -0.00000

 Dipole moment (field-independent basis, Debye):
    X=             -3.5381    Y=             -2.4819    Z=             -7.8096  Tot=              8.9257
 Quadrupole moment (field-independent basis, Debye-Ang):
   XX=           -509.7167   YY=           -551.7770   ZZ=           -447.7037
   XY=             -1.4981   XZ=             -2.0461   YZ=            -49.0177

 Normal termination of Gaussian 16 at Sun Sep 12 05:54:06 2021.
