 Gaussian 16, Revision A.03,
 Gaussian 16:  ES64L-G16RevA.03 25-Dec-2016

 -----------------------------------
 #p cam-b3lyp/Def2SVP td=(nstates=5)
 -----------------------------------

 --------------------------------
 TDDFT excited states in gaussian
 --------------------------------
 Symbolic Z-matrix:
 Charge =  0 Multiplicity = 1

                         Standard orientation:
 ---------------------------------------------------------------------
 Center     Atomic      Atomic             Coordinates (Angstroms)
 Number     Number       Type             X           Y           Z
 ---------------------------------------------------------------------
      1         12           0        8.210849    0.402987    0.509140
      2          6           0        8.422464   -2.707933   -1.248588
      3          6           0        9.208593    1.929679   -2.374744
      4          6           0        8.470499    3.100972    2.155372
      5          6           0        8.342712   -1.430246    3.470141
      6          7           0        8.718920   -0.395338   -1.492157
      7          6           0        8.701995   -1.600653   -2.052603
      8          6           0        8.935266   -1.569201   -3.592723
      9          6           0        9.714758   -0.182598   -3.700991
     10          6           0        9.155518    0.507254   -2.469212
     11          6           0       11.225779   -0.319217   -3.543980
     12          6           0        7.592174   -1.535693   -4.396906
     13          6           0        7.719495   -1.831650   -5.894088
     14          1           0        6.653461   -2.569023   -6.555299
     15          7           0        8.281856    2.278437   -0.107704
     16          6           0        8.699413    2.717135   -1.319511
     17          6           0        8.562480    4.189217   -1.289417
     18          6           0        8.211280    4.585166    0.102695
     19          6           0        8.334458    3.323522    0.787136
     20          6           0        8.711944    5.054470   -2.502985
     21          6           0        7.836030    5.895030    0.720414
     22          8           0        7.796620    6.063175    1.987201
     23          6           0        7.598679    7.015173   -0.208018
     24          7           0        8.603118    0.807952    2.519056
     25          6           0        8.602355    2.062388    2.983142
     26          6           0        8.623822    2.089805    4.482717
     27          6           0        8.393300    0.582211    4.955763
     28          6           0        8.359157   -0.098804    3.565323
     29          6           0        9.907387    2.635223    5.123803
     30          6           0        7.219020    0.323534    5.932784
     31          6           0        5.902999    0.575589    5.231602
     32          7           0        8.178395   -1.697845    1.053654
     33          6           0        8.266841   -2.235367    2.345909
     34          6           0        8.312243   -3.702051    2.201526
     35          6           0        8.263448   -3.916655    0.825514
     36          6           0        8.218569   -2.662665    0.151879
     37          6           0        8.446730   -4.640150    3.262808
     38          6           0        8.263639   -4.912972   -0.233358
     39          8           0        8.195493   -6.142487   -0.267165
     40          6           0        8.489544   -4.167823   -1.622439
     41          6           0        7.465973   -4.693192   -2.591768
     42          8           0        6.250881   -4.461019   -2.427408
     43          8           0        8.088965   -5.177713   -3.676970
     44          6           0        7.128844   -5.688250   -4.691698
     45          1           0        9.738806    2.490526   -3.146926
     46          1           0        8.452371    4.004747    2.767990
     47          1           0        8.298847   -2.069936    4.353501
     48          1           0        9.558954   -2.377689   -3.974541
     49          1           0        9.441809    0.368516   -4.600710
     50          1           0       11.506291   -1.331812   -3.254353
     51          1           0       11.502695    0.390347   -2.764025
     52          1           0       11.740473    0.011558   -4.446452
     53          1           0        7.225163   -0.510307   -4.441037
     54          1           0        6.861492   -2.214712   -3.956040
     55          1           0        8.690222   -2.266878   -6.133198
     56          1           0        7.707831   -0.883561   -6.431853
     57          1           0        9.132319    4.499850   -3.340975
     58          1           0        9.466523    5.804879   -2.268025
     59          1           0        7.777319    5.545433   -2.774579
     60          1           0        8.498440    7.190248   -0.798212
     61          1           0        7.254325    7.846718    0.405825
     62          1           0        6.819314    6.728865   -0.914818
     63          1           0        7.821203    2.713629    4.873960
     64          1           0        9.263727    0.178311    5.473350
     65          1           0        9.738072    3.478709    5.793556
     66          1           0       10.596160    2.903638    4.323281
     67          1           0       10.491805    1.898732    5.674668
     68          1           0        7.269559    1.010673    6.776723
     69          1           0        7.206331   -0.690956    6.331406
     70          1           0        5.780388    1.654101    5.324392
     71          1           0        5.094988    0.045861    5.737287
     72          1           0        5.968124    0.345358    4.168005
     73          1           0        7.741923   -5.443986    3.050526
     74          1           0        8.241491   -4.178025    4.228168
     75          1           0        9.492857   -4.924247    3.149837
     76          1           0        9.507175   -4.395328   -1.938337
     77          1           0        7.399400   -6.724046   -4.897029
     78          1           0        7.153832   -4.984304   -5.523708
     79          1           0        6.096244   -5.806851   -4.361532
     80         12           0       -7.660629    0.665026   -0.020423
     81          6           0      -10.272902   -1.777668    0.276853
     82          6           0       -9.892695    2.630119   -1.691007
     83          6           0       -5.268984    2.638997   -0.691921
     84          6           0       -5.384899   -1.892632    0.631646
     85          7           0       -9.779978    0.356322   -0.572971
     86          6           0      -10.685496   -0.584940   -0.352923
     87          6           0      -12.131051   -0.195169   -0.762795
     88          6           0      -11.776798    0.924286   -1.858337
     89          6           0      -10.413025    1.362157   -1.328197
     90          6           0      -11.586922    0.359435   -3.256277
     91          6           0      -12.948806    0.409125    0.432243
     92          6           0      -14.454948    0.524763    0.187497
     93          1           0      -15.361543    0.305726    1.311143
     94          7           0       -7.685953    2.563617   -0.597704
     95          6           0       -8.682494    3.204431   -1.243887
     96          6           0       -8.203975    4.578769   -1.459204
     97          6           0       -6.779626    4.651524   -1.034169
     98          6           0       -6.510997    3.251846   -0.771831
     99          6           0       -9.096033    5.684377   -1.944264
    100          6           0       -5.814774    5.790485   -0.899886
    101          8           0       -4.558160    5.593391   -0.742028
    102          6           0       -6.371443    7.142680   -1.052080
    103          7           0       -5.613461    0.376408   -0.239834
    104          6           0       -4.790974    1.412726   -0.479595
    105          6           0       -3.344351    1.008237   -0.324456
    106          6           0       -3.374324   -0.460196    0.308296
    107          6           0       -4.900510   -0.696367    0.327506
    108          6           0       -2.516770    0.991604   -1.609456
    109          6           0       -2.576318   -0.676325    1.623273
    110          6           0       -3.220139    0.097885    2.750867
    111          7           0       -7.779996   -1.411364    0.564734
    112          6           0       -6.704866   -2.306208    0.758233
    113          6           0       -7.288626   -3.634583    1.035854
    114          6           0       -8.673689   -3.423577    0.961292
    115          6           0       -8.934373   -2.064371    0.638645
    116          6           0       -6.556508   -4.833941    1.263185
    117          6           0       -9.974319   -4.043966    1.071685
    118          8           0      -10.381055   -5.154688    1.410205
    119          6           0      -11.065236   -3.034235    0.508879
    120          6           0      -12.197806   -2.975952    1.497016
    121          8           0      -12.020428   -2.506101    2.634730
    122          8           0      -13.347503   -3.280785    0.868006
    123          6           0      -14.501632   -3.225674    1.804366
    124          1           0      -10.441363    3.226707   -2.420352
    125          1           0       -4.408006    3.301611   -0.806509
    126          1           0       -4.743688   -2.720447    0.941878
    127          1           0      -12.704749   -0.993169   -1.218700
    128          1           0      -12.482931    1.749765   -1.822150
    129          1           0      -11.605296   -0.720281   -3.260475
    130          1           0      -10.624511    0.722766   -3.592139
    131          1           0      -12.325926    0.787743   -3.939486
    132          1           0      -12.693829    1.471273    0.539759
    133          1           0      -12.770658   -0.143800    1.333997
    134          1           0      -14.776646   -0.056944   -0.684897
    135          1           0      -14.684579    1.558935   -0.080449
    136          1           0      -10.045729    5.294607   -2.330988
    137          1           0       -8.608341    6.128324   -2.818867
    138          1           0       -9.249911    6.461787   -1.192837
    139          1           0       -6.838410    7.233021   -2.029957
    140          1           0       -5.546899    7.824352   -0.834530
    141          1           0       -7.165995    7.279472   -0.310066
    142          1           0       -2.827588    1.673685    0.356151
    143          1           0       -2.949223   -1.208006   -0.377194
    144          1           0       -1.620223    1.637979   -1.559604
    145          1           0       -3.155212    1.289607   -2.430508
    146          1           0       -2.176441    0.007424   -1.926873
    147          1           0       -1.561085   -0.285808    1.518693
    148          1           0       -2.492244   -1.718967    1.911089
    149          1           0       -2.810446    1.104502    2.624486
    150          1           0       -2.940257   -0.324107    3.714001
    151          1           0       -4.305651    0.164127    2.613243
    152          1           0       -7.031449   -5.335530    2.095858
    153          1           0       -5.508216   -4.627033    1.468194
    154          1           0       -6.695783   -5.332904    0.300422
    155          1           0      -11.388609   -3.409515   -0.462801
    156          1           0      -15.000131   -4.198669    1.754646
    157          1           0      -15.091827   -2.341157    1.499335
    158          1           0      -14.284604   -3.153112    2.863648
 ---------------------------------------------------------------------

 SCF Done:  E(RCAM-B3LYP) =  -4069.81188810     A.U. after   19 cycles

 Excitation energies and oscillator strengths:

 Excited State   1:      Singlet-A      1.6693 eV  742.74 nm  f=0.0200  <S**2>=0.000
     309 -> 315       -0.10184
     310 -> 316        0.13907
     311 -> 313       -0.40410
     312 -> 314        0.55482
 This state for optimization and/or second-order correction.
 Total Energy, E(TD-HF/TD-DFT) =  -4069.75054345
 Copying the excited state density for this state as the 1-particle RhoCI density.

 Excited State   2:      Singlet-A      1.6855 eV  735.59 nm  f=0.7354  <S**2>=0.000
     309 -> 315        0.14317
     310 -> 316        0.10371
     311 -> 313        0.55398
     312 -> 314        0.40356

 Excited State   3:      Singlet-A      2.1856 eV  567.29 nm  f=0.1053  <S**2>=0.000
     310 -> 314        0.64240
     312 -> 316       -0.27278

 Excited State   4:      Singlet-A      2.1932 eV  565.30 nm  f=0.0970  <S**2>=0.000
     309 -> 313        0.64042
     311 -> 315       -0.27860

 Excited State   5:      Singlet-A      2.7707 eV  447.48 nm  f=0.0000  <S**2>=0.000
     312 -> 313        0.70695

 The electronic state is 1-A.
 Alpha  occ. eigenvalues --  -46.87803 -46.87577 -19.26306 -19.26290 -19.19098
 Alpha  occ. eigenvalues --  -19.19047 -19.18793 -19.18651 -19.18177 -19.17976
 Alpha  occ. eigenvalues --  -14.42455 -14.42418 -14.41453 -14.41268 -14.39405
 Alpha  occ. eigenvalues --  -14.39272 -14.38594 -14.38516 -10.39104 -10.39027
 Alpha  occ. eigenvalues --  -10.35425 -10.35330 -10.34398 -10.34153 -10.31703
 Alpha  occ. eigenvalues --  -10.31701 -10.31413 -10.31229 -10.30952 -10.30911
 Alpha  occ. eigenvalues --  -10.30576 -10.30510 -10.30312 -10.30277 -10.30205
 Alpha  occ. eigenvalues --  -10.30045 -10.29925 -10.29797 -10.29631 -10.29355
 Alpha  occ. eigenvalues --  -10.29320 -10.29253 -10.28757 -10.28657 -10.28606
 Alpha  occ. eigenvalues --  -10.28552 -10.28368 -10.28329 -10.28122 -10.28077
 Alpha  occ. eigenvalues --  -10.27920 -10.27794 -10.27730 -10.27591 -10.27581
 Alpha  occ. eigenvalues --  -10.27500 -10.27465 -10.27446 -10.27410 -10.27408
 Alpha  occ. eigenvalues --  -10.27405 -10.27389 -10.27378 -10.27252 -10.27169
 Alpha  occ. eigenvalues --  -10.26979 -10.26720 -10.26637 -10.26370 -10.26367
 Alpha  occ. eigenvalues --  -10.26236 -10.26188 -10.26022 -10.25971 -10.25968
 Alpha  occ. eigenvalues --  -10.25848 -10.25835 -10.25738 -10.25427 -10.25269
 Alpha  occ. eigenvalues --  -10.24836 -10.24792 -10.24789 -10.24703 -10.24603
 Alpha  occ. eigenvalues --  -10.24592  -3.16546  -3.16327  -1.91428  -1.91209
 Alpha  occ. eigenvalues --   -1.91014  -1.90856  -1.90798  -1.90635  -1.16655
 Alpha  occ. eigenvalues --   -1.16583  -1.08636  -1.08583  -1.07193  -1.06904
 Alpha  occ. eigenvalues --   -1.06882  -1.06668  -1.04586  -1.04417  -1.03763
 Alpha  occ. eigenvalues --   -1.03580  -1.03237  -1.02950  -1.02415  -1.02026
 Alpha  occ. eigenvalues --   -0.91978  -0.91908  -0.89523  -0.89388  -0.89195
 Alpha  occ. eigenvalues --   -0.89084  -0.88288  -0.88106  -0.87874  -0.87703
 Alpha  occ. eigenvalues --   -0.87677  -0.87602  -0.87263  -0.87052  -0.84987
 Alpha  occ. eigenvalues --   -0.84929  -0.83940  -0.83761  -0.82950  -0.82858
 Alpha  occ. eigenvalues --   -0.82649  -0.82582  -0.81596  -0.81522  -0.80600
 Alpha  occ. eigenvalues --   -0.80368  -0.78792  -0.78558  -0.77221  -0.77064
 Alpha  occ. eigenvalues --   -0.76942  -0.76815  -0.75930  -0.75767  -0.74899
 Alpha  occ. eigenvalues --   -0.74700  -0.72777  -0.72611  -0.71675  -0.71496
 Alpha  occ. eigenvalues --   -0.69911  -0.69631  -0.68875  -0.68755  -0.67642
 Alpha  occ. eigenvalues --   -0.67521  -0.67221  -0.67137  -0.65294  -0.65201
 Alpha  occ. eigenvalues --   -0.64860  -0.64685  -0.64626  -0.64575  -0.64272
 Alpha  occ. eigenvalues --   -0.64095  -0.62310  -0.62201  -0.60435  -0.60260
 Alpha  occ. eigenvalues --   -0.59809  -0.59725  -0.58991  -0.58906  -0.58507
 Alpha  occ. eigenvalues --   -0.58341  -0.57596  -0.57480  -0.57310  -0.57145
 Alpha  occ. eigenvalues --   -0.56310  -0.56123  -0.55991  -0.55818  -0.55514
 Alpha  occ. eigenvalues --   -0.55383  -0.55346  -0.55148  -0.54534  -0.54391
 Alpha  occ. eigenvalues --   -0.53902  -0.53846  -0.53296  -0.53220  -0.53145
 Alpha  occ. eigenvalues --   -0.53069  -0.52923  -0.52827  -0.52745  -0.52608
 Alpha  occ. eigenvalues --   -0.52443  -0.52269  -0.51920  -0.51787  -0.51618
 Alpha  occ. eigenvalues --   -0.51595  -0.51202  -0.51115  -0.50552  -0.50410
 Alpha  occ. eigenvalues --   -0.50031  -0.49910  -0.49908  -0.49763  -0.49512
 Alpha  occ. eigenvalues --   -0.49420  -0.49216  -0.49132  -0.49100  -0.49030
 Alpha  occ. eigenvalues --   -0.48600  -0.48485  -0.48460  -0.48436  -0.48274
 Alpha  occ. eigenvalues --   -0.48271  -0.47694  -0.47517  -0.47294  -0.47038
 Alpha  occ. eigenvalues --   -0.46801  -0.46618  -0.46560  -0.46484  -0.46362
 Alpha  occ. eigenvalues --   -0.46182  -0.46168  -0.45991  -0.45831  -0.45739
 Alpha  occ. eigenvalues --   -0.45201  -0.45107  -0.44584  -0.44501  -0.44441
 Alpha  occ. eigenvalues --   -0.44395  -0.44146  -0.44091  -0.44054  -0.44018
 Alpha  occ. eigenvalues --   -0.43984  -0.43872  -0.43504  -0.43474  -0.43389
 Alpha  occ. eigenvalues --   -0.43307  -0.43031  -0.42859  -0.42817  -0.42712
 Alpha  occ. eigenvalues --   -0.42663  -0.42449  -0.42016  -0.41865  -0.41708
 Alpha  occ. eigenvalues --   -0.41587  -0.41539  -0.41379  -0.41143  -0.40909
 Alpha  occ. eigenvalues --   -0.40874  -0.40808  -0.40657  -0.40620  -0.40574
 Alpha  occ. eigenvalues --   -0.40383  -0.40241  -0.40168  -0.39446  -0.39298
 Alpha  occ. eigenvalues --   -0.38471  -0.38244  -0.37757  -0.37587  -0.37323
 Alpha  occ. eigenvalues --   -0.37270  -0.37166  -0.37126  -0.36729  -0.36697
 Alpha  occ. eigenvalues --   -0.36202  -0.36124  -0.34291  -0.34169  -0.33795
 Alpha  occ. eigenvalues --   -0.33793  -0.33191  -0.33092  -0.31324  -0.31209
 Alpha  occ. eigenvalues --   -0.31038  -0.30891  -0.30037  -0.29880  -0.29447
 Alpha  occ. eigenvalues --   -0.29326  -0.29251  -0.29130  -0.24085  -0.23953
 Alpha  occ. eigenvalues --   -0.21130  -0.21033
 Alpha virt. eigenvalues --   -0.08775  -0.08712  -0.01751  -0.01599  -0.00051
 Alpha virt. eigenvalues --    0.00041   0.02196   0.02290   0.03093   0.03306
 Alpha virt. eigenvalues --    0.04712   0.04805   0.05077   0.05230   0.06166

 Mulliken charges:
               1
     1  Mg   0.838252
     2  C   -0.003126
     3  C   -0.094079
     4  C   -0.045834
     5  C   -0.063994
     6  N   -0.256800
     7  C   -0.052606
     8  C   -0.013962
     9  C   -0.087004
    10  C    0.046313
    11  C    0.104786
    12  C    0.053448
    13  C   -0.071792
    14  H    0.035946
    15  N   -0.433227
    16  C    0.168457
    17  C   -0.177012
    18  C   -0.003824
    19  C    0.148716
    20  C    0.110142
    21  C    0.012507
    22  O   -0.249405
    23  C    0.062357
    24  N   -0.341086
    25  C    0.041221
    26  C   -0.028234
    27  C   -0.023938
    28  C    0.074657
    29  C    0.076126
    30  C    0.035146
    31  C   -0.004540
    32  N   -0.310384
    33  C    0.080134
    34  C   -0.169941
    35  C    0.008316
    36  C    0.082698
    37  C    0.127365
    38  C    0.045905
    39  O   -0.188526
    40  C   -0.005268
    41  C    0.212981
    42  O   -0.257601
    43  O   -0.304677
    44  C    0.157722
    45  H   -0.017494
    46  H   -0.016633
    47  H   -0.041504
    48  H    0.000957
    49  H   -0.003972
    50  H    0.025498
    51  H    0.016506
    52  H    0.016726
    53  H    0.011210
    54  H    0.043799
    55  H    0.017968
    56  H    0.018074
    57  H    0.005850
    58  H    0.026929
    59  H    0.039956
    60  H    0.037228
    61  H    0.036051
    62  H    0.031925
    63  H    0.016703
    64  H    0.009540
    65  H    0.023383
    66  H    0.012573
    67  H    0.004800
    68  H    0.006596
    69  H    0.004722
    70  H    0.009087
    71  H    0.017832
    72  H    0.028587
    73  H    0.047381
    74  H    0.009092
    75  H    0.046098
    76  H    0.035240
    77  H    0.043071
    78  H    0.046458
    79  H    0.053426
    80  Mg   0.837697
    81  C   -0.016978
    82  C   -0.087979
    83  C   -0.045547
    84  C   -0.064697
    85  N   -0.254565
    86  C   -0.049860
    87  C   -0.015063
    88  C   -0.090506
    89  C    0.045719
    90  C    0.114434
    91  C    0.062560
    92  C   -0.077810
    93  H    0.034756
    94  N   -0.423405
    95  C    0.162843
    96  C   -0.174872
    97  C   -0.007969
    98  C    0.152078
    99  C    0.099465
   100  C    0.015426
   101  O   -0.253329
   102  C    0.061245
   103  N   -0.350084
   104  C    0.037543
   105  C   -0.019921
   106  C   -0.035189
   107  C    0.088842
   108  C    0.073591
   109  C    0.034688
   110  C   -0.007756
   111  N   -0.324157
   112  C    0.078493
   113  C   -0.162903
   114  C    0.002201
   115  C    0.096286
   116  C    0.131441
   117  C    0.042447
   118  O   -0.187866
   119  C    0.000907
   120  C    0.211236
   121  O   -0.251040
   122  O   -0.305654
   123  C    0.152070
   124  H   -0.019972
   125  H   -0.015683
   126  H   -0.039542
   127  H   -0.000744
   128  H   -0.004506
   129  H    0.022432
   130  H    0.014397
   131  H    0.016037
   132  H    0.013895
   133  H    0.037685
   134  H    0.020716
   135  H    0.019488
   136  H    0.008605
   137  H    0.025788
   138  H    0.039585
   139  H    0.038007
   140  H    0.036123
   141  H    0.033899
   142  H    0.014408
   143  H    0.013653
   144  H    0.024941
   145  H    0.010979
   146  H    0.006830
   147  H    0.007209
   148  H    0.004562
   149  H    0.010775
   150  H    0.017918
   151  H    0.029580
   152  H    0.045986
   153  H    0.009272
   154  H    0.047149
   155  H    0.034926
   156  H    0.043841
   157  H    0.049394
   158  H    0.053549
 Sum of Mulliken charges =  -0.00000

 Dipole moment (field-independent basis, Debye):
    X=              0.9140    Y=              6.1479    Z=             -5.5237  Tot=              8.3152
 Quadrupole moment (field-independent basis, Debye-Ang):
   XX=           -432.9121   YY=           -550.2202   ZZ=           -476.1503
   XY=            -28.2395   XZ=             13.5763   YZ=            -11.6278

 Normal termination of Gaussian 16 at Sun Sep 12 08:47:01 2021.
