 Gaussian 16, Revision A.03,
 Gaussian 16:  ES64L-G16RevA.03 25-Dec-2016

 -----------------------------------
 #p cam-b3lyp/Def2SVP td=(nstates=5)
 -----------------------------------

 --------------------------------
 TDDFT excited states in gaussian
 --------------------------------
 Symbolic Z-matrix:
 Charge =  0 Multiplicity = 1

                         Standard orientation:
 ---------------------------------------------------------------------
 Center     Atomic      Atomic             Coordinates (Angstroms)
 Number     Number       Type             X           Y           Z
 ---------------------------------------------------------------------
      1         12           0        6.620619   -0.615913    0.596826
      2          6           0        7.027712    2.044206   -1.763313
      3          6           0        7.264708    1.663883    3.052583
      4          6           0        6.715599   -3.024510    2.657472
      5          6           0        7.133932   -2.836102   -2.040015
      6          7           0        7.072227    1.550174    0.527813
      7          6           0        7.139801    2.463450   -0.435791
      8          6           0        7.265564    3.920426    0.101591
      9          6           0        7.892091    3.607258    1.533858
     10          6           0        7.349370    2.203318    1.734678
     11          6           0        9.416271    3.549149    1.532639
     12          6           0        5.875370    4.629889    0.227110
     13          6           0        5.931884    6.146791    0.430008
     14          1           0        4.904087    6.974155   -0.183546
     15          7           0        6.460613   -0.624456    2.565881
     16          6           0        6.750059    0.397847    3.406359
     17          6           0        6.467481   -0.102293    4.768963
     18          6           0        6.171633   -1.558371    4.666962
     19          6           0        6.466916   -1.802671    3.278256
     20          6           0        6.447610    0.777868    5.980851
     21          6           0        5.708024   -2.571402    5.665445
     22          8           0        5.736330   -3.826617    5.424184
     23          6           0        5.297438   -2.054513    6.983507
     24          7           0        7.103033   -2.637093    0.397473
     25          6           0        7.006521   -3.475191    1.435385
     26          6           0        7.124979   -4.904451    0.995927
     27          6           0        7.079912   -4.881399   -0.600065
     28          6           0        7.022145   -3.348478   -0.812398
     29          6           0        8.386753   -5.644989    1.460191
     30          6           0        6.005479   -5.762034   -1.285991
     31          6           0        4.626952   -5.218723   -0.983378
     32          7           0        6.836834   -0.466062   -1.557667
     33          6           0        7.065015   -1.517388   -2.457290
     34          6           0        7.248574   -0.913512   -3.789846
     35          6           0        7.130125    0.457209   -3.568625
     36          6           0        6.914058    0.696151   -2.181357
     37          6           0        7.547519   -1.617322   -4.989728
     38          6           0        7.160372    1.777058   -4.177676
     39          8           0        7.214635    2.197288   -5.334376
     40          6           0        7.216815    2.864084   -3.015345
     41          6           0        6.189229    3.917495   -3.327920
     42          8           0        4.970569    3.649958   -3.302280
     43          8           0        6.784266    5.119328   -3.373415
     44          6           0        5.815141    6.213044   -3.650428
     45          1           0        7.682938    2.234281    3.884251
     46          1           0        6.647156   -3.892602    3.316388
     47          1           0        7.213846   -3.471607   -2.923871
     48          1           0        7.940873    4.558494   -0.468716
     49          1           0        7.505545    4.276464    2.302277
     50          1           0        9.816276    3.604900    0.520311
     51          1           0        9.671467    2.593358    1.990712
     52          1           0        9.833649    4.315583    2.186207
     53          1           0        5.404568    4.334698    1.164803
     54          1           0        5.248000    4.404733   -0.636046
     55          1           0        6.923500    6.541982    0.207674
     56          1           0        5.788733    6.355113    1.490342
     57          1           0        6.865069    1.761313    5.768462
     58          1           0        7.136522    0.340592    6.703277
     59          1           0        5.452175    0.850136    6.419278
     60          1           0        6.133585   -1.522553    7.437849
     61          1           0        4.912542   -2.911054    7.535814
     62          1           0        4.505616   -1.318159    6.842975
     63          1           0        6.291328   -5.498432    1.368269
     64          1           0        8.019219   -5.216458   -1.040645
     65          1           0        8.178129   -6.552828    2.026769
     66          1           0        8.990021   -4.949929    2.043499
     67          1           0        9.077956   -5.914962    0.662212
     68          1           0        6.042489   -6.778437   -0.895477
     69          1           0        6.121891   -5.818166   -2.368371
     70          1           0        4.402512   -5.652892   -0.009748
     71          1           0        3.912063   -5.555127   -1.735028
     72          1           0        4.643979   -4.135566   -0.861041
     73          1           0        6.914919   -1.183020   -5.763788
     74          1           0        7.361443   -2.685381   -4.879145
     75          1           0        8.607123   -1.387298   -5.100104
     76          1           0        8.228896    3.267575   -3.012384
     77          1           0        6.174628    6.744947   -4.531384
     78          1           0        5.713422    6.778892   -2.724213
     79          1           0        4.824102    5.905437   -3.985925
     80         12           0       -6.545850   -0.668419   -0.608961
     81          6           0       -7.376222    1.841271    1.818176
     82          6           0       -6.841432    1.752635   -2.993446
     83          6           0       -6.262067   -2.938497   -2.807516
     84          6           0       -7.429045   -3.060389    1.766778
     85          7           0       -7.047884    1.481841   -0.480093
     86          6           0       -7.283498    2.339069    0.501738
     87          6           0       -7.348223    3.824778    0.056706
     88          6           0       -7.739402    3.597439   -1.484124
     89          6           0       -7.144605    2.205052   -1.684432
     90          6           0       -9.238590    3.514647   -1.718529
     91          6           0       -5.964689    4.551546    0.196886
     92          6           0       -6.023739    6.075839    0.075220
     93          1           0       -5.115715    6.875073    0.893268
     94          7           0       -6.071941   -0.541786   -2.531966
     95          6           0       -6.238931    0.524079   -3.342717
     96          6           0       -5.752420    0.103340   -4.665761
     97          6           0       -5.437614   -1.350087   -4.609360
     98          6           0       -5.942362   -1.678167   -3.291156
     99          6           0       -5.550598    1.063689   -5.801723
    100          6           0       -4.800778   -2.291885   -5.585920
    101          8           0       -4.842571   -3.562313   -5.421345
    102          6           0       -4.208122   -1.687806   -6.788142
    103          7           0       -7.006352   -2.695796   -0.609907
    104          6           0       -6.734131   -3.466074   -1.677849
    105          6           0       -6.895570   -4.931089   -1.349123
    106          6           0       -7.099239   -4.995864    0.235778
    107          6           0       -7.109878   -3.484051    0.551539
    108          6           0       -8.057364   -5.643969   -2.040820
    109          6           0       -6.129716   -5.910696    1.033120
    110          6           0       -4.728068   -5.346699    0.981317
    111          7           0       -7.094789   -0.656427    1.480667
    112          6           0       -7.450561   -1.768061    2.275519
    113          6           0       -7.853760   -1.246705    3.597665
    114          6           0       -7.725559    0.144786    3.471931
    115          6           0       -7.293686    0.469107    2.157476
    116          6           0       -8.314757   -2.027890    4.694633
    117          6           0       -7.867572    1.413685    4.149011
    118          8           0       -8.118375    1.759339    5.302850
    119          6           0       -7.769188    2.576245    3.069579
    120          6           0       -6.822296    3.619784    3.595826
    121          8           0       -5.617300    3.356905    3.755471
    122          8           0       -7.447226    4.811158    3.617268
    123          6           0       -6.545055    5.880584    4.121497
    124          1           0       -7.129697    2.378524   -3.838458
    125          1           0       -6.075258   -3.768072   -3.493366
    126          1           0       -7.623951   -3.748240    2.592340
    127          1           0       -8.111167    4.414192    0.550953
    128          1           0       -7.244427    4.319764   -2.128025
    129          1           0       -9.791429    3.504176   -0.790947
    130          1           0       -9.400421    2.595238   -2.265819
    131          1           0       -9.561415    4.321527   -2.382646
    132          1           0       -5.346596    4.316937   -0.679272
    133          1           0       -5.483565    4.280827    1.116595
    134          1           0       -7.049253    6.456347    0.155741
    135          1           0       -5.712511    6.355707   -0.934146
    136          1           0       -6.023123    2.032551   -5.598148
    137          1           0       -6.104664    0.666030   -6.658894
    138          1           0       -4.500095    1.172572   -6.079645
    139          1           0       -4.972718   -1.135337   -7.329095
    140          1           0       -3.724342   -2.509447   -7.319870
    141          1           0       -3.453062   -0.957374   -6.476735
    142          1           0       -6.003875   -5.486927   -1.611854
    143          1           0       -8.094662   -5.379775    0.503310
    144          1           0       -7.739890   -6.523681   -2.631901
    145          1           0       -8.571050   -4.928750   -2.669418
    146          1           0       -8.852221   -5.981835   -1.378070
    147          1           0       -6.082436   -6.902099    0.575899
    148          1           0       -6.419308   -6.047574    2.069648
    149          1           0       -4.348465   -5.716546    0.024132
    150          1           0       -4.133752   -5.720526    1.812620
    151          1           0       -4.746075   -4.251941    0.927958
    152          1           0       -7.826843   -1.640846    5.579302
    153          1           0       -8.097425   -3.084083    4.549717
    154          1           0       -9.386780   -1.818964    4.645978
    155          1           0       -8.774584    2.972623    2.922469
    156          1           0       -7.053223    6.355078    4.966661
    157          1           0       -6.319888    6.518701    3.246376
    158          1           0       -5.612296    5.574318    4.580419
 ---------------------------------------------------------------------

 SCF Done:  E(RCAM-B3LYP) =  -4069.81199671     A.U. after   19 cycles

 Excitation energies and oscillator strengths:

 Excited State   1:      Singlet-A      1.6659 eV  744.23 nm  f=0.0143  <S**2>=0.000
     309 -> 315       -0.11018
     310 -> 316       -0.13165
     311 -> 314       -0.43950
     312 -> 313        0.52752
 This state for optimization and/or second-order correction.
 Total Energy, E(TD-HF/TD-DFT) =  -4069.75077454
 Copying the excited state density for this state as the 1-particle RhoCI density.

 Excited State   2:      Singlet-A      1.6894 eV  733.89 nm  f=0.7312  <S**2>=0.000
     309 -> 315        0.13682
     310 -> 316       -0.11348
     311 -> 314        0.52635
     312 -> 313        0.43863

 Excited State   3:      Singlet-A      2.1862 eV  567.13 nm  f=0.0418  <S**2>=0.000
     309 -> 314        0.19845
     310 -> 313        0.61157
     312 -> 316        0.25943

 Excited State   4:      Singlet-A      2.1938 eV  565.16 nm  f=0.1477  <S**2>=0.000
     309 -> 314        0.60931
     310 -> 313       -0.19699
     311 -> 315       -0.26547

 Excited State   5:      Singlet-A      2.7185 eV  456.08 nm  f=0.0000  <S**2>=0.000
     311 -> 313        0.70708

 The electronic state is 1-A.
 Alpha  occ. eigenvalues --  -46.87697 -46.87559 -19.26318 -19.26264 -19.19121
 Alpha  occ. eigenvalues --  -19.18992 -19.18691 -19.18582 -19.18104 -19.17978
 Alpha  occ. eigenvalues --  -14.42399 -14.42354 -14.41351 -14.41263 -14.39300
 Alpha  occ. eigenvalues --  -14.39246 -14.38503 -14.38493 -10.39048 -10.39047
 Alpha  occ. eigenvalues --  -10.35322 -10.35255 -10.34325 -10.34157 -10.31746
 Alpha  occ. eigenvalues --  -10.31682 -10.31318 -10.31220 -10.30921 -10.30813
 Alpha  occ. eigenvalues --  -10.30478 -10.30411 -10.30301 -10.30267 -10.30100
 Alpha  occ. eigenvalues --  -10.30036 -10.29829 -10.29807 -10.29532 -10.29328
 Alpha  occ. eigenvalues --  -10.29298 -10.29150 -10.28669 -10.28633 -10.28586
 Alpha  occ. eigenvalues --  -10.28476 -10.28305 -10.28270 -10.28053 -10.28033
 Alpha  occ. eigenvalues --  -10.27903 -10.27699 -10.27630 -10.27569 -10.27480
 Alpha  occ. eigenvalues --  -10.27430 -10.27399 -10.27389 -10.27356 -10.27352
 Alpha  occ. eigenvalues --  -10.27349 -10.27314 -10.27311 -10.27291 -10.27098
 Alpha  occ. eigenvalues --  -10.26983 -10.26626 -10.26605 -10.26254 -10.26233
 Alpha  occ. eigenvalues --  -10.26159 -10.26073 -10.26050 -10.25949 -10.25921
 Alpha  occ. eigenvalues --  -10.25838 -10.25782 -10.25772 -10.25346 -10.25323
 Alpha  occ. eigenvalues --  -10.24779 -10.24744 -10.24691 -10.24633 -10.24594
 Alpha  occ. eigenvalues --  -10.24561  -3.16440  -3.16309  -1.91321  -1.91191
 Alpha  occ. eigenvalues --   -1.90908  -1.90780  -1.90750  -1.90617  -1.16611
 Alpha  occ. eigenvalues --   -1.16610  -1.08591  -1.08567  -1.07091  -1.06905
 Alpha  occ. eigenvalues --   -1.06833  -1.06614  -1.04487  -1.04397  -1.03663
 Alpha  occ. eigenvalues --   -1.03564  -1.03136  -1.02941  -1.02315  -1.02014
 Alpha  occ. eigenvalues --   -0.91900  -0.91889  -0.89420  -0.89402  -0.89105
 Alpha  occ. eigenvalues --   -0.89064  -0.88188  -0.88130  -0.87784  -0.87707
 Alpha  occ. eigenvalues --   -0.87588  -0.87579  -0.87157  -0.86990  -0.84909
 Alpha  occ. eigenvalues --   -0.84896  -0.83840  -0.83790  -0.82845  -0.82803
 Alpha  occ. eigenvalues --   -0.82559  -0.82551  -0.81530  -0.81525  -0.80513
 Alpha  occ. eigenvalues --   -0.80357  -0.78691  -0.78523  -0.77125  -0.77050
 Alpha  occ. eigenvalues --   -0.76859  -0.76822  -0.75849  -0.75758  -0.74808
 Alpha  occ. eigenvalues --   -0.74719  -0.72681  -0.72605  -0.71585  -0.71494
 Alpha  occ. eigenvalues --   -0.69803  -0.69667  -0.68784  -0.68735  -0.67549
 Alpha  occ. eigenvalues --   -0.67507  -0.67126  -0.67097  -0.65204  -0.65186
 Alpha  occ. eigenvalues --   -0.64772  -0.64684  -0.64572  -0.64537  -0.64173
 Alpha  occ. eigenvalues --   -0.64115  -0.62243  -0.62216  -0.60332  -0.60224
 Alpha  occ. eigenvalues --   -0.59717  -0.59705  -0.58903  -0.58898  -0.58417
 Alpha  occ. eigenvalues --   -0.58338  -0.57523  -0.57488  -0.57217  -0.57141
 Alpha  occ. eigenvalues --   -0.56220  -0.56111  -0.55928  -0.55821  -0.55420
 Alpha  occ. eigenvalues --   -0.55352  -0.55260  -0.55170  -0.54453  -0.54417
 Alpha  occ. eigenvalues --   -0.53825  -0.53812  -0.53202  -0.53131  -0.53128
 Alpha  occ. eigenvalues --   -0.53047  -0.52839  -0.52820  -0.52644  -0.52536
 Alpha  occ. eigenvalues --   -0.52334  -0.52311  -0.51837  -0.51809  -0.51559
 Alpha  occ. eigenvalues --   -0.51527  -0.51120  -0.51115  -0.50440  -0.50332
 Alpha  occ. eigenvalues --   -0.49928  -0.49874  -0.49811  -0.49769  -0.49420
 Alpha  occ. eigenvalues --   -0.49379  -0.49128  -0.49108  -0.49023  -0.49018
 Alpha  occ. eigenvalues --   -0.48522  -0.48481  -0.48375  -0.48340  -0.48296
 Alpha  occ. eigenvalues --   -0.48219  -0.47601  -0.47498  -0.47201  -0.47016
 Alpha  occ. eigenvalues --   -0.46705  -0.46620  -0.46472  -0.46463  -0.46267
 Alpha  occ. eigenvalues --   -0.46176  -0.46081  -0.46006  -0.45758  -0.45754
 Alpha  occ. eigenvalues --   -0.45122  -0.45106  -0.44505  -0.44435  -0.44402
 Alpha  occ. eigenvalues --   -0.44383  -0.44049  -0.44041  -0.44003  -0.43984
 Alpha  occ. eigenvalues --   -0.43928  -0.43827  -0.43491  -0.43432  -0.43300
 Alpha  occ. eigenvalues --   -0.43295  -0.42941  -0.42872  -0.42821  -0.42654
 Alpha  occ. eigenvalues --   -0.42561  -0.42456  -0.41918  -0.41876  -0.41619
 Alpha  occ. eigenvalues --   -0.41585  -0.41448  -0.41370  -0.41053  -0.40902
 Alpha  occ. eigenvalues --   -0.40779  -0.40706  -0.40624  -0.40584  -0.40477
 Alpha  occ. eigenvalues --   -0.40407  -0.40148  -0.40128  -0.39333  -0.39333
 Alpha  occ. eigenvalues --   -0.38373  -0.38263  -0.37668  -0.37570  -0.37223
 Alpha  occ. eigenvalues --   -0.37177  -0.37175  -0.37107  -0.36722  -0.36665
 Alpha  occ. eigenvalues --   -0.36138  -0.36118  -0.34193  -0.34160  -0.33811
 Alpha  occ. eigenvalues --   -0.33730  -0.33095  -0.33080  -0.31223  -0.31144
 Alpha  occ. eigenvalues --   -0.30942  -0.30876  -0.29966  -0.29885  -0.29346
 Alpha  occ. eigenvalues --   -0.29230  -0.29218  -0.29115  -0.23986  -0.23940
 Alpha  occ. eigenvalues --   -0.21031  -0.21018
 Alpha virt. eigenvalues --   -0.08690  -0.08676  -0.01650  -0.01583   0.00048
 Alpha virt. eigenvalues --    0.00086   0.02283   0.02294   0.03245   0.03351
 Alpha virt. eigenvalues --    0.04805   0.04819   0.05136   0.05213   0.06246

 Mulliken charges:
               1
     1  Mg   0.839230
     2  C   -0.003047
     3  C   -0.093862
     4  C   -0.045781
     5  C   -0.063910
     6  N   -0.256795
     7  C   -0.052550
     8  C   -0.014062
     9  C   -0.087061
    10  C    0.046477
    11  C    0.104821
    12  C    0.053365
    13  C   -0.071605
    14  H    0.035421
    15  N   -0.433202
    16  C    0.168743
    17  C   -0.176774
    18  C   -0.003688
    19  C    0.148925
    20  C    0.110108
    21  C    0.012667
    22  O   -0.249666
    23  C    0.062215
    24  N   -0.341180
    25  C    0.041349
    26  C   -0.028186
    27  C   -0.023913
    28  C    0.074814
    29  C    0.076225
    30  C    0.035134
    31  C   -0.004568
    32  N   -0.310357
    33  C    0.080259
    34  C   -0.169941
    35  C    0.008040
    36  C    0.082895
    37  C    0.127399
    38  C    0.045768
    39  O   -0.189284
    40  C   -0.005266
    41  C    0.212745
    42  O   -0.257422
    43  O   -0.304671
    44  C    0.157997
    45  H   -0.017574
    46  H   -0.016782
    47  H   -0.041629
    48  H    0.000606
    49  H   -0.003867
    50  H    0.025300
    51  H    0.016482
    52  H    0.016580
    53  H    0.011912
    54  H    0.043883
    55  H    0.017635
    56  H    0.018300
    57  H    0.005846
    58  H    0.026737
    59  H    0.040672
    60  H    0.037137
    61  H    0.035835
    62  H    0.032612
    63  H    0.016693
    64  H    0.009236
    65  H    0.023165
    66  H    0.012467
    67  H    0.004610
    68  H    0.006214
    69  H    0.004633
    70  H    0.008793
    71  H    0.018617
    72  H    0.029076
    73  H    0.047041
    74  H    0.009165
    75  H    0.045766
    76  H    0.034976
    77  H    0.042552
    78  H    0.046529
    79  H    0.052973
    80  Mg   0.838225
    81  C   -0.016876
    82  C   -0.087387
    83  C   -0.045429
    84  C   -0.064915
    85  N   -0.254571
    86  C   -0.049961
    87  C   -0.015152
    88  C   -0.090603
    89  C    0.045943
    90  C    0.114399
    91  C    0.062377
    92  C   -0.077669
    93  H    0.034151
    94  N   -0.423571
    95  C    0.163365
    96  C   -0.174111
    97  C   -0.007368
    98  C    0.152293
    99  C    0.099249
   100  C    0.016006
   101  O   -0.253416
   102  C    0.060807
   103  N   -0.350043
   104  C    0.037591
   105  C   -0.019831
   106  C   -0.034714
   107  C    0.088808
   108  C    0.073741
   109  C    0.034784
   110  C   -0.007681
   111  N   -0.323928
   112  C    0.078194
   113  C   -0.163427
   114  C    0.001968
   115  C    0.096064
   116  C    0.131569
   117  C    0.042064
   118  O   -0.188657
   119  C    0.000989
   120  C    0.211163
   121  O   -0.251220
   122  O   -0.305569
   123  C    0.152287
   124  H   -0.019582
   125  H   -0.015592
   126  H   -0.040734
   127  H   -0.001006
   128  H   -0.004078
   129  H    0.022255
   130  H    0.014423
   131  H    0.016190
   132  H    0.014792
   133  H    0.037477
   134  H    0.020484
   135  H    0.019966
   136  H    0.008731
   137  H    0.025999
   138  H    0.041573
   139  H    0.038018
   140  H    0.036527
   141  H    0.035663
   142  H    0.014442
   143  H    0.012139
   144  H    0.025019
   145  H    0.011601
   146  H    0.005480
   147  H    0.006017
   148  H    0.003462
   149  H    0.010919
   150  H    0.018049
   151  H    0.030325
   152  H    0.045552
   153  H    0.008406
   154  H    0.046636
   155  H    0.034791
   156  H    0.043515
   157  H    0.049553
   158  H    0.053049
 Sum of Mulliken charges =  -0.00000

 Dipole moment (field-independent basis, Debye):
    X=              0.6985    Y=              3.0939    Z=              0.0413  Tot=              3.1720
 Quadrupole moment (field-independent basis, Debye-Ang):
   XX=           -483.2157   YY=           -460.6916   ZZ=           -536.1617
   XY=              2.4874   XZ=             56.7005   YZ=              3.0254

 Normal termination of Gaussian 16 at Sat Sep 11 06:22:20 2021.
