 Gaussian 16, Revision A.03,
 Gaussian 16:  ES64L-G16RevA.03 25-Dec-2016

 -----------------------------------
 #p cam-b3lyp/Def2SVP td=(nstates=5)
 -----------------------------------

 --------------------------------
 TDDFT excited states in gaussian
 --------------------------------
 Symbolic Z-matrix:
 Charge =  0 Multiplicity = 1

                         Standard orientation:
 ---------------------------------------------------------------------
 Center     Atomic      Atomic             Coordinates (Angstroms)
 Number     Number       Type             X           Y           Z
 ---------------------------------------------------------------------
      1         12           0        8.002206   -0.488216   -0.175358
      2          6           0        8.060051    3.011948   -0.922161
      3          6           0        8.929419    0.326826    3.005687
      4          6           0        8.399422   -3.583992    0.385902
      5          6           0        8.197871   -1.072932   -3.605443
      6          7           0        8.410409    1.457909    0.797582
      7          6           0        8.338677    2.729586    0.416975
      8          6           0        8.513046    3.737093    1.592517
      9          6           0        9.325638    2.808103    2.601808
     10          6           0        8.833606    1.450478    2.132040
     11          6           0       10.837265    2.876087    2.409805
     12          6           0        7.141316    4.182682    2.202058
     13          6           0        7.202502    5.401646    3.127118
     14          1           0        6.091827    6.341707    3.121186
     15          7           0        8.100914   -1.478557    1.531197
     16          6           0        8.483255   -0.984511    2.733288
     17          6           0        8.388152   -2.111430    3.686015
     18          6           0        8.102032   -3.345904    2.903517
     19          6           0        8.216794   -2.850300    1.555710
     20          6           0        8.514373   -1.947539    5.169578
     21          6           0        7.787121   -4.751819    3.306464
     22          8           0        7.801327   -5.718533    2.469902
     23          6           0        7.544993   -4.985272    4.741705
     24          7           0        8.482836   -2.104324   -1.406141
     25          6           0        8.534528   -3.349712   -0.921043
     26          6           0        8.614665   -4.362602   -2.024479
     27          6           0        8.361188   -3.559417   -3.381091
     28          6           0        8.254619   -2.130724   -2.793087
     29          6           0        9.936565   -5.135754   -2.128531
     30          6           0        7.218860   -4.067509   -4.296158
     31          6           0        5.884166   -3.852306   -3.618383
     32          7           0        7.933009    0.720335   -1.976930
     33          6           0        8.056491    0.270277   -3.299380
     34          6           0        8.055898    1.464638   -4.164000
     35          6           0        7.948086    2.534368   -3.277491
     36          6           0        7.911742    2.040948   -1.942011
     37          6           0        8.205420    1.469220   -5.578941
     38          6           0        7.879945    3.980750   -3.146369
     39          8           0        7.776732    4.919286   -3.937565
     40          6           0        8.072433    4.354242   -1.610374
     41          6           0        6.998104    5.341864   -1.244685
     42          8           0        5.797120    5.003226   -1.226552
     43          8           0        7.565130    6.451814   -0.747661
     44          6           0        6.552833    7.461353   -0.337491
     45          1           0        9.444634    0.443524    3.961132
     46          1           0        8.429857   -4.666393    0.527039
     47          1           0        8.170580   -1.181848   -4.691190
     48          1           0        9.099028    4.623350    1.348391
     49          1           0        9.033401    2.979439    3.637648
     50          1           0       11.100783    3.454295    1.524280
     51          1           0       11.163532    1.841681    2.300042
     52          1           0       11.325614    3.250399    3.309906
     53          1           0        6.801234    3.428285    2.911487
     54          1           0        6.409803    4.364550    1.413935
     55          1           0        8.150920    5.930328    3.027579
     56          1           0        7.196166    5.048473    4.158344
     57          1           0        8.886633   -0.958306    5.432991
     58          1           0        9.297832   -2.629377    5.499726
     59          1           0        7.583818   -2.177912    5.688547
     60          1           0        8.425756   -4.683613    5.308987
     61          1           0        7.247629   -6.029559    4.830526
     62          1           0        6.731317   -4.339015    5.072208
     63          1           0        7.845234   -5.125303   -1.911831
     64          1           0        9.239517   -3.560064   -4.027011
     65          1           0        9.816532   -6.217915   -2.071750
     66          1           0       10.601020   -4.774305   -1.344219
     67          1           0       10.521340   -4.922993   -3.023063
     68          1           0        7.320861   -5.137997   -4.471079
     69          1           0        7.193667   -3.573640   -5.267605
     70          1           0        5.794961   -4.725830   -2.973534
     71          1           0        5.082024   -3.828573   -4.356770
     72          1           0        5.901787   -2.972583   -2.974750
     73          1           0        7.471082    2.178282   -5.960972
     74          1           0        8.050429    0.474713   -5.996717
     75          1           0        9.238186    1.804829   -5.671771
     76          1           0        9.070452    4.780648   -1.514147
     77          1           0        6.786645    8.384329   -0.868229
     78          1           0        6.565020    7.487337    0.752271
     79          1           0        5.530888    7.283582   -0.674188
     80         12           0       -7.861701   -1.056978    0.235612
     81          6           0       -9.158970    2.255452   -0.237660
     82          6           0       -5.855980    0.237836    2.671824
     83          6           0       -6.381578   -3.860368    0.368473
     84          6           0       -9.093086   -1.841438   -2.928879
     85          7           0       -7.629261    0.996235    1.024643
     86          6           0       -8.219587    2.162398    0.810360
     87          6           0       -7.837438    3.272886    1.825417
     88          6           0       -6.413743    2.693734    2.290754
     89          6           0       -6.651227    1.210460    2.014780
     90          6           0       -5.259664    3.162697    1.420404
     91          6           0       -8.843708    3.356908    3.026404
     92          6           0       -8.710590    4.613007    3.890257
     93          1           0       -9.921495    5.197499    4.459952
     94          7           0       -6.710825   -1.835724    1.652505
     95          6           0       -5.985187   -1.164873    2.571561
     96          6           0       -5.298646   -2.192089    3.370089
     97          6           0       -5.548684   -3.518387    2.743085
     98          6           0       -6.220837   -3.111749    1.525322
     99          6           0       -4.566563   -1.878905    4.642639
    100          6           0       -5.223783   -4.919901    3.163094
    101          8           0       -5.323414   -5.906441    2.350909
    102          6           0       -4.696492   -5.090636    4.524820
    103          7           0       -7.564203   -2.562214   -1.167283
    104          6           0       -6.932238   -3.701632   -0.835232
    105          6           0       -7.078796   -4.742570   -1.919372
    106          6           0       -8.149003   -4.145174   -2.946692
    107          6           0       -8.379382   -2.763102   -2.296948
    108          6           0       -5.798384   -5.104312   -2.671744
    109          6           0       -9.386876   -5.027511   -3.265792
    110          6           0      -10.259504   -5.155845   -2.038019
    111          7           0       -9.089955   -0.071506   -1.243682
    112          6           0       -9.463156   -0.569408   -2.511317
    113          6           0      -10.203115    0.507084   -3.201286
    114          6           0      -10.189062    1.572942   -2.289013
    115          6           0       -9.472314    1.194739   -1.121644
    116          6           0      -10.736552    0.437369   -4.519123
    117          6           0      -10.608445    2.935604   -2.052445
    118          8           0      -11.320202    3.741658   -2.650280
    119          6           0       -9.851578    3.481101   -0.765589
    120          6           0      -10.865993    4.149429    0.121445
    121          8           0      -11.772281    3.486616    0.656170
    122          8           0      -10.473452    5.413047    0.365475
    123          6           0      -11.441986    6.113714    1.250257
    124          1           0       -5.026034    0.578700    3.291411
    125          1           0       -5.984034   -4.877244    0.405851
    126          1           0       -9.593699   -2.040603   -3.878826
    127          1           0       -7.714740    4.259382    1.394668
    128          1           0       -6.246343    2.862211    3.351399
    129          1           0       -5.603559    3.715217    0.558665
    130          1           0       -4.740350    2.264913    1.111637
    131          1           0       -4.544193    3.734023    2.018759
    132          1           0       -8.581704    2.590681    3.767340
    133          1           0       -9.855386    3.259856    2.683309
    134          1           0       -8.103258    5.385673    3.403338
    135          1           0       -8.146863    4.356841    4.790588
    136          1           0       -4.411827   -0.799502    4.762480
    137          1           0       -3.555852   -2.288341    4.539153
    138          1           0       -5.039611   -2.323165    5.521005
    139          1           0       -3.787193   -4.504746    4.636076
    140          1           0       -4.609285   -6.168965    4.671362
    141          1           0       -5.423405   -4.681491    5.235315
    142          1           0       -7.460986   -5.671565   -1.514399
    143          1           0       -7.704361   -3.957564   -3.935081
    144          1           0       -5.557930   -6.183454   -2.630399
    145          1           0       -4.985725   -4.517759   -2.264205
    146          1           0       -5.784209   -4.820000   -3.722529
    147          1           0       -9.072218   -6.040058   -3.530145
    148          1           0       -9.985077   -4.650980   -4.088816
    149          1           0       -9.780906   -5.965237   -1.478612
    150          1           0      -11.277984   -5.417747   -2.317584
    151          1           0      -10.205606   -4.251664   -1.420609
    152          1           0      -11.725054    0.875209   -4.478439
    153          1           0      -10.769738   -0.588217   -4.880871
    154          1           0      -10.001161    1.039577   -5.059314
    155          1           0       -9.084584    4.177243   -1.107160
    156          1           0      -11.751698    7.023908    0.727469
    157          1           0      -10.923539    6.240985    2.219150
    158          1           0      -12.398170    5.634657    1.425385
 ---------------------------------------------------------------------

 SCF Done:  E(RCAM-B3LYP) =  -4069.81173267     A.U. after   19 cycles

 Excitation energies and oscillator strengths:

 Excited State   1:      Singlet-A      1.6703 eV  742.29 nm  f=0.0806  <S**2>=0.000
     309 -> 315       -0.10215
     310 -> 316        0.13905
     311 -> 313       -0.40487
     312 -> 314        0.55421
 This state for optimization and/or second-order correction.
 Total Energy, E(TD-HF/TD-DFT) =  -4069.75035087
 Copying the excited state density for this state as the 1-particle RhoCI density.

 Excited State   2:      Singlet-A      1.6845 eV  736.03 nm  f=0.6829  <S**2>=0.000
     309 -> 315        0.14287
     310 -> 316        0.10368
     311 -> 313        0.55342
     312 -> 314        0.40436

 Excited State   3:      Singlet-A      2.1853 eV  567.35 nm  f=0.0578  <S**2>=0.000
     309 -> 313       -0.13878
     310 -> 314        0.62766
     312 -> 316       -0.26604

 Excited State   4:      Singlet-A      2.1930 eV  565.37 nm  f=0.1354  <S**2>=0.000
     309 -> 313        0.62560
     310 -> 314        0.13769
     311 -> 315       -0.27209

 Excited State   5:      Singlet-A      2.7501 eV  450.83 nm  f=0.0000  <S**2>=0.000
     312 -> 313        0.70707

 The electronic state is 1-A.
 Alpha  occ. eigenvalues --  -46.87881 -46.87592 -19.26387 -19.26292 -19.19124
 Alpha  occ. eigenvalues --  -19.19103 -19.18893 -19.18659 -19.18252 -19.17985
 Alpha  occ. eigenvalues --  -14.42537 -14.42427 -14.41530 -14.41291 -14.39487
 Alpha  occ. eigenvalues --  -14.39285 -14.38671 -14.38532 -10.39182 -10.39031
 Alpha  occ. eigenvalues --  -10.35527 -10.35338 -10.34473 -10.34162 -10.31787
 Alpha  occ. eigenvalues --  -10.31705 -10.31492 -10.31237 -10.31000 -10.30955
 Alpha  occ. eigenvalues --  -10.30655 -10.30588 -10.30331 -10.30293 -10.30284
 Alpha  occ. eigenvalues --  -10.30075 -10.29996 -10.29826 -10.29713 -10.29370
 Alpha  occ. eigenvalues --  -10.29338 -10.29337 -10.28852 -10.28671 -10.28647
 Alpha  occ. eigenvalues --  -10.28607 -10.28451 -10.28337 -10.28213 -10.28059
 Alpha  occ. eigenvalues --  -10.27935 -10.27875 -10.27813 -10.27668 -10.27599
 Alpha  occ. eigenvalues --  -10.27577 -10.27562 -10.27509 -10.27490 -10.27454
 Alpha  occ. eigenvalues --  -10.27423 -10.27415 -10.27404 -10.27310 -10.27247
 Alpha  occ. eigenvalues --  -10.26982 -10.26830 -10.26636 -10.26495 -10.26375
 Alpha  occ. eigenvalues --  -10.26321 -10.26235 -10.26098 -10.26083 -10.25912
 Alpha  occ. eigenvalues --  -10.25912 -10.25868 -10.25784 -10.25488 -10.25325
 Alpha  occ. eigenvalues --  -10.24915 -10.24866 -10.24806 -10.24736 -10.24681
 Alpha  occ. eigenvalues --  -10.24622  -3.16624  -3.16342  -1.91506  -1.91224
 Alpha  occ. eigenvalues --   -1.91092  -1.90935  -1.90812  -1.90649  -1.16736
 Alpha  occ. eigenvalues --   -1.16585  -1.08711  -1.08592  -1.07293  -1.06911
 Alpha  occ. eigenvalues --   -1.06887  -1.06745  -1.04668  -1.04425  -1.03842
 Alpha  occ. eigenvalues --   -1.03595  -1.03316  -1.02971  -1.02493  -1.02043
 Alpha  occ. eigenvalues --   -0.92058  -0.91919  -0.89591  -0.89430  -0.89286
 Alpha  occ. eigenvalues --   -0.89076  -0.88356  -0.88156  -0.87950  -0.87761
 Alpha  occ. eigenvalues --   -0.87727  -0.87616  -0.87360  -0.87065  -0.85078
 Alpha  occ. eigenvalues --   -0.84931  -0.84003  -0.83814  -0.83047  -0.82879
 Alpha  occ. eigenvalues --   -0.82740  -0.82588  -0.81677  -0.81534  -0.80684
 Alpha  occ. eigenvalues --   -0.80380  -0.78882  -0.78575  -0.77302  -0.77079
 Alpha  occ. eigenvalues --   -0.77025  -0.76833  -0.76014  -0.75768  -0.74969
 Alpha  occ. eigenvalues --   -0.74736  -0.72855  -0.72632  -0.71754  -0.71509
 Alpha  occ. eigenvalues --   -0.69970  -0.69697  -0.68966  -0.68761  -0.67725
 Alpha  occ. eigenvalues --   -0.67538  -0.67322  -0.67142  -0.65382  -0.65204
 Alpha  occ. eigenvalues --   -0.64939  -0.64707  -0.64704  -0.64589  -0.64342
 Alpha  occ. eigenvalues --   -0.64140  -0.62389  -0.62217  -0.60523  -0.60280
 Alpha  occ. eigenvalues --   -0.59897  -0.59725  -0.59069  -0.58926  -0.58587
 Alpha  occ. eigenvalues --   -0.58360  -0.57674  -0.57489  -0.57387  -0.57174
 Alpha  occ. eigenvalues --   -0.56394  -0.56141  -0.56076  -0.55826  -0.55605
 Alpha  occ. eigenvalues --   -0.55415  -0.55393  -0.55184  -0.54604  -0.54426
 Alpha  occ. eigenvalues --   -0.53994  -0.53841  -0.53381  -0.53314  -0.53166
 Alpha  occ. eigenvalues --   -0.53079  -0.53004  -0.52847  -0.52839  -0.52611
 Alpha  occ. eigenvalues --   -0.52500  -0.52344  -0.51991  -0.51819  -0.51714
 Alpha  occ. eigenvalues --   -0.51596  -0.51279  -0.51137  -0.50660  -0.50425
 Alpha  occ. eigenvalues --   -0.50102  -0.50003  -0.49913  -0.49804  -0.49605
 Alpha  occ. eigenvalues --   -0.49425  -0.49301  -0.49187  -0.49136  -0.49032
 Alpha  occ. eigenvalues --   -0.48680  -0.48535  -0.48528  -0.48491  -0.48311
 Alpha  occ. eigenvalues --   -0.48281  -0.47781  -0.47532  -0.47379  -0.47057
 Alpha  occ. eigenvalues --   -0.46878  -0.46653  -0.46644  -0.46486  -0.46440
 Alpha  occ. eigenvalues --   -0.46241  -0.46207  -0.46020  -0.45907  -0.45757
 Alpha  occ. eigenvalues --   -0.45271  -0.45142  -0.44663  -0.44593  -0.44449
 Alpha  occ. eigenvalues --   -0.44410  -0.44223  -0.44179  -0.44106  -0.44057
 Alpha  occ. eigenvalues --   -0.44019  -0.43880  -0.43583  -0.43492  -0.43472
 Alpha  occ. eigenvalues --   -0.43318  -0.43109  -0.42870  -0.42836  -0.42790
 Alpha  occ. eigenvalues --   -0.42728  -0.42492  -0.42087  -0.41903  -0.41787
 Alpha  occ. eigenvalues --   -0.41629  -0.41602  -0.41394  -0.41225  -0.40959
 Alpha  occ. eigenvalues --   -0.40916  -0.40909  -0.40664  -0.40643  -0.40635
 Alpha  occ. eigenvalues --   -0.40428  -0.40345  -0.40168  -0.39502  -0.39366
 Alpha  occ. eigenvalues --   -0.38543  -0.38285  -0.37855  -0.37593  -0.37395
 Alpha  occ. eigenvalues --   -0.37360  -0.37201  -0.37133  -0.36805  -0.36712
 Alpha  occ. eigenvalues --   -0.36278  -0.36152  -0.34369  -0.34186  -0.33871
 Alpha  occ. eigenvalues --   -0.33802  -0.33270  -0.33108  -0.31422  -0.31217
 Alpha  occ. eigenvalues --   -0.31119  -0.30905  -0.30112  -0.29889  -0.29533
 Alpha  occ. eigenvalues --   -0.29404  -0.29264  -0.29145  -0.24164  -0.23967
 Alpha  occ. eigenvalues --   -0.21210  -0.21049
 Alpha virt. eigenvalues --   -0.08857  -0.08725  -0.01831  -0.01616  -0.00143
 Alpha virt. eigenvalues --    0.00034   0.02120   0.02273   0.03023   0.03286
 Alpha virt. eigenvalues --    0.04625   0.04800   0.04998   0.05226   0.06065

 Mulliken charges:
               1
     1  Mg   0.838453
     2  C   -0.003158
     3  C   -0.094419
     4  C   -0.045751
     5  C   -0.063783
     6  N   -0.256777
     7  C   -0.052554
     8  C   -0.013966
     9  C   -0.086954
    10  C    0.046201
    11  C    0.104789
    12  C    0.053582
    13  C   -0.071616
    14  H    0.035512
    15  N   -0.433144
    16  C    0.168303
    17  C   -0.177346
    18  C   -0.003993
    19  C    0.148664
    20  C    0.110216
    21  C    0.012269
    22  O   -0.249270
    23  C    0.062544
    24  N   -0.341133
    25  C    0.041285
    26  C   -0.028265
    27  C   -0.024010
    28  C    0.074837
    29  C    0.076104
    30  C    0.035069
    31  C   -0.004535
    32  N   -0.310478
    33  C    0.080397
    34  C   -0.169599
    35  C    0.008402
    36  C    0.082948
    37  C    0.127299
    38  C    0.046134
    39  O   -0.188286
    40  C   -0.005336
    41  C    0.212950
    42  O   -0.257436
    43  O   -0.304680
    44  C    0.157715
    45  H   -0.017623
    46  H   -0.016598
    47  H   -0.041274
    48  H    0.001053
    49  H   -0.004266
    50  H    0.025581
    51  H    0.016596
    52  H    0.016696
    53  H    0.010773
    54  H    0.043873
    55  H    0.018210
    56  H    0.017768
    57  H    0.005762
    58  H    0.027012
    59  H    0.039054
    60  H    0.037402
    61  H    0.035911
    62  H    0.030975
    63  H    0.016780
    64  H    0.009596
    65  H    0.023438
    66  H    0.012529
    67  H    0.004874
    68  H    0.006620
    69  H    0.004793
    70  H    0.009035
    71  H    0.018309
    72  H    0.028701
    73  H    0.047656
    74  H    0.009266
    75  H    0.046157
    76  H    0.035282
    77  H    0.043193
    78  H    0.046232
    79  H    0.053449
    80  Mg   0.838045
    81  C   -0.016871
    82  C   -0.087694
    83  C   -0.045446
    84  C   -0.064785
    85  N   -0.254577
    86  C   -0.049645
    87  C   -0.015106
    88  C   -0.090550
    89  C    0.045813
    90  C    0.114315
    91  C    0.062554
    92  C   -0.077744
    93  H    0.034577
    94  N   -0.423521
    95  C    0.162927
    96  C   -0.174522
    97  C   -0.007848
    98  C    0.152187
    99  C    0.099385
   100  C    0.015601
   101  O   -0.253141
   102  C    0.061229
   103  N   -0.350003
   104  C    0.037608
   105  C   -0.019886
   106  C   -0.034785
   107  C    0.088923
   108  C    0.073588
   109  C    0.034743
   110  C   -0.007643
   111  N   -0.324137
   112  C    0.078518
   113  C   -0.163097
   114  C    0.002314
   115  C    0.096225
   116  C    0.131470
   117  C    0.042420
   118  O   -0.187902
   119  C    0.000896
   120  C    0.211228
   121  O   -0.251170
   122  O   -0.305522
   123  C    0.152100
   124  H   -0.019594
   125  H   -0.015580
   126  H   -0.040501
   127  H   -0.000488
   128  H   -0.004674
   129  H    0.022831
   130  H    0.015016
   131  H    0.016465
   132  H    0.013743
   133  H    0.037580
   134  H    0.020922
   135  H    0.019370
   136  H    0.008619
   137  H    0.026036
   138  H    0.039404
   139  H    0.038130
   140  H    0.036281
   141  H    0.033669
   142  H    0.014257
   143  H    0.012524
   144  H    0.025004
   145  H    0.012012
   146  H    0.005732
   147  H    0.006174
   148  H    0.003603
   149  H    0.010867
   150  H    0.017788
   151  H    0.030118
   152  H    0.045877
   153  H    0.008421
   154  H    0.047208
   155  H    0.035361
   156  H    0.043889
   157  H    0.049415
   158  H    0.053445
 Sum of Mulliken charges =  -0.00000

 Dipole moment (field-independent basis, Debye):
    X=              5.8997    Y=             -0.2172    Z=              6.4008  Tot=              8.7077
 Quadrupole moment (field-independent basis, Debye-Ang):
   XX=           -549.0964   YY=           -527.5529   ZZ=           -466.4868
   XY=             13.4109   XZ=             16.2038   YZ=             57.3316

 Normal termination of Gaussian 16 at Sun Sep 12 04:49:17 2021.
