 Gaussian 16, Revision A.03,
 Gaussian 16:  ES64L-G16RevA.03 25-Dec-2016

 -----------------------------------
 #p cam-b3lyp/Def2SVP td=(nstates=5)
 -----------------------------------

 --------------------------------
 TDDFT excited states in gaussian
 --------------------------------
 Symbolic Z-matrix:
 Charge =  0 Multiplicity = 1

                         Standard orientation:
 ---------------------------------------------------------------------
 Center     Atomic      Atomic             Coordinates (Angstroms)
 Number     Number       Type             X           Y           Z
 ---------------------------------------------------------------------
      1         12           0        8.116920   -0.523492    0.208270
      2          6           0        8.268943    2.630549   -1.477294
      3          6           0        8.923133    1.138996    3.076932
      4          6           0        8.434566   -3.343171    1.624298
      5          6           0        8.447059   -2.040095   -2.912080
      6          7           0        8.518349    1.614191    0.620352
      7          6           0        8.485556    2.730228   -0.101145
      8          6           0        8.628027    4.023946    0.755226
      9          6           0        9.380428    3.407888    2.018699
     10          6           0        8.884498    1.975867    1.922294
     11          6           0       10.899800    3.411588    1.884541
     12          6           0        7.239927    4.628907    1.153889
     13          6           0        7.283718    6.056693    1.706033
     14          1           0        6.191290    6.964035    1.388732
     15          7           0        8.125588   -1.000697    2.125312
     16          6           0        8.465500   -0.193924    3.159171
     17          6           0        8.310016   -1.010904    4.381893
     18          6           0        8.035218   -2.412721    3.960597
     19          6           0        8.215760   -2.312120    2.534883
     20          6           0        8.376259   -0.441590    5.765816
     21          6           0        7.678429   -3.649387    4.723153
     22          8           0        7.710719   -4.810675    4.189355
     23          6           0        7.371646   -3.473176    6.154193
     24          7           0        8.620202   -2.420711   -0.502296
     25          6           0        8.629026   -3.482328    0.311261
     26          6           0        8.737644   -4.762545   -0.462811
     27          6           0        8.556213   -4.366951   -1.999151
     28          6           0        8.450442   -2.830537   -1.836321
     29          6           0       10.048715   -5.541297   -0.287746
     30          6           0        7.444720   -5.103271   -2.788350
     31          6           0        6.086607   -4.700829   -2.258569
     32          7           0        8.145658    0.136729   -1.859174
     33          6           0        8.316915   -0.664009   -2.997666
     34          6           0        8.374283    0.242773   -4.158925
     35          6           0        8.248216    1.517411   -3.610061
     36          6           0        8.146569    1.415054   -2.193204
     37          6           0        8.583602   -0.147129   -5.511180
     38          6           0        8.200482    2.943550   -3.888821
     39          8           0        8.147653    3.625578   -4.913291
     40          6           0        8.334455    3.728415   -2.509740
     41          6           0        7.263460    4.784590   -2.481969
     42          8           0        6.056917    4.470876   -2.425362
     43          8           0        7.828719    5.985883   -2.287239
     44          6           0        6.818201    7.075144   -2.220038
     45          1           0        9.399463    1.514000    3.984909
     46          1           0        8.439627   -4.343773    2.061571
     47          1           0        8.463792   -2.446508   -3.924997
     48          1           0        9.239581    4.804157    0.301689
     49          1           0        9.047734    3.862113    2.951820
     50          1           0       11.210859    3.719286    0.886300
     51          1           0       11.211856    2.385708    2.081220
     52          1           0       11.356244    4.018795    2.666677
     53          1           0        6.856684    4.103417    2.028558
     54          1           0        6.545790    4.588393    0.313735
     55          1           0        8.244808    6.531683    1.507033
     56          1           0        7.227433    6.004274    2.793361
     57          1           0        8.754682    0.579839    5.760990
     58          1           0        9.132719   -1.008959    6.307636
     59          1           0        7.420604   -0.513497    6.285321
     60          1           0        8.232872   -3.030441    6.655017
     61          1           0        7.052150   -4.449938    6.515729
     62          1           0        6.556409   -2.756093    6.254844
     63          1           0        7.950610   -5.459644   -0.178108
     64          1           0        9.460935   -4.551968   -2.578738
     65          1           0        9.907040   -6.564312    0.061646
     66          1           0       10.685748   -4.979603    0.394881
     67          1           0       10.674532   -5.588873   -1.178535
     68          1           0        7.534858   -6.180713   -2.654413
     69          1           0        7.469499   -4.898912   -3.858805
     70          1           0        5.954576   -5.360065   -1.401361
     71          1           0        5.316981   -4.879023   -3.010323
     72          1           0        6.092717   -3.676925   -1.884311
     73          1           0        7.878894    0.431695   -6.108105
     74          1           0        8.428656   -1.217732   -5.643108
     75          1           0        9.625212    0.143814   -5.646301
     76          1           0        9.334979    4.159337   -2.490226
     77          1           0        7.090742    7.812831   -2.974872
     78          1           0        6.784727    7.403097   -1.180936
     79          1           0        5.808401    6.816300   -2.540417
     80         12           0       -7.751359   -0.869489    0.037604
     81          6           0      -10.212565    1.741691    0.094726
     82          6           0       -5.376032    1.569297    0.249223
     83          6           0       -5.554804   -3.103831   -0.462656
     84          6           0      -10.200498   -2.958586   -1.297703
     85          7           0       -7.899575    1.334423    0.151899
     86          6           0       -8.889290    2.211363    0.228102
     87          6           0       -8.439158    3.663682    0.540671
     88          6           0       -6.931272    3.570537   -0.003829
     89          6           0       -6.699787    2.071239    0.172829
     90          6           0       -6.803299    3.902771   -1.481188
     91          6           0       -8.476602    3.983645    2.076320
     92          6           0       -8.348344    5.467586    2.427346
     93          1           0       -9.094818    5.978715    3.573647
     94          7           0       -5.798960   -0.853472    0.393243
     95          6           0       -4.994234    0.227336    0.467640
     96          6           0       -3.643385   -0.293986    0.727628
     97          6           0       -3.688068   -1.778731    0.636813
     98          6           0       -5.040810   -1.972739    0.154561
     99          6           0       -2.489137    0.588678    1.104501
    100          6           0       -2.676066   -2.846536    0.922856
    101          8           0       -2.852365   -4.059291    0.547371
    102          6           0       -1.430864   -2.412432    1.572866
    103          7           0       -7.797426   -2.694144   -0.957790
    104          6           0       -6.718611   -3.496368   -0.981110
    105          6           0       -7.068465   -4.865651   -1.513126
    106          6           0       -8.664175   -4.891761   -1.616064
    107          6           0       -8.968958   -3.438379   -1.191591
    108          6           0       -6.465208   -5.226018   -2.870551
    109          6           0       -9.398097   -6.046077   -0.880144
    110          6           0       -9.243949   -5.885289    0.615110
    111          7           0       -9.874227   -0.733709   -0.340577
    112          6           0      -10.700129   -1.715727   -0.930176
    113          6           0      -12.043491   -1.120342   -1.082808
    114          6           0      -11.899009    0.184817   -0.588660
    115          6           0      -10.555164    0.395031   -0.177100
    116          6           0      -13.175753   -1.759456   -1.662166
    117          6           0      -12.575173    1.435951   -0.331450
    118          8           0      -13.741243    1.822790   -0.397525
    119          6           0      -11.483103    2.540660    0.005305
    120          6           0      -11.934015    3.279752    1.235320
    121          8           0      -12.010578    2.696165    2.330845
    122          8           0      -11.990647    4.596076    0.962448
    123          6           0      -12.422541    5.372557    2.155079
    124          1           0       -4.548835    2.260368    0.084775
    125          1           0       -4.863555   -3.944459   -0.557561
    126          1           0      -11.042668   -3.577192   -1.615120
    127          1           0       -8.981460    4.432807    0.003892
    128          1           0       -6.249000    4.138223    0.623545
    129          1           0       -7.767443    4.032197   -1.950017
    130          1           0       -6.275386    3.069142   -1.925512
    131          1           0       -6.157643    4.775161   -1.616818
    132          1           0       -7.560929    3.600018    2.544440
    133          1           0       -9.362191    3.580717    2.527984
    134          1           0       -8.497898    6.112442    1.552847
    135          1           0       -7.317614    5.664230    2.732225
    136          1           0       -2.718348    1.647133    0.929763
    137          1           0       -1.675874    0.367773    0.404728
    138          1           0       -2.137368    0.410214    2.122872
    139          1           0       -0.940932   -1.665760    0.952465
    140          1           0       -0.872447   -3.328338    1.775778
    141          1           0       -1.683197   -1.919568    2.518397
    142          1           0       -6.747822   -5.640432   -0.827556
    143          1           0       -9.003708   -4.992770   -2.657395
    144          1           0       -5.859683   -6.151681   -2.847194
    145          1           0       -5.869062   -4.390162   -3.211869
    146          1           0       -7.184554   -5.342279   -3.679391
    147          1           0       -8.945880   -7.007096   -1.137213
    148          1           0      -10.453364   -6.111401   -1.123338
    149          1           0       -8.265182   -6.332957    0.811841
    150          1           0      -10.034165   -6.417214    1.141078
    151          1           0       -9.184059   -4.826584    0.892991
    152          1           0      -14.021152   -1.531049   -1.026858
    153          1           0      -13.023581   -2.833020   -1.752049
    154          1           0      -13.200962   -1.265400   -2.637119
    155          1           0      -11.404070    3.198062   -0.861380
    156          1           0      -13.297835    5.957328    1.855787
    157          1           0      -11.529171    5.935673    2.484511
    158          1           0      -12.817053    4.817847    2.998353
 ---------------------------------------------------------------------

 SCF Done:  E(RCAM-B3LYP) =  -4069.81189431     A.U. after   19 cycles

 Excitation energies and oscillator strengths:

 Excited State   1:      Singlet-A      1.6749 eV  740.26 nm  f=0.3608  <S**2>=0.000
     310 -> 316       -0.16393
     311 -> 313        0.22450
     312 -> 314        0.64834
 This state for optimization and/or second-order correction.
 Total Energy, E(TD-HF/TD-DFT) =  -4069.75034349
 Copying the excited state density for this state as the 1-particle RhoCI density.

 Excited State   2:      Singlet-A      1.6800 eV  737.99 nm  f=0.4237  <S**2>=0.000
     309 -> 315        0.16625
     311 -> 313        0.64792
     312 -> 314       -0.22436

 Excited State   3:      Singlet-A      2.1862 eV  567.13 nm  f=0.0540  <S**2>=0.000
     309 -> 313       -0.15253
     310 -> 314        0.62431
     312 -> 316        0.26527

 Excited State   4:      Singlet-A      2.1935 eV  565.23 nm  f=0.1384  <S**2>=0.000
     309 -> 313        0.62235
     310 -> 314        0.15146
     311 -> 315       -0.27099

 Excited State   5:      Singlet-A      2.7305 eV  454.07 nm  f=0.0000  <S**2>=0.000
     312 -> 313        0.70699

 The electronic state is 1-A.
 Alpha  occ. eigenvalues --  -46.87919 -46.87579 -19.26454 -19.26297 -19.19195
 Alpha  occ. eigenvalues --  -19.19105 -19.18911 -19.18617 -19.18296 -19.17977
 Alpha  occ. eigenvalues --  -14.42573 -14.42414 -14.41560 -14.41278 -14.39522
 Alpha  occ. eigenvalues --  -14.39267 -14.38708 -14.38519 -10.39249 -10.39033
 Alpha  occ. eigenvalues --  -10.35544 -10.35293 -10.34518 -10.34156 -10.31859
 Alpha  occ. eigenvalues --  -10.31713 -10.31531 -10.31227 -10.31037 -10.30937
 Alpha  occ. eigenvalues --  -10.30691 -10.30621 -10.30318 -10.30308 -10.30279
 Alpha  occ. eigenvalues --  -10.30055 -10.30025 -10.29819 -10.29745 -10.29368
 Alpha  occ. eigenvalues --  -10.29347 -10.29316 -10.28896 -10.28724 -10.28642
 Alpha  occ. eigenvalues --  -10.28604 -10.28488 -10.28320 -10.28251 -10.28053
 Alpha  occ. eigenvalues --  -10.27916 -10.27910 -10.27847 -10.27699 -10.27597
 Alpha  occ. eigenvalues --  -10.27579 -10.27572 -10.27527 -10.27520 -10.27446
 Alpha  occ. eigenvalues --  -10.27403 -10.27378 -10.27337 -10.27303 -10.27296
 Alpha  occ. eigenvalues --  -10.26980 -10.26886 -10.26631 -10.26502 -10.26353
 Alpha  occ. eigenvalues --  -10.26301 -10.26230 -10.26126 -10.26076 -10.25945
 Alpha  occ. eigenvalues --  -10.25920 -10.25854 -10.25783 -10.25497 -10.25322
 Alpha  occ. eigenvalues --  -10.24952 -10.24896 -10.24790 -10.24722 -10.24674
 Alpha  occ. eigenvalues --  -10.24608  -3.16662  -3.16329  -1.91544  -1.91211
 Alpha  occ. eigenvalues --   -1.91130  -1.90972  -1.90799  -1.90636  -1.16803
 Alpha  occ. eigenvalues --   -1.16590  -1.08757  -1.08587  -1.07311  -1.06890
 Alpha  occ. eigenvalues --   -1.06869  -1.06815  -1.04705  -1.04412  -1.03874
 Alpha  occ. eigenvalues --   -1.03581  -1.03350  -1.02957  -1.02527  -1.02029
 Alpha  occ. eigenvalues --   -0.92097  -0.91908  -0.89612  -0.89419  -0.89327
 Alpha  occ. eigenvalues --   -0.89070  -0.88374  -0.88146  -0.87984  -0.87795
 Alpha  occ. eigenvalues --   -0.87716  -0.87602  -0.87385  -0.87020  -0.85117
 Alpha  occ. eigenvalues --   -0.84921  -0.84019  -0.83805  -0.83063  -0.82836
 Alpha  occ. eigenvalues --   -0.82775  -0.82569  -0.81724  -0.81529  -0.80722
 Alpha  occ. eigenvalues --   -0.80366  -0.78910  -0.78543  -0.77332  -0.77063
 Alpha  occ. eigenvalues --   -0.77062  -0.76827  -0.76053  -0.75758  -0.74991
 Alpha  occ. eigenvalues --   -0.74727  -0.72886  -0.72617  -0.71786  -0.71500
 Alpha  occ. eigenvalues --   -0.69978  -0.69688  -0.69001  -0.68747  -0.67759
 Alpha  occ. eigenvalues --   -0.67522  -0.67360  -0.67122  -0.65422  -0.65195
 Alpha  occ. eigenvalues --   -0.64976  -0.64742  -0.64693  -0.64579  -0.64364
 Alpha  occ. eigenvalues --   -0.64130  -0.62437  -0.62212  -0.60548  -0.60248
 Alpha  occ. eigenvalues --   -0.59936  -0.59715  -0.59102  -0.58914  -0.58621
 Alpha  occ. eigenvalues --   -0.58347  -0.57722  -0.57485  -0.57416  -0.57157
 Alpha  occ. eigenvalues --   -0.56428  -0.56129  -0.56121  -0.55819  -0.55634
 Alpha  occ. eigenvalues --   -0.55443  -0.55368  -0.55178  -0.54639  -0.54421
 Alpha  occ. eigenvalues --   -0.54035  -0.53833  -0.53409  -0.53349  -0.53146
 Alpha  occ. eigenvalues --   -0.53060  -0.53045  -0.52873  -0.52828  -0.52567
 Alpha  occ. eigenvalues --   -0.52507  -0.52335  -0.52026  -0.51813  -0.51753
 Alpha  occ. eigenvalues --   -0.51577  -0.51313  -0.51127  -0.50676  -0.50371
 Alpha  occ. eigenvalues --   -0.50119  -0.50027  -0.49891  -0.49786  -0.49638
 Alpha  occ. eigenvalues --   -0.49400  -0.49337  -0.49224  -0.49117  -0.49026
 Alpha  occ. eigenvalues --   -0.48722  -0.48560  -0.48554  -0.48481  -0.48303
 Alpha  occ. eigenvalues --   -0.48246  -0.47811  -0.47510  -0.47408  -0.47027
 Alpha  occ. eigenvalues --   -0.46907  -0.46693  -0.46631  -0.46474  -0.46472
 Alpha  occ. eigenvalues --   -0.46274  -0.46187  -0.46011  -0.45950  -0.45753
 Alpha  occ. eigenvalues --   -0.45290  -0.45132  -0.44702  -0.44618  -0.44439
 Alpha  occ. eigenvalues --   -0.44395  -0.44250  -0.44210  -0.44140  -0.44046
 Alpha  occ. eigenvalues --   -0.44000  -0.43850  -0.43627  -0.43503  -0.43488
 Alpha  occ. eigenvalues --   -0.43308  -0.43142  -0.42864  -0.42846  -0.42827
 Alpha  occ. eigenvalues --   -0.42743  -0.42476  -0.42112  -0.41894  -0.41822
 Alpha  occ. eigenvalues --   -0.41665  -0.41592  -0.41384  -0.41257  -0.40991
 Alpha  occ. eigenvalues --   -0.40933  -0.40907  -0.40662  -0.40641  -0.40615
 Alpha  occ. eigenvalues --   -0.40420  -0.40390  -0.40154  -0.39507  -0.39358
 Alpha  occ. eigenvalues --   -0.38564  -0.38277  -0.37899  -0.37585  -0.37419
 Alpha  occ. eigenvalues --   -0.37401  -0.37190  -0.37120  -0.36858  -0.36712
 Alpha  occ. eigenvalues --   -0.36315  -0.36145  -0.34405  -0.34173  -0.33936
 Alpha  occ. eigenvalues --   -0.33801  -0.33306  -0.33094  -0.31441  -0.31177
 Alpha  occ. eigenvalues --   -0.31152  -0.30891  -0.30157  -0.29884  -0.29565
 Alpha  occ. eigenvalues --   -0.29441  -0.29238  -0.29130  -0.24200  -0.23954
 Alpha  occ. eigenvalues --   -0.21243  -0.21033
 Alpha virt. eigenvalues --   -0.08890  -0.08707  -0.01863  -0.01601  -0.00172
 Alpha virt. eigenvalues --    0.00062   0.02083   0.02284   0.02960   0.03296
 Alpha virt. eigenvalues --    0.04587   0.04808   0.04935   0.05225   0.06018

 Mulliken charges:
               1
     1  Mg   0.837916
     2  C   -0.003410
     3  C   -0.094471
     4  C   -0.045666
     5  C   -0.063671
     6  N   -0.256806
     7  C   -0.052720
     8  C   -0.013905
     9  C   -0.086947
    10  C    0.046112
    11  C    0.104757
    12  C    0.053576
    13  C   -0.071599
    14  H    0.035230
    15  N   -0.433231
    16  C    0.168225
    17  C   -0.177322
    18  C   -0.003960
    19  C    0.148562
    20  C    0.110169
    21  C    0.012257
    22  O   -0.249029
    23  C    0.062540
    24  N   -0.341157
    25  C    0.041291
    26  C   -0.028286
    27  C   -0.024059
    28  C    0.074836
    29  C    0.076060
    30  C    0.035012
    31  C   -0.004567
    32  N   -0.310449
    33  C    0.080264
    34  C   -0.169657
    35  C    0.008335
    36  C    0.082729
    37  C    0.127324
    38  C    0.045944
    39  O   -0.188474
    40  C   -0.005268
    41  C    0.213029
    42  O   -0.257999
    43  O   -0.304521
    44  C    0.157807
    45  H   -0.017481
    46  H   -0.016362
    47  H   -0.041133
    48  H    0.001075
    49  H   -0.004195
    50  H    0.025589
    51  H    0.016690
    52  H    0.016815
    53  H    0.010676
    54  H    0.043414
    55  H    0.018367
    56  H    0.017982
    57  H    0.005816
    58  H    0.027189
    59  H    0.039233
    60  H    0.037477
    61  H    0.036175
    62  H    0.030994
    63  H    0.017053
    64  H    0.009627
    65  H    0.023628
    66  H    0.012481
    67  H    0.004928
    68  H    0.006892
    69  H    0.004794
    70  H    0.009401
    71  H    0.018924
    72  H    0.028081
    73  H    0.047483
    74  H    0.009415
    75  H    0.046198
    76  H    0.035368
    77  H    0.043240
    78  H    0.046331
    79  H    0.053030
    80  Mg   0.837728
    81  C   -0.016874
    82  C   -0.087791
    83  C   -0.045433
    84  C   -0.064885
    85  N   -0.254559
    86  C   -0.049948
    87  C   -0.015078
    88  C   -0.090445
    89  C    0.045624
    90  C    0.114261
    91  C    0.062556
    92  C   -0.077725
    93  H    0.034418
    94  N   -0.423582
    95  C    0.162790
    96  C   -0.174084
    97  C   -0.007709
    98  C    0.152198
    99  C    0.098979
   100  C    0.015700
   101  O   -0.253199
   102  C    0.061056
   103  N   -0.350027
   104  C    0.037616
   105  C   -0.019883
   106  C   -0.034716
   107  C    0.088784
   108  C    0.073628
   109  C    0.034776
   110  C   -0.007642
   111  N   -0.324049
   112  C    0.078281
   113  C   -0.163315
   114  C    0.002171
   115  C    0.096061
   116  C    0.131532
   117  C    0.042227
   118  O   -0.188211
   119  C    0.000977
   120  C    0.211199
   121  O   -0.251162
   122  O   -0.305582
   123  C    0.152119
   124  H   -0.018829
   125  H   -0.015527
   126  H   -0.040665
   127  H   -0.000712
   128  H   -0.004367
   129  H    0.022331
   130  H    0.014922
   131  H    0.016678
   132  H    0.013783
   133  H    0.037521
   134  H    0.020875
   135  H    0.019498
   136  H    0.009207
   137  H    0.027923
   138  H    0.039179
   139  H    0.039190
   140  H    0.036660
   141  H    0.033239
   142  H    0.014300
   143  H    0.012347
   144  H    0.025019
   145  H    0.011973
   146  H    0.005609
   147  H    0.006130
   148  H    0.003522
   149  H    0.010896
   150  H    0.017722
   151  H    0.030144
   152  H    0.045773
   153  H    0.008358
   154  H    0.046853
   155  H    0.035019
   156  H    0.043786
   157  H    0.049437
   158  H    0.053423
 Sum of Mulliken charges =  -0.00000

 Dipole moment (field-independent basis, Debye):
    X=              6.0854    Y=              2.3647    Z=              3.3333  Tot=              7.3304
 Quadrupole moment (field-independent basis, Debye-Ang):
   XX=           -563.5334   YY=           -481.1032   ZZ=           -506.4524
   XY=             16.4267   XZ=             45.8838   YZ=             47.1952

 Normal termination of Gaussian 16 at Sun Sep 12 08:23:45 2021.
