 Gaussian 16, Revision A.03,
 Gaussian 16:  ES64L-G16RevA.03 25-Dec-2016

 -----------------------------------
 #p cam-b3lyp/Def2SVP td=(nstates=5)
 -----------------------------------

 --------------------------------
 TDDFT excited states in gaussian
 --------------------------------
 Symbolic Z-matrix:
 Charge =  0 Multiplicity = 1

                         Standard orientation:
 ---------------------------------------------------------------------
 Center     Atomic      Atomic             Coordinates (Angstroms)
 Number     Number       Type             X           Y           Z
 ---------------------------------------------------------------------
      1         12           0       -6.577813   -0.607445    0.173174
      2          6           0       -6.680591    2.960583    0.439301
      3          6           0       -7.497381   -0.241603   -3.092346
      4          6           0       -6.935783   -3.755339    0.034462
      5          6           0       -6.785061   -0.725237    3.650074
      6          7           0       -7.003507    1.184035   -1.055659
      7          6           0       -6.948695    2.496290   -0.850349
      8          6           0       -7.128511    3.333325   -2.152045
      9          6           0       -7.924749    2.266432   -3.029394
     10          6           0       -7.419410    0.990978   -2.378415
     11          6           0       -9.438078    2.341143   -2.854015
     12          6           0       -5.758828    3.709234   -2.811131
     13          6           0       -5.829289    4.791038   -3.892838
     14          1           0       -4.729729    5.736866   -4.009996
     15          7           0       -6.655762   -1.820635   -1.384049
     16          6           0       -7.037386   -1.498456   -2.643354
     17          6           0       -6.923995   -2.742619   -3.434481
     18          6           0       -6.627670   -3.856301   -2.491084
     19          6           0       -6.755461   -3.184412   -1.223167
     20          6           0       -7.044147   -2.782450   -4.927038
     21          6           0       -6.294182   -5.299811   -2.698918
     22          8           0       -6.301580   -6.144600   -1.739308
     23          6           0       -6.041630   -5.722235   -4.088457
     24          7           0       -7.046122   -2.048035    1.609496
     25          6           0       -7.080643   -3.348130    1.297175
     26          6           0       -7.154860   -4.203384    2.527204
     27          6           0       -6.918087   -3.221039    3.763606
     28          6           0       -6.825070   -1.883798    2.988104
     29          6           0       -8.468171   -4.971574    2.729960
     30          6           0       -5.774831   -3.586598    4.743275
     31          6           0       -4.439121   -3.448625    4.047617
     32          7           0       -6.532435    0.834422    1.794903
     33          6           0       -6.657752    0.565873    3.165615
     34          6           0       -6.675771    1.866116    3.860679
     35          6           0       -6.575711    2.807363    2.837993
     36          6           0       -6.526423    2.138339    1.581700
     37          6           0       -6.832939    2.060183    5.261418
     38          6           0       -6.523782    4.223449    2.512631
     39          8           0       -6.435803    5.261568    3.169945
     40          6           0       -6.712365    4.383369    0.939516
     41          6           0       -5.647706    5.325608    0.447586
     42          8           0       -4.442765    5.002441    0.479935
     43          8           0       -6.224992    6.351072   -0.197168
     44          6           0       -5.222378    7.308246   -0.736368
     45          1           0       -8.008783   -0.261552   -4.056716
     46          1           0       -6.952802   -4.847175    0.040963
     47          1           0       -6.762335   -0.685961    4.740667
     48          1           0       -7.726119    4.237174   -2.032273
     49          1           0       -7.628972    2.299682   -4.077789
     50          1           0       -9.713094    3.030516   -2.055860
     51          1           0       -9.752814    1.327150   -2.606525
     52          1           0       -9.925925    2.584237   -3.798307
     53          1           0       -5.406141    2.870064   -3.410686
     54          1           0       -5.033738    4.005016   -2.052130
     55          1           0       -6.784345    5.316608   -3.869298
     56          1           0       -5.813282    4.301743   -4.866765
     57          1           0       -7.426527   -1.842592   -5.323268
     58          1           0       -7.817795   -3.512268   -5.164826
     59          1           0       -6.108187   -3.069422   -5.406577
     60          1           0       -6.922798   -5.510939   -4.694631
     61          1           0       -5.731604   -6.765199   -4.034051
     62          1           0       -5.233801   -5.116648   -4.500313
     63          1           0       -6.375970   -4.964781    2.521669
     64          1           0       -7.799807   -3.145133    4.400381
     65          1           0       -8.335189   -6.049911    2.820572
     66          1           0       -9.132581   -4.727732    1.901473
     67          1           0       -9.060193   -4.646999    3.585283
     68          1           0       -5.865247   -4.624766    5.061046
     69          1           0       -5.760636   -2.965607    5.639054
     70          1           0       -4.336244   -4.400172    3.527227
     71          1           0       -3.641291   -3.315370    4.779000
     72          1           0       -4.463567   -2.664320    3.290811
     73          1           0       -6.109005    2.823386    5.546744
     74          1           0       -6.668579    1.133303    5.810491
     75          1           0       -7.870042    2.392523    5.304118
     76          1           0       -7.714770    4.780522    0.782745
     77          1           0       -5.469815    8.291573   -0.336272
     78          1           0       -5.229011    7.186449   -1.819662
     79          1           0       -4.200249    7.190241   -0.374891
     80         12           0        6.651735   -0.958970   -0.052310
     81          6           0        6.860618    2.613885    0.212570
     82          6           0        5.448384   -0.504931   -3.211488
     83          6           0        6.032343   -4.069099   -0.156547
     84          6           0        6.769114   -1.084904    3.428502
     85          7           0        6.251551    0.866750   -1.235050
     86          6           0        6.427438    2.166870   -1.053114
     87          6           0        6.198845    3.030671   -2.322424
     88          6           0        5.229107    2.031141   -3.122065
     89          6           0        5.689745    0.706923   -2.516324
     90          6           0        3.759087    2.223371   -2.788240
     91          6           0        7.528354    3.295698   -3.112468
     92          6           0        7.433051    4.382600   -4.185460
     93          1           0        8.594261    5.237816   -4.414957
     94          7           0        6.327035   -2.152472   -1.604311
     95          6           0        5.857928   -1.798236   -2.819109
     96          6           0        5.779556   -3.043244   -3.598839
     97          6           0        6.084278   -4.184003   -2.692994
     98          6           0        6.140533   -3.499548   -1.416889
     99          6           0        5.520079   -3.062487   -5.077253
    100          6           0        6.278586   -5.650486   -2.933524
    101          8           0        6.299426   -6.494105   -1.968793
    102          6           0        6.350227   -6.080715   -4.337543
    103          7           0        6.219034   -2.360608    1.420964
    104          6           0        6.043125   -3.657185    1.111330
    105          6           0        6.018081   -4.516025    2.353163
    106          6           0        6.457560   -3.552031    3.551147
    107          6           0        6.579672   -2.222661    2.774455
    108          6           0        4.674171   -5.162869    2.687648
    109          6           0        7.659151   -4.013042    4.420821
    110          6           0        8.928617   -3.991195    3.600222
    111          7           0        6.974071    0.459288    1.545402
    112          6           0        6.956542    0.199229    2.933258
    113          6           0        7.111546    1.497237    3.621428
    114          6           0        7.186001    2.432447    2.578198
    115          6           0        7.064278    1.766707    1.328615
    116          6           0        7.118381    1.695959    5.030894
    117          6           0        7.329212    3.832676    2.250215
    118          8           0        7.556808    4.856622    2.893226
    119          6           0        6.998031    4.026849    0.707815
    120          6           0        8.080670    4.878758    0.103936
    121          8           0        9.249327    4.459420    0.033214
    122          8           0        7.520686    5.951749   -0.483855
    123          6           0        8.553660    6.821607   -1.106868
    124          1           0        4.852312   -0.469845   -4.123816
    125          1           0        5.928830   -5.156481   -0.137845
    126          1           0        6.913438   -1.050599    4.510479
    127          1           0        5.696321    3.974029   -2.145468
    128          1           0        5.432398    2.053324   -4.189561
    129          1           0        3.618149    2.922776   -1.977617
    130          1           0        3.389739    1.244468   -2.511869
    131          1           0        3.203649    2.512965   -3.684871
    132          1           0        7.748438    2.426063   -3.744968
    133          1           0        8.332744    3.521594   -2.439742
    134          1           0        6.524766    4.988152   -4.079242
    135          1           0        7.320985    3.899913   -5.159361
    136          1           0        5.171084   -2.086737   -5.437132
    137          1           0        4.670347   -3.733295   -5.244057
    138          1           0        6.375507   -3.426478   -5.650336
    139          1           0        5.436590   -5.790928   -4.851109
    140          1           0        6.580450   -7.147390   -4.304945
    141          1           0        7.170255   -5.543241   -4.826739
    142          1           0        6.730588   -5.328124    2.276155
    143          1           0        5.647348   -3.415459    4.282404
    144          1           0        4.727910   -6.265132    2.766500
    145          1           0        3.957070   -4.870192    1.932241
    146          1           0        4.204695   -4.805631    3.602613
    147          1           0        7.517159   -5.046783    4.745417
    148          1           0        7.802482   -3.412241    5.312715
    149          1           0        8.896985   -4.948391    3.071192
    150          1           0        9.801520   -3.926138    4.246624
    151          1           0        8.896027   -3.196440    2.845932
    152          1           0        7.918187    2.392916    5.243164
    153          1           0        7.255798    0.757544    5.564048
    154          1           0        6.115494    2.106783    5.174800
    155          1           0        6.018271    4.501289    0.640326
    156          1           0        8.423388    7.823608   -0.686514
    157          1           0        8.417297    6.711963   -2.199170
    158          1           0        9.590449    6.622681   -0.862020
 ---------------------------------------------------------------------

 SCF Done:  E(RCAM-B3LYP) =  -4069.81161898     A.U. after   19 cycles

 Excitation energies and oscillator strengths:

 Excited State   1:      Singlet-A      1.6654 eV  744.45 nm  f=0.0100  <S**2>=0.000
     309 -> 315       -0.10996
     310 -> 316        0.13140
     311 -> 313       -0.43901
     312 -> 314        0.52795
 This state for optimization and/or second-order correction.
 Total Energy, E(TD-HF/TD-DFT) =  -4069.75041518
 Copying the excited state density for this state as the 1-particle RhoCI density.

 Excited State   2:      Singlet-A      1.6891 eV  734.02 nm  f=0.7342  <S**2>=0.000
     309 -> 315        0.13693
     310 -> 316        0.11311
     311 -> 313        0.52675
     312 -> 314        0.43809

 Excited State   3:      Singlet-A      2.1845 eV  567.57 nm  f=0.0408  <S**2>=0.000
     309 -> 313       -0.19799
     310 -> 314        0.61192
     312 -> 316       -0.25869

 Excited State   4:      Singlet-A      2.1934 eV  565.26 nm  f=0.1481  <S**2>=0.000
     309 -> 313        0.60944
     310 -> 314        0.19622
     311 -> 315       -0.26561

 Excited State   5:      Singlet-A      2.6459 eV  468.59 nm  f=0.0000  <S**2>=0.000
     312 -> 313        0.70710

 The electronic state is 1-A.
 Alpha  occ. eigenvalues --  -46.87867 -46.87552 -19.26353 -19.26241 -19.19090
 Alpha  occ. eigenvalues --  -19.19054 -19.18880 -19.18630 -19.18227 -19.17930
 Alpha  occ. eigenvalues --  -14.42523 -14.42388 -14.41517 -14.41252 -14.39473
 Alpha  occ. eigenvalues --  -14.39247 -14.38655 -14.38489 -10.39149 -10.38981
 Alpha  occ. eigenvalues --  -10.35515 -10.35310 -10.34448 -10.34106 -10.31748
 Alpha  occ. eigenvalues --  -10.31659 -10.31477 -10.31195 -10.30987 -10.30919
 Alpha  occ. eigenvalues --  -10.30639 -10.30572 -10.30289 -10.30274 -10.30251
 Alpha  occ. eigenvalues --  -10.30042 -10.29982 -10.29784 -10.29698 -10.29335
 Alpha  occ. eigenvalues --  -10.29324 -10.29298 -10.28839 -10.28664 -10.28609
 Alpha  occ. eigenvalues --  -10.28581 -10.28435 -10.28296 -10.28201 -10.28024
 Alpha  occ. eigenvalues --  -10.27893 -10.27859 -10.27800 -10.27654 -10.27570
 Alpha  occ. eigenvalues --  -10.27565 -10.27557 -10.27502 -10.27474 -10.27423
 Alpha  occ. eigenvalues --  -10.27406 -10.27374 -10.27367 -10.27278 -10.27223
 Alpha  occ. eigenvalues --  -10.26923 -10.26820 -10.26604 -10.26486 -10.26357
 Alpha  occ. eigenvalues --  -10.26309 -10.26236 -10.26085 -10.26055 -10.25889
 Alpha  occ. eigenvalues --  -10.25872 -10.25830 -10.25726 -10.25482 -10.25296
 Alpha  occ. eigenvalues --  -10.24897 -10.24853 -10.24761 -10.24742 -10.24654
 Alpha  occ. eigenvalues --  -10.24583  -3.16610  -3.16302  -1.91492  -1.91184
 Alpha  occ. eigenvalues --   -1.91078  -1.90920  -1.90773  -1.90610  -1.16702
 Alpha  occ. eigenvalues --   -1.16535  -1.08684  -1.08535  -1.07281  -1.06884
 Alpha  occ. eigenvalues --   -1.06838  -1.06712  -1.04654  -1.04386  -1.03829
 Alpha  occ. eigenvalues --   -1.03556  -1.03302  -1.02932  -1.02479  -1.02003
 Alpha  occ. eigenvalues --   -0.92040  -0.91873  -0.89581  -0.89394  -0.89274
 Alpha  occ. eigenvalues --   -0.89039  -0.88347  -0.88122  -0.87931  -0.87748
 Alpha  occ. eigenvalues --   -0.87680  -0.87580  -0.87348  -0.87035  -0.85066
 Alpha  occ. eigenvalues --   -0.84895  -0.83995  -0.83779  -0.83037  -0.82852
 Alpha  occ. eigenvalues --   -0.82726  -0.82553  -0.81655  -0.81490  -0.80667
 Alpha  occ. eigenvalues --   -0.80340  -0.78868  -0.78540  -0.77291  -0.77043
 Alpha  occ. eigenvalues --   -0.77010  -0.76795  -0.75996  -0.75728  -0.74958
 Alpha  occ. eigenvalues --   -0.74701  -0.72841  -0.72592  -0.71740  -0.71471
 Alpha  occ. eigenvalues --   -0.69965  -0.69665  -0.68953  -0.68725  -0.67710
 Alpha  occ. eigenvalues --   -0.67499  -0.67310  -0.67110  -0.65368  -0.65165
 Alpha  occ. eigenvalues --   -0.64922  -0.64692  -0.64665  -0.64549  -0.64332
 Alpha  occ. eigenvalues --   -0.64104  -0.62364  -0.62173  -0.60511  -0.60247
 Alpha  occ. eigenvalues --   -0.59884  -0.59686  -0.59055  -0.58886  -0.58571
 Alpha  occ. eigenvalues --   -0.58319  -0.57650  -0.57438  -0.57373  -0.57136
 Alpha  occ. eigenvalues --   -0.56378  -0.56102  -0.56051  -0.55784  -0.55590
 Alpha  occ. eigenvalues --   -0.55400  -0.55356  -0.55145  -0.54586  -0.54387
 Alpha  occ. eigenvalues --   -0.53981  -0.53805  -0.53367  -0.53299  -0.53129
 Alpha  occ. eigenvalues --   -0.53041  -0.52985  -0.52835  -0.52801  -0.52583
 Alpha  occ. eigenvalues --   -0.52496  -0.52312  -0.51970  -0.51765  -0.51700
 Alpha  occ. eigenvalues --   -0.51562  -0.51262  -0.51094  -0.50651  -0.50400
 Alpha  occ. eigenvalues --   -0.50095  -0.49991  -0.49880  -0.49772  -0.49591
 Alpha  occ. eigenvalues --   -0.49391  -0.49283  -0.49172  -0.49096  -0.48989
 Alpha  occ. eigenvalues --   -0.48661  -0.48524  -0.48510  -0.48450  -0.48275
 Alpha  occ. eigenvalues --   -0.48247  -0.47768  -0.47497  -0.47366  -0.47025
 Alpha  occ. eigenvalues --   -0.46866  -0.46640  -0.46607  -0.46452  -0.46426
 Alpha  occ. eigenvalues --   -0.46225  -0.46171  -0.45979  -0.45885  -0.45710
 Alpha  occ. eigenvalues --   -0.45261  -0.45107  -0.44643  -0.44582  -0.44407
 Alpha  occ. eigenvalues --   -0.44374  -0.44211  -0.44167  -0.44087  -0.44018
 Alpha  occ. eigenvalues --   -0.43984  -0.43843  -0.43561  -0.43460  -0.43449
 Alpha  occ. eigenvalues --   -0.43280  -0.43094  -0.42826  -0.42791  -0.42764
 Alpha  occ. eigenvalues --   -0.42717  -0.42459  -0.42077  -0.41868  -0.41771
 Alpha  occ. eigenvalues --   -0.41617  -0.41558  -0.41359  -0.41211  -0.40948
 Alpha  occ. eigenvalues --   -0.40898  -0.40879  -0.40635  -0.40634  -0.40602
 Alpha  occ. eigenvalues --   -0.40393  -0.40335  -0.40136  -0.39499  -0.39335
 Alpha  occ. eigenvalues --   -0.38534  -0.38251  -0.37843  -0.37560  -0.37385
 Alpha  occ. eigenvalues --   -0.37346  -0.37165  -0.37095  -0.36780  -0.36666
 Alpha  occ. eigenvalues --   -0.36260  -0.36114  -0.34355  -0.34145  -0.33840
 Alpha  occ. eigenvalues --   -0.33755  -0.33255  -0.33069  -0.31410  -0.31188
 Alpha  occ. eigenvalues --   -0.31104  -0.30866  -0.30086  -0.29833  -0.29518
 Alpha  occ. eigenvalues --   -0.29386  -0.29227  -0.29099  -0.24150  -0.23926
 Alpha  occ. eigenvalues --   -0.21197  -0.21010
 Alpha virt. eigenvalues --   -0.08843  -0.08686  -0.01818  -0.01579  -0.00128
 Alpha virt. eigenvalues --    0.00069   0.02139   0.02322   0.03039   0.03323
 Alpha virt. eigenvalues --    0.04637   0.04837   0.05029   0.05276   0.06077

 Mulliken charges:
               1
     1  Mg   0.838534
     2  C   -0.003102
     3  C   -0.094497
     4  C   -0.045733
     5  C   -0.063854
     6  N   -0.256752
     7  C   -0.052584
     8  C   -0.013942
     9  C   -0.086945
    10  C    0.046174
    11  C    0.104802
    12  C    0.053619
    13  C   -0.071553
    14  H    0.035468
    15  N   -0.433140
    16  C    0.168277
    17  C   -0.177408
    18  C   -0.004018
    19  C    0.148658
    20  C    0.110234
    21  C    0.012307
    22  O   -0.249308
    23  C    0.062548
    24  N   -0.341129
    25  C    0.041190
    26  C   -0.028209
    27  C   -0.024031
    28  C    0.074878
    29  C    0.076107
    30  C    0.035092
    31  C   -0.004510
    32  N   -0.310521
    33  C    0.080459
    34  C   -0.169502
    35  C    0.008505
    36  C    0.082986
    37  C    0.127259
    38  C    0.046270
    39  O   -0.187982
    40  C   -0.005379
    41  C    0.212995
    42  O   -0.257275
    43  O   -0.304748
    44  C    0.157615
    45  H   -0.017690
    46  H   -0.016653
    47  H   -0.041278
    48  H    0.001112
    49  H   -0.004369
    50  H    0.025616
    51  H    0.016583
    52  H    0.016646
    53  H    0.010604
    54  H    0.043966
    55  H    0.018273
    56  H    0.017599
    57  H    0.005687
    58  H    0.026974
    59  H    0.038909
    60  H    0.037343
    61  H    0.035905
    62  H    0.030943
    63  H    0.016700
    64  H    0.009611
    65  H    0.023378
    66  H    0.012553
    67  H    0.004861
    68  H    0.006516
    69  H    0.004814
    70  H    0.008952
    71  H    0.018017
    72  H    0.028883
    73  H    0.047908
    74  H    0.009212
    75  H    0.046165
    76  H    0.035273
    77  H    0.043336
    78  H    0.046058
    79  H    0.053737
    80  Mg   0.838105
    81  C   -0.016706
    82  C   -0.087808
    83  C   -0.045504
    84  C   -0.064687
    85  N   -0.254575
    86  C   -0.049367
    87  C   -0.015141
    88  C   -0.090656
    89  C    0.045955
    90  C    0.114413
    91  C    0.062575
    92  C   -0.077658
    93  H    0.034514
    94  N   -0.423469
    95  C    0.162911
    96  C   -0.174891
    97  C   -0.007951
    98  C    0.152071
    99  C    0.099556
   100  C    0.015440
   101  O   -0.253269
   102  C    0.061291
   103  N   -0.349984
   104  C    0.037562
   105  C   -0.019839
   106  C   -0.034809
   107  C    0.089025
   108  C    0.073659
   109  C    0.034732
   110  C   -0.007615
   111  N   -0.324227
   112  C    0.078668
   113  C   -0.162851
   114  C    0.002606
   115  C    0.096265
   116  C    0.131367
   117  C    0.042787
   118  O   -0.187522
   119  C    0.000729
   120  C    0.211158
   121  O   -0.251312
   122  O   -0.305362
   123  C    0.152144
   124  H   -0.020194
   125  H   -0.015709
   126  H   -0.040462
   127  H   -0.000204
   128  H   -0.004997
   129  H    0.024036
   130  H    0.014720
   131  H    0.015590
   132  H    0.013671
   133  H    0.037615
   134  H    0.020881
   135  H    0.019190
   136  H    0.008335
   137  H    0.025548
   138  H    0.039408
   139  H    0.037921
   140  H    0.036166
   141  H    0.033709
   142  H    0.014169
   143  H    0.012514
   144  H    0.024911
   145  H    0.012034
   146  H    0.005590
   147  H    0.006068
   148  H    0.003613
   149  H    0.010821
   150  H    0.017745
   151  H    0.030167
   152  H    0.045871
   153  H    0.008260
   154  H    0.047929
   155  H    0.036189
   156  H    0.043963
   157  H    0.049240
   158  H    0.053364
 Sum of Mulliken charges =  -0.00000

 Dipole moment (field-independent basis, Debye):
    X=             -4.6881    Y=             -1.9397    Z=             -7.3101  Tot=              8.8982
 Quadrupole moment (field-independent basis, Debye-Ang):
   XX=           -524.4536   YY=           -549.2335   ZZ=           -449.0191
   XY=             -8.4634   XZ=              3.1141   YZ=            -49.5003

 Normal termination of Gaussian 16 at Sat Sep 11 17:33:28 2021.
