 Gaussian 16, Revision A.03,
 Gaussian 16:  ES64L-G16RevA.03 25-Dec-2016

 -----------------------------------
 #p cam-b3lyp/Def2SVP td=(nstates=5)
 -----------------------------------

 --------------------------------
 TDDFT excited states in gaussian
 --------------------------------
 Symbolic Z-matrix:
 Charge =  0 Multiplicity = 1

                         Standard orientation:
 ---------------------------------------------------------------------
 Center     Atomic      Atomic             Coordinates (Angstroms)
 Number     Number       Type             X           Y           Z
 ---------------------------------------------------------------------
      1         12           0       -5.316463   -0.377738    0.044996
      2          6           0       -5.249005    3.197800    0.197287
      3          6           0       -6.141314   -0.073295   -3.251973
      4          6           0       -5.826172   -3.507335   -0.004402
      5          6           0       -5.609376   -0.372926    3.517724
      6          7           0       -5.624717    1.391690   -1.249127
      7          6           0       -5.509910    2.705674   -1.083488
      8          6           0       -5.618110    3.507973   -2.414647
      9          6           0       -6.445631    2.453279   -3.277680
     10          6           0       -6.019042    1.176456   -2.575064
     11          6           0       -7.957063    2.607124   -3.142008
     12          6           0       -4.216704    3.795339   -3.051210
     13          6           0       -4.208694    4.843779   -4.167482
     14          1           0       -3.061355    5.730735   -4.286939
     15          7           0       -5.418314   -1.635375   -1.475144
     16          6           0       -5.754427   -1.335869   -2.752880
     17          6           0       -5.684414   -2.608982   -3.501854
     18          6           0       -5.465281   -3.704698   -2.517232
     19          6           0       -5.588929   -2.986779   -1.274379
     20          6           0       -5.771946   -2.691121   -4.994952
     21          6           0       -5.198789   -5.168678   -2.671749
     22          8           0       -5.270022   -5.980665   -1.686773
     23          6           0       -4.935442   -5.647554   -4.040825
     24          7           0       -5.888337   -1.746694    1.513516
     25          6           0       -5.979815   -3.052983    1.241072
     26          6           0       -6.124519   -3.863431    2.494936
     27          6           0       -5.868084   -2.854333    3.705604
     28          6           0       -5.691284   -1.548950    2.891364
     29          6           0       -7.478491   -4.559893    2.689131
     30          6           0       -4.767167   -3.243218    4.724018
     31          6           0       -3.410591   -3.192912    4.057483
     32          7           0       -5.237328    1.111854    1.621669
     33          6           0       -5.407322    0.894140    2.996578
     34          6           0       -5.377121    2.215495    3.650166
     35          6           0       -5.207147    3.117232    2.601441
     36          6           0       -5.162011    2.406367    1.368182
     37          6           0       -5.556763    2.462127    5.039891
     38          6           0       -5.077856    4.517866    2.233521
     39          8           0       -4.953890    5.571171    2.860158
     40          6           0       -5.221995    4.635864    0.652026
     41          6           0       -4.101042    5.508827    0.157345
     42          8           0       -2.914599    5.128658    0.229385
     43          8           0       -4.611960    6.539787   -0.533037
     44          6           0       -3.551133    7.429150   -1.076941
     45          1           0       -6.630709   -0.099495   -4.227548
     46          1           0       -5.897240   -4.596271    0.035672
     47          1           0       -5.609886   -0.299590    4.606794
     48          1           0       -6.172951    4.443213   -2.337819
     49          1           0       -6.124482    2.438219   -4.319005
     50          1           0       -8.216024    3.334481   -2.372715
     51          1           0       -8.327116    1.618162   -2.870886
     52          1           0       -8.410410    2.843022   -4.105131
     53          1           0       -3.892164    2.921079   -3.615484
     54          1           0       -3.495581    4.079874   -2.284173
     55          1           0       -5.136916    5.415658   -4.183830
     56          1           0       -4.194424    4.323076   -5.125013
     57          1           0       -6.098205   -1.747071   -5.429544
     58          1           0       -6.575006   -3.389752   -5.228867
     59          1           0       -4.840495   -3.038613   -5.442144
     60          1           0       -5.790890   -5.413348   -4.674785
     61          1           0       -4.678641   -6.702058   -3.946357
     62          1           0       -4.089410   -5.095591   -4.451332
     63          1           0       -5.384263   -4.661586    2.532281
     64          1           0       -6.759425   -2.715106    4.317814
     65          1           0       -7.401053   -5.639930    2.816520
     66          1           0       -8.110771   -4.310920    1.837353
     67          1           0       -8.073321   -4.179448    3.519104
     68          1           0       -4.916048   -4.264952    5.071638
     69          1           0       -4.742974   -2.595038    5.600106
     70          1           0       -3.342865   -4.164651    3.569663
     71          1           0       -2.624227   -3.075056    4.803776
     72          1           0       -3.378818   -2.433205    3.276252
     73          1           0       -4.802790    3.198040    5.319044
     74          1           0       -5.451082    1.546573    5.621436
     75          1           0       -6.576895    2.845715    5.046687
     76          1           0       -6.199680    5.076023    0.458342
     77          1           0       -3.758860    8.435758   -0.713867
     78          1           0       -3.538797    7.272887   -2.155753
     79          1           0       -2.544684    7.273317   -0.686920
     80         12           0        5.244729   -1.179334    0.134074
     81          6           0        5.798157    2.362846    0.294555
     82          6           0        4.887227   -0.819896   -3.238989
     83          6           0        4.310980   -4.209219    0.010218
     84          6           0        4.516604   -1.079727    3.540773
     85          7           0        5.351690    0.593179   -1.184633
     86          6           0        5.629079    1.877698   -1.019019
     87          6           0        5.810391    2.672109   -2.340228
     88          6           0        4.949009    1.725464   -3.310154
     89          6           0        5.095617    0.405189   -2.556458
     90          6           0        3.474328    2.089971   -3.352663
     91          6           0        7.311019    2.744806   -2.792834
     92          6           0        7.600152    3.760275   -3.900528
     93          1           0        8.873865    4.474064   -3.875257
     94          7           0        5.161586   -2.435897   -1.399782
     95          6           0        5.038834   -2.118749   -2.705773
     96          6           0        5.003864   -3.399229   -3.429177
     97          6           0        4.950127   -4.501015   -2.430229
     98          6           0        4.780783   -3.740795   -1.208154
     99          6           0        5.102514   -3.492170   -4.924190
    100          6           0        5.024372   -5.992651   -2.555610
    101          8           0        4.717377   -6.766403   -1.580977
    102          6           0        5.376959   -6.522406   -3.880945
    103          7           0        4.314753   -2.425679    1.513978
    104          6           0        4.068084   -3.715356    1.224465
    105          6           0        3.649263   -4.480645    2.457069
    106          6           0        3.900517   -3.487710    3.685280
    107          6           0        4.357122   -2.233817    2.907690
    108          6           0        2.198607   -4.961755    2.480440
    109          6           0        4.799274   -4.009540    4.839674
    110          6           0        6.220999   -4.174090    4.352835
    111          7           0        5.340823    0.303616    1.702412
    112          6           0        4.964088    0.141695    3.053677
    113          6           0        5.100872    1.460676    3.704840
    114          6           0        5.529047    2.310192    2.673590
    115          6           0        5.631133    1.577063    1.460490
    116          6           0        4.795786    1.752998    5.064106
    117          6           0        5.907658    3.662732    2.333014
    118          8           0        6.093337    4.699205    2.969390
    119          6           0        5.977130    3.784596    0.749760
    120          6           0        7.263597    4.477731    0.393256
    121          8           0        8.358778    3.936695    0.626660
    122          8           0        6.987736    5.560109   -0.356890
    123          6           0        8.232938    6.274855   -0.744784
    124          1           0        4.533113   -0.785850   -4.269689
    125          1           0        4.080437   -5.276415    0.047885
    126          1           0        4.402797   -0.986961    4.622959
    127          1           0        5.393258    3.671945   -2.329994
    128          1           0        5.401171    1.654015   -4.295945
    129          1           0        3.227086    2.853636   -2.630285
    130          1           0        2.938808    1.175265   -3.134538
    131          1           0        3.185231    2.373466   -4.368721
    132          1           0        7.572499    1.816189   -3.316324
    133          1           0        7.953242    2.932066   -1.954318
    134          1           0        6.769277    4.461752   -4.043770
    135          1           0        7.667328    3.226561   -4.851666
    136          1           0        4.964712   -2.512461   -5.398086
    137          1           0        4.244727   -4.081906   -5.265195
    138          1           0        6.021337   -3.980248   -5.256143
    139          1           0        4.651456   -6.175871   -4.613074
    140          1           0        5.467384   -7.602399   -3.749368
    141          1           0        6.346405   -6.106545   -4.177356
    142          1           0        4.260402   -5.365006    2.589427
    143          1           0        2.961312   -3.219217    4.190901
    144          1           0        2.103713   -6.055771    2.615326
    145          1           0        1.720419   -4.648985    1.561730
    146          1           0        1.570008   -4.496782    3.237989
    147          1           0        4.465195   -4.998755    5.162174
    148          1           0        4.795439   -3.367408    5.714107
    149          1           0        6.204993   -5.156700    3.871908
    150          1           0        6.916881   -4.155269    5.189154
    151          1           0        6.461015   -3.433327    3.581276
    152          1           0        5.597651    2.376905    5.435940
    153          1           0        4.692712    0.843860    5.652830
    154          1           0        3.842113    2.273521    4.942357
    155          1           0        5.103354    4.351501    0.426170
    156          1           0        8.123820    7.311187   -0.410431
    157          1           0        8.348122    6.105795   -1.831934
    158          1           0        9.151576    5.987570   -0.246783
 ---------------------------------------------------------------------

 SCF Done:  E(RCAM-B3LYP) =  -4069.81142479     A.U. after   19 cycles

 Excitation energies and oscillator strengths:

 Excited State   1:      Singlet-A      1.6570 eV  748.25 nm  f=0.0027  <S**2>=0.000
     309 -> 315        0.11307
     310 -> 316       -0.12579
     311 -> 313        0.45760
     312 -> 314        0.51261
 This state for optimization and/or second-order correction.
 Total Energy, E(TD-HF/TD-DFT) =  -4069.75053146
 Copying the excited state density for this state as the 1-particle RhoCI density.

 Excited State   2:      Singlet-A      1.6969 eV  730.66 nm  f=0.7177  <S**2>=0.000
     309 -> 315        0.13439
     310 -> 316        0.11913
     311 -> 313        0.51070
     312 -> 314       -0.45595

 Excited State   3:      Singlet-A      2.1828 eV  568.00 nm  f=0.0242  <S**2>=0.000
     309 -> 313       -0.27190
     310 -> 314        0.58388
     311 -> 315        0.11333
     312 -> 316        0.24512

 Excited State   4:      Singlet-A      2.1948 eV  564.91 nm  f=0.1572  <S**2>=0.000
     309 -> 313        0.58025
     310 -> 314        0.26869
     311 -> 315       -0.25431
     312 -> 316        0.11896

 Excited State   5:      Singlet-A      2.4925 eV  497.42 nm  f=0.0000  <S**2>=0.000
     312 -> 313        0.70709

 The electronic state is 1-A.
 Alpha  occ. eigenvalues --  -46.87856 -46.87491 -19.26323 -19.26186 -19.19059
 Alpha  occ. eigenvalues --  -19.18995 -19.18853 -19.18579 -19.18203 -19.17850
 Alpha  occ. eigenvalues --  -14.42514 -14.42330 -14.41510 -14.41192 -14.39460
 Alpha  occ. eigenvalues --  -14.39188 -14.38643 -14.38422 -10.39120 -10.38920
 Alpha  occ. eigenvalues --  -10.35487 -10.35260 -10.34425 -10.34025 -10.31715
 Alpha  occ. eigenvalues --  -10.31615 -10.31469 -10.31134 -10.30974 -10.30866
 Alpha  occ. eigenvalues --  -10.30629 -10.30560 -10.30270 -10.30223 -10.30184
 Alpha  occ. eigenvalues --  -10.29991 -10.29976 -10.29717 -10.29685 -10.29312
 Alpha  occ. eigenvalues --  -10.29279 -10.29233 -10.28832 -10.28667 -10.28564
 Alpha  occ. eigenvalues --  -10.28553 -10.28420 -10.28233 -10.28195 -10.27982
 Alpha  occ. eigenvalues --  -10.27844 -10.27827 -10.27792 -10.27639 -10.27570
 Alpha  occ. eigenvalues --  -10.27559 -10.27511 -10.27508 -10.27461 -10.27377
 Alpha  occ. eigenvalues --  -10.27373 -10.27311 -10.27307 -10.27221 -10.27202
 Alpha  occ. eigenvalues --  -10.26844 -10.26817 -10.26566 -10.26451 -10.26322
 Alpha  occ. eigenvalues --  -10.26302 -10.26277 -10.26081 -10.26021 -10.25879
 Alpha  occ. eigenvalues --  -10.25840 -10.25771 -10.25629 -10.25483 -10.25231
 Alpha  occ. eigenvalues --  -10.24882 -10.24843 -10.24810 -10.24690 -10.24617
 Alpha  occ. eigenvalues --  -10.24521  -3.16599  -3.16241  -1.91481  -1.91123
 Alpha  occ. eigenvalues --   -1.91067  -1.90909  -1.90712  -1.90549  -1.16671
 Alpha  occ. eigenvalues --   -1.16479  -1.08659  -1.08453  -1.07252  -1.06833
 Alpha  occ. eigenvalues --   -1.06778  -1.06681  -1.04644  -1.04327  -1.03821
 Alpha  occ. eigenvalues --   -1.03496  -1.03290  -1.02870  -1.02469  -1.01940
 Alpha  occ. eigenvalues --   -0.92026  -0.91807  -0.89587  -0.89339  -0.89268
 Alpha  occ. eigenvalues --   -0.88995  -0.88352  -0.88067  -0.87919  -0.87741
 Alpha  occ. eigenvalues --   -0.87605  -0.87524  -0.87331  -0.86985  -0.85058
 Alpha  occ. eigenvalues --   -0.84847  -0.84005  -0.83725  -0.83023  -0.82807
 Alpha  occ. eigenvalues --   -0.82715  -0.82505  -0.81638  -0.81432  -0.80653
 Alpha  occ. eigenvalues --   -0.80283  -0.78854  -0.78482  -0.77289  -0.77005
 Alpha  occ. eigenvalues --   -0.76992  -0.76744  -0.75985  -0.75676  -0.74959
 Alpha  occ. eigenvalues --   -0.74644  -0.72833  -0.72529  -0.71731  -0.71413
 Alpha  occ. eigenvalues --   -0.69987  -0.69618  -0.68944  -0.68675  -0.67697
 Alpha  occ. eigenvalues --   -0.67440  -0.67300  -0.67064  -0.65360  -0.65114
 Alpha  occ. eigenvalues --   -0.64912  -0.64685  -0.64608  -0.64496  -0.64335
 Alpha  occ. eigenvalues --   -0.64050  -0.62346  -0.62116  -0.60499  -0.60193
 Alpha  occ. eigenvalues --   -0.59875  -0.59634  -0.59046  -0.58826  -0.58560
 Alpha  occ. eigenvalues --   -0.58259  -0.57630  -0.57368  -0.57365  -0.57077
 Alpha  occ. eigenvalues --   -0.56365  -0.56042  -0.56031  -0.55732  -0.55574
 Alpha  occ. eigenvalues --   -0.55399  -0.55302  -0.55088  -0.54581  -0.54333
 Alpha  occ. eigenvalues --   -0.53974  -0.53760  -0.53356  -0.53286  -0.53074
 Alpha  occ. eigenvalues --   -0.52989  -0.52973  -0.52820  -0.52748  -0.52542
 Alpha  occ. eigenvalues --   -0.52520  -0.52268  -0.51958  -0.51688  -0.51679
 Alpha  occ. eigenvalues --   -0.51514  -0.51254  -0.51034  -0.50634  -0.50359
 Alpha  occ. eigenvalues --   -0.50105  -0.49978  -0.49833  -0.49719  -0.49577
 Alpha  occ. eigenvalues --   -0.49342  -0.49268  -0.49162  -0.49040  -0.48933
 Alpha  occ. eigenvalues --   -0.48647  -0.48516  -0.48491  -0.48392  -0.48218
 Alpha  occ. eigenvalues --   -0.48192  -0.47759  -0.47448  -0.47355  -0.46973
 Alpha  occ. eigenvalues --   -0.46864  -0.46631  -0.46553  -0.46418  -0.46407
 Alpha  occ. eigenvalues --   -0.46216  -0.46115  -0.45913  -0.45871  -0.45645
 Alpha  occ. eigenvalues --   -0.45263  -0.45048  -0.44627  -0.44577  -0.44352
 Alpha  occ. eigenvalues --   -0.44321  -0.44212  -0.44159  -0.44070  -0.43966
 Alpha  occ. eigenvalues --   -0.43932  -0.43786  -0.43546  -0.43455  -0.43394
 Alpha  occ. eigenvalues --   -0.43225  -0.43085  -0.42770  -0.42757  -0.42728
 Alpha  occ. eigenvalues --   -0.42714  -0.42408  -0.42084  -0.41818  -0.41760
 Alpha  occ. eigenvalues --   -0.41612  -0.41493  -0.41312  -0.41202  -0.40949
 Alpha  occ. eigenvalues --   -0.40879  -0.40824  -0.40640  -0.40589  -0.40557
 Alpha  occ. eigenvalues --   -0.40340  -0.40329  -0.40096  -0.39528  -0.39290
 Alpha  occ. eigenvalues --   -0.38540  -0.38199  -0.37838  -0.37516  -0.37387
 Alpha  occ. eigenvalues --   -0.37337  -0.37112  -0.37042  -0.36762  -0.36611
 Alpha  occ. eigenvalues --   -0.36251  -0.36060  -0.34344  -0.34084  -0.33812
 Alpha  occ. eigenvalues --   -0.33695  -0.33243  -0.33008  -0.31384  -0.31137
 Alpha  occ. eigenvalues --   -0.31093  -0.30805  -0.30063  -0.29752  -0.29502
 Alpha  occ. eigenvalues --   -0.29371  -0.29168  -0.29025  -0.24139  -0.23864
 Alpha  occ. eigenvalues --   -0.21187  -0.20950
 Alpha virt. eigenvalues --   -0.08830  -0.08623  -0.01808  -0.01520  -0.00109
 Alpha virt. eigenvalues --    0.00125   0.02155   0.02395   0.03043   0.03383
 Alpha virt. eigenvalues --    0.04643   0.04891   0.05057   0.05337   0.06081

 Mulliken charges:
               1
     1  Mg   0.838690
     2  C   -0.003003
     3  C   -0.094600
     4  C   -0.045647
     5  C   -0.064022
     6  N   -0.256716
     7  C   -0.052622
     8  C   -0.013929
     9  C   -0.086933
    10  C    0.046189
    11  C    0.104808
    12  C    0.053686
    13  C   -0.071462
    14  H    0.035277
    15  N   -0.433158
    16  C    0.168345
    17  C   -0.177413
    18  C   -0.003861
    19  C    0.148743
    20  C    0.110275
    21  C    0.012671
    22  O   -0.249115
    23  C    0.062457
    24  N   -0.341047
    25  C    0.041085
    26  C   -0.028262
    27  C   -0.023965
    28  C    0.074710
    29  C    0.076096
    30  C    0.035200
    31  C   -0.004745
    32  N   -0.310540
    33  C    0.080428
    34  C   -0.169613
    35  C    0.008619
    36  C    0.083042
    37  C    0.127247
    38  C    0.046393
    39  O   -0.187712
    40  C   -0.005467
    41  C    0.213060
    42  O   -0.257061
    43  O   -0.304826
    44  C    0.157473
    45  H   -0.017731
    46  H   -0.016587
    47  H   -0.041477
    48  H    0.001158
    49  H   -0.004483
    50  H    0.025654
    51  H    0.016592
    52  H    0.016605
    53  H    0.010424
    54  H    0.044036
    55  H    0.018367
    56  H    0.017418
    57  H    0.005560
    58  H    0.026994
    59  H    0.038858
    60  H    0.037132
    61  H    0.036245
    62  H    0.031060
    63  H    0.016676
    64  H    0.009672
    65  H    0.023424
    66  H    0.012652
    67  H    0.004825
    68  H    0.006498
    69  H    0.004744
    70  H    0.009131
    71  H    0.016581
    72  H    0.029395
    73  H    0.048040
    74  H    0.008953
    75  H    0.046193
    76  H    0.035248
    77  H    0.043476
    78  H    0.045828
    79  H    0.054094
    80  Mg   0.838201
    81  C   -0.016418
    82  C   -0.088057
    83  C   -0.045541
    84  C   -0.064452
    85  N   -0.254519
    86  C   -0.049007
    87  C   -0.015140
    88  C   -0.090726
    89  C    0.046005
    90  C    0.114352
    91  C    0.062619
    92  C   -0.077527
    93  H    0.034427
    94  N   -0.423376
    95  C    0.162796
    96  C   -0.175374
    97  C   -0.008077
    98  C    0.151868
    99  C    0.099768
   100  C    0.015272
   101  O   -0.253247
   102  C    0.061381
   103  N   -0.349907
   104  C    0.037411
   105  C   -0.019773
   106  C   -0.034734
   107  C    0.089146
   108  C    0.073574
   109  C    0.034752
   110  C   -0.007572
   111  N   -0.324414
   112  C    0.079005
   113  C   -0.162262
   114  C    0.003230
   115  C    0.096316
   116  C    0.131048
   117  C    0.043465
   118  O   -0.187146
   119  C    0.000472
   120  C    0.211016
   121  O   -0.251470
   122  O   -0.305290
   123  C    0.152195
   124  H   -0.020782
   125  H   -0.015669
   126  H   -0.040532
   127  H   -0.000213
   128  H   -0.005265
   129  H    0.025031
   130  H    0.014459
   131  H    0.014540
   132  H    0.013630
   133  H    0.037658
   134  H    0.020665
   135  H    0.019064
   136  H    0.008070
   137  H    0.024901
   138  H    0.039290
   139  H    0.037564
   140  H    0.036077
   141  H    0.033662
   142  H    0.014034
   143  H    0.012211
   144  H    0.024946
   145  H    0.012485
   146  H    0.005409
   147  H    0.005811
   148  H    0.003452
   149  H    0.010808
   150  H    0.017618
   151  H    0.030282
   152  H    0.045715
   153  H    0.007817
   154  H    0.049560
   155  H    0.037165
   156  H    0.043882
   157  H    0.049039
   158  H    0.053302
 Sum of Mulliken charges =  -0.00000

 Dipole moment (field-independent basis, Debye):
    X=             -3.8472    Y=             -1.8240    Z=             -7.7115  Tot=              8.8089
 Quadrupole moment (field-independent basis, Debye-Ang):
   XX=           -514.4483   YY=           -551.9546   ZZ=           -447.4935
   XY=             -4.9515   XZ=            -12.2954   YZ=            -45.4697

 Normal termination of Gaussian 16 at Fri Sep 10 09:32:57 2021.
