 Gaussian 16, Revision A.03,
 Gaussian 16:  ES64L-G16RevA.03 25-Dec-2016

 -----------------------------------
 #p cam-b3lyp/Def2SVP td=(nstates=5)
 -----------------------------------

 --------------------------------
 TDDFT excited states in gaussian
 --------------------------------
 Symbolic Z-matrix:
 Charge =  0 Multiplicity = 1

                         Standard orientation:
 ---------------------------------------------------------------------
 Center     Atomic      Atomic             Coordinates (Angstroms)
 Number     Number       Type             X           Y           Z
 ---------------------------------------------------------------------
      1         12           0        4.533770   -0.527561    1.017791
      2          6           0        5.105678    2.425053   -0.923139
      3          6           0        4.741244    1.439676    3.798078
      4          6           0        4.484887   -3.175489    2.762127
      5          6           0        5.492870   -2.373249   -1.778497
      6          7           0        4.880531    1.643612    1.275489
      7          6           0        5.025066    2.674483    0.448696
      8          6           0        5.007047    4.054109    1.172354
      9          6           0        5.459492    3.581633    2.626334
     10          6           0        4.967075    2.145930    2.579375
     11          6           0        6.972184    3.575930    2.821858
     12          6           0        3.578204    4.694067    1.196726
     13          6           0        3.531521    6.173557    1.589519
     14          1           0        2.550552    7.037282    0.949966
     15          7           0        4.122896   -0.793505    2.931767
     16          6           0        4.250027    0.122036    3.922176
     17          6           0        3.820448   -0.557708    5.163180
     18          6           0        3.614061   -1.997948    4.845050
     19          6           0        4.097169   -2.052315    3.488943
     20          6           0        3.600710    0.158902    6.460074
     21          6           0        3.077838   -3.145602    5.640970
     22          8           0        3.200240   -4.357920    5.253829
     23          6           0        2.475834   -2.815919    6.945555
     24          7           0        5.139239   -2.489047    0.638824
     25          6           0        4.952704   -3.455895    1.544028
     26          6           0        5.198635   -4.812294    0.952726
     27          6           0        5.357763   -4.586683   -0.620021
     28          6           0        5.250400   -3.042044   -0.648900
     29          6           0        6.426126   -5.562907    1.487382
     30          6           0        4.426153   -5.408234   -1.546075
     31          6           0        2.994518   -4.955237   -1.366323
     32          7           0        5.016990   -0.095909   -1.053735
     33          6           0        5.411595   -1.015076   -2.036636
     34          6           0        5.734005   -0.239716   -3.248633
     35          6           0        5.519060    1.086595   -2.879115
     36          6           0        5.114866    1.138523   -1.514483
     37          6           0        6.219700   -0.773592   -4.474810
     38          6           0        5.560569    2.473806   -3.312451
     39          8           0        5.741613    3.040237   -4.391280
     40          6           0        5.412330    3.404393   -2.028761
     41          6           0        4.381510    4.453655   -2.344622
     42          8           0        3.184724    4.143825   -2.515137
     43          8           0        4.916004    5.670925   -2.162658
     44          6           0        3.936484    6.757571   -2.430793
     45          1           0        5.019881    1.912792    4.741722
     46          1           0        4.376333   -4.122602    3.294697
     47          1           0        5.717602   -2.887308   -2.714815
     48          1           0        5.716902    4.782482    0.779923
     49          1           0        4.944180    4.133464    3.412247
     50          1           0        7.495533    3.774349    1.886627
     51          1           0        7.214391    2.578585    3.189460
     52          1           0        7.262946    4.266123    3.614240
     53          1           0        3.006411    4.265468    2.019779
     54          1           0        3.079036    4.560085    0.236411
     55          1           0        4.522243    6.627386    1.551863
     56          1           0        3.243069    6.239459    2.638639
     57          1           0        3.991783    1.175042    6.427427
     58          1           0        4.212355   -0.343611    7.209127
     59          1           0        2.554851    0.140624    6.766957
     60          1           0        3.218781   -2.318418    7.569311
     61          1           0        2.066958   -3.748678    7.332376
     62          1           0        1.672443   -2.094940    6.791602
     63          1           0        4.355145   -5.477003    1.134693
     64          1           0        6.361579   -4.830511   -0.968699
     65          1           0        6.192595   -6.542355    1.905532
     66          1           0        6.913626   -4.928155    2.226791
     67          1           0        7.226815   -5.704895    0.762017
     68          1           0        4.463996   -6.464416   -1.281512
     69          1           0        4.683267   -5.321372   -2.601821
     70          1           0        2.669135   -5.517828   -0.491996
     71          1           0        2.399969   -5.216732   -2.242305
     72          1           0        2.940974   -3.896701   -1.111137
     73          1           0        5.670609   -0.265507   -5.267474
     74          1           0        6.075143   -1.852716   -4.521696
     75          1           0        7.271726   -0.495497   -4.413490
     76          1           0        6.393975    3.838306   -1.841104
     77          1           0        4.378787    7.409756   -3.183957
     78          1           0        3.688234    7.196424   -1.464261
     79          1           0        3.013536    6.461976   -2.930924
     80         12           0       -4.225167   -0.760306   -0.985738
     81          6           0       -6.512300    1.470246    0.649107
     82          6           0       -3.004704    1.953118   -2.653801
     83          6           0       -2.511744   -2.750197   -2.766732
     84          6           0       -6.342520   -3.374942   -0.076784
     85          7           0       -4.769690    1.382583   -0.923998
     86          6           0       -5.612474    2.122551   -0.219366
     87          6           0       -5.429368    3.653474   -0.399054
     88          6           0       -4.729058    3.643923   -1.844168
     89          6           0       -4.095011    2.255170   -1.799340
     90          6           0       -5.721761    3.678848   -2.994233
     91          6           0       -4.487761    4.274908    0.691451
     92          6           0       -4.509724    5.803266    0.764785
     93          1           0       -4.370463    6.439450    2.071829
     94          7           0       -2.630212   -0.422021   -2.117222
     95          6           0       -2.274865    0.744819   -2.694708
     96          6           0       -1.036470    0.465180   -3.437896
     97          6           0       -0.779480   -0.999773   -3.386979
     98          6           0       -2.001657   -1.460119   -2.758922
     99          6           0       -0.186038    1.546643   -4.038425
    100          6           0        0.369795   -1.847605   -3.841440
    101          8           0        0.277867   -3.124012   -3.913243
    102          6           0        1.574621   -1.133555   -4.288692
    103          7           0       -4.503465   -2.741234   -1.552108
    104          6           0       -3.580426   -3.386450   -2.286698
    105          6           0       -3.862430   -4.869120   -2.337233
    106          6           0       -5.035444   -5.119631   -1.279455
    107          6           0       -5.301340   -3.661182   -0.846319
    108          6           0       -4.280163   -5.420751   -3.700159
    109          6           0       -4.773886   -6.182106   -0.177006
    110          6           0       -3.689035   -5.698927    0.758437
    111          7           0       -5.989696   -0.977750    0.241944
    112          6           0       -6.732947   -2.157377    0.465881
    113          6           0       -7.910681   -1.782838    1.275255
    114          6           0       -7.782038   -0.396446    1.447981
    115          6           0       -6.617873    0.063969    0.775499
    116          6           0       -8.940709   -2.666834    1.703894
    117          6           0       -8.372071    0.783902    2.037344
    118          8           0       -9.318651    0.996562    2.793979
    119          6           0       -7.644430    2.064609    1.440090
    120          6           0       -7.296543    2.976984    2.584233
    121          8           0       -6.468229    2.626246    3.442999
    122          8           0       -7.831295    4.190787    2.358179
    123          6           0       -7.504384    5.134180    3.460447
    124          1           0       -2.704161    2.695562   -3.393620
    125          1           0       -1.897686   -3.496944   -3.275431
    126          1           0       -6.997810   -4.148086    0.330039
    127          1           0       -6.352082    4.220004   -0.436765
    128          1           0       -3.962393    4.410954   -1.916636
    129          1           0       -6.740897    3.584755   -2.649770
    130          1           0       -5.460219    2.846165   -3.633978
    131          1           0       -5.570555    4.579942   -3.595490
    132          1           0       -3.442943    4.116019    0.395034
    133          1           0       -4.701700    3.863604    1.658764
    134          1           0       -5.359527    6.229993    0.218269
    135          1           0       -3.632473    6.188537    0.239409
    136          1           0       -0.713358    2.508369   -4.058767
    137          1           0       -0.043955    1.292393   -5.094376
    138          1           0        0.792194    1.627864   -3.559747
    139          1           0        1.317940   -0.474030   -5.114285
    140          1           0        2.316344   -1.909084   -4.489383
    141          1           0        1.925319   -0.493198   -3.471648
    142          1           0       -2.991413   -5.438875   -2.037557
    143          1           0       -5.954926   -5.475175   -1.767285
    144          1           0       -3.625333   -6.236655   -4.060129
    145          1           0       -4.294449   -4.603743   -4.409260
    146          1           0       -5.302175   -5.791842   -3.754642
    147          1           0       -4.407771   -7.109572   -0.624114
    148          1           0       -5.657224   -6.430411    0.401829
    149          1           0       -2.769598   -5.967687    0.229766
    150          1           0       -3.755828   -6.207904    1.717876
    151          1           0       -3.708042   -4.606937    0.852464
    152          1           0       -9.150686   -2.422672    2.736749
    153          1           0       -8.643103   -3.707480    1.593150
    154          1           0       -9.736780   -2.391179    1.007086
    155          1           0       -8.332973    2.534348    0.736659
    156          1           0       -8.453859    5.528105    3.835956
    157          1           0       -6.792264    5.862501    3.028975
    158          1           0       -7.075223    4.718939    4.364790
 ---------------------------------------------------------------------

 SCF Done:  E(RCAM-B3LYP) =  -4069.81594190     A.U. after   17 cycles

 Excitation energies and oscillator strengths:

 Excited State   1:      Singlet-A      1.6403 eV  755.84 nm  f=0.1263  <S**2>=0.000
     309 -> 315        0.11674
     310 -> 316        0.11760
     311 -> 313       -0.48218
     312 -> 314        0.49007
 This state for optimization and/or second-order correction.
 Total Energy, E(TD-HF/TD-DFT) =  -4069.75566039
 Copying the excited state density for this state as the 1-particle RhoCI density.

 Excited State   2:      Singlet-A      1.7059 eV  726.78 nm  f=0.6077  <S**2>=0.000
     309 -> 315       -0.13042
     310 -> 316        0.12659
     311 -> 313        0.48761
     312 -> 314        0.48002

 Excited State   3:      Singlet-A      2.1862 eV  567.12 nm  f=0.0033  <S**2>=0.000
     309 -> 313       -0.41777
     310 -> 314        0.49027
     311 -> 315       -0.17500
     312 -> 316       -0.20682

 Excited State   4:      Singlet-A      2.1987 eV  563.90 nm  f=0.1704  <S**2>=0.000
     309 -> 313        0.48687
     310 -> 314        0.41343
     311 -> 315        0.21492
     312 -> 316       -0.18199

 Excited State   5:      Singlet-A      2.3315 eV  531.78 nm  f=0.0000  <S**2>=0.000
     312 -> 313        0.70645

 The electronic state is 1-A.
 Alpha  occ. eigenvalues --  -46.87923 -46.87361 -19.26753 -19.26221 -19.19606
 Alpha  occ. eigenvalues --  -19.19015 -19.18862 -19.18439 -19.18406 -19.17783
 Alpha  occ. eigenvalues --  -14.42582 -14.42202 -14.41530 -14.41059 -14.39519
 Alpha  occ. eigenvalues --  -14.39038 -14.38778 -14.38300 -10.39589 -10.38936
 Alpha  occ. eigenvalues --  -10.35488 -10.35022 -10.34670 -10.33970 -10.32128
 Alpha  occ. eigenvalues --  -10.31677 -10.31581 -10.31053 -10.31022 -10.30738
 Alpha  occ. eigenvalues --  -10.30691 -10.30641 -10.30215 -10.30121 -10.30035
 Alpha  occ. eigenvalues --  -10.30012 -10.29808 -10.29774 -10.29652 -10.29367
 Alpha  occ. eigenvalues --  -10.29074 -10.29036 -10.28940 -10.28784 -10.28545
 Alpha  occ. eigenvalues --  -10.28527 -10.28472 -10.28281 -10.28071 -10.27963
 Alpha  occ. eigenvalues --  -10.27869 -10.27850 -10.27709 -10.27657 -10.27571
 Alpha  occ. eigenvalues --  -10.27525 -10.27458 -10.27365 -10.27341 -10.27331
 Alpha  occ. eigenvalues --  -10.27276 -10.27193 -10.27161 -10.27073 -10.26944
 Alpha  occ. eigenvalues --  -10.26819 -10.26497 -10.26427 -10.26382 -10.26378
 Alpha  occ. eigenvalues --  -10.26082 -10.26012 -10.25922 -10.25771 -10.25771
 Alpha  occ. eigenvalues --  -10.25747 -10.25624 -10.25601 -10.25383 -10.25216
 Alpha  occ. eigenvalues --  -10.25040 -10.24888 -10.24552 -10.24509 -10.24405
 Alpha  occ. eigenvalues --  -10.23946  -3.16666  -3.16112  -1.91547  -1.91133
 Alpha  occ. eigenvalues --   -1.90995  -1.90977  -1.90583  -1.90419  -1.17109
 Alpha  occ. eigenvalues --   -1.16509  -1.08925  -1.08409  -1.07257  -1.07173
 Alpha  occ. eigenvalues --   -1.06797  -1.06636  -1.04727  -1.04194  -1.03856
 Alpha  occ. eigenvalues --   -1.03369  -1.03364  -1.02735  -1.02539  -1.01804
 Alpha  occ. eigenvalues --   -0.92172  -0.91702  -0.89502  -0.89341  -0.89219
 Alpha  occ. eigenvalues --   -0.88896  -0.88221  -0.88041  -0.87966  -0.87794
 Alpha  occ. eigenvalues --   -0.87501  -0.87377  -0.87356  -0.86573  -0.85140
 Alpha  occ. eigenvalues --   -0.84732  -0.83864  -0.83638  -0.82936  -0.82765
 Alpha  occ. eigenvalues --   -0.82535  -0.82227  -0.81830  -0.81373  -0.80754
 Alpha  occ. eigenvalues --   -0.80157  -0.78903  -0.78180  -0.77305  -0.77061
 Alpha  occ. eigenvalues --   -0.76810  -0.76669  -0.76091  -0.75533  -0.74887
 Alpha  occ. eigenvalues --   -0.74532  -0.72887  -0.72380  -0.71794  -0.71305
 Alpha  occ. eigenvalues --   -0.69676  -0.69508  -0.69010  -0.68537  -0.67785
 Alpha  occ. eigenvalues --   -0.67372  -0.67307  -0.66882  -0.65464  -0.65035
 Alpha  occ. eigenvalues --   -0.65013  -0.64732  -0.64497  -0.64396  -0.64207
 Alpha  occ. eigenvalues --   -0.63942  -0.62548  -0.62065  -0.60504  -0.59968
 Alpha  occ. eigenvalues --   -0.59904  -0.59514  -0.59117  -0.58710  -0.58646
 Alpha  occ. eigenvalues --   -0.58133  -0.57893  -0.57368  -0.57324  -0.56913
 Alpha  occ. eigenvalues --   -0.56495  -0.56249  -0.55875  -0.55653  -0.55633
 Alpha  occ. eigenvalues --   -0.55434  -0.55101  -0.54996  -0.54592  -0.54273
 Alpha  occ. eigenvalues --   -0.54073  -0.53656  -0.53391  -0.53375  -0.53124
 Alpha  occ. eigenvalues --   -0.52936  -0.52846  -0.52811  -0.52636  -0.52251
 Alpha  occ. eigenvalues --   -0.52163  -0.52095  -0.52020  -0.51780  -0.51619
 Alpha  occ. eigenvalues --   -0.51322  -0.51296  -0.50930  -0.50583  -0.50059
 Alpha  occ. eigenvalues --   -0.49943  -0.49854  -0.49657  -0.49574  -0.49463
 Alpha  occ. eigenvalues --   -0.49375  -0.49259  -0.49125  -0.48854  -0.48817
 Alpha  occ. eigenvalues --   -0.48802  -0.48577  -0.48465  -0.48286  -0.48136
 Alpha  occ. eigenvalues --   -0.47924  -0.47781  -0.47396  -0.47231  -0.46876
 Alpha  occ. eigenvalues --   -0.46721  -0.46702  -0.46500  -0.46425  -0.46266
 Alpha  occ. eigenvalues --   -0.46240  -0.46051  -0.45916  -0.45793  -0.45595
 Alpha  occ. eigenvalues --   -0.45171  -0.44947  -0.44784  -0.44570  -0.44312
 Alpha  occ. eigenvalues --   -0.44258  -0.44192  -0.44161  -0.44044  -0.43855
 Alpha  occ. eigenvalues --   -0.43773  -0.43711  -0.43489  -0.43454  -0.43338
 Alpha  occ. eigenvalues --   -0.43160  -0.43113  -0.43051  -0.42724  -0.42614
 Alpha  occ. eigenvalues --   -0.42563  -0.42233  -0.41958  -0.41814  -0.41716
 Alpha  occ. eigenvalues --   -0.41592  -0.41394  -0.41265  -0.41197  -0.40966
 Alpha  occ. eigenvalues --   -0.40881  -0.40712  -0.40460  -0.40454  -0.40401
 Alpha  occ. eigenvalues --   -0.40355  -0.40250  -0.39955  -0.39185  -0.39158
 Alpha  occ. eigenvalues --   -0.38431  -0.38112  -0.37932  -0.37452  -0.37433
 Alpha  occ. eigenvalues --   -0.37314  -0.37075  -0.36997  -0.36902  -0.36605
 Alpha  occ. eigenvalues --   -0.36283  -0.35978  -0.34444  -0.34253  -0.33963
 Alpha  occ. eigenvalues --   -0.33687  -0.33332  -0.32875  -0.31395  -0.31166
 Alpha  occ. eigenvalues --   -0.30933  -0.30680  -0.30308  -0.29700  -0.29609
 Alpha  occ. eigenvalues --   -0.29486  -0.28973  -0.28871  -0.24215  -0.23740
 Alpha  occ. eigenvalues --   -0.21253  -0.20795
 Alpha virt. eigenvalues --   -0.08908  -0.08453  -0.01850  -0.01391  -0.00179
 Alpha virt. eigenvalues --    0.00329   0.02011   0.02481   0.02700   0.03654
 Alpha virt. eigenvalues --    0.04574   0.04645   0.04990   0.05335   0.05960

 Mulliken charges:
               1
     1  Mg   0.837665
     2  C   -0.005632
     3  C   -0.094020
     4  C   -0.044905
     5  C   -0.062372
     6  N   -0.257253
     7  C   -0.052685
     8  C   -0.014110
     9  C   -0.087166
    10  C    0.046903
    11  C    0.104662
    12  C    0.053368
    13  C   -0.071583
    14  H    0.034051
    15  N   -0.433561
    16  C    0.169437
    17  C   -0.176253
    18  C   -0.002980
    19  C    0.149376
    20  C    0.109887
    21  C    0.013209
    22  O   -0.248546
    23  C    0.061940
    24  N   -0.341761
    25  C    0.042663
    26  C   -0.028207
    27  C   -0.023697
    28  C    0.076014
    29  C    0.076203
    30  C    0.033759
    31  C   -0.004204
    32  N   -0.308896
    33  C    0.076460
    34  C   -0.173030
    35  C    0.006287
    36  C    0.078815
    37  C    0.127681
    38  C    0.041613
    39  O   -0.189839
    40  C   -0.004558
    41  C    0.215318
    42  O   -0.262689
    43  O   -0.303130
    44  C    0.158001
    45  H   -0.017056
    46  H   -0.015699
    47  H   -0.039943
    48  H    0.000613
    49  H   -0.003488
    50  H    0.025452
    51  H    0.016967
    52  H    0.017164
    53  H    0.012447
    54  H    0.041490
    55  H    0.018360
    56  H    0.019244
    57  H    0.006104
    58  H    0.027406
    59  H    0.041724
    60  H    0.037272
    61  H    0.036562
    62  H    0.033171
    63  H    0.018057
    64  H    0.008666
    65  H    0.023496
    66  H    0.011712
    67  H    0.004976
    68  H    0.004871
    69  H    0.005453
    70  H    0.003828
    71  H    0.032769
    72  H    0.025384
    73  H    0.044966
    74  H    0.011281
    75  H    0.046415
    76  H    0.036094
    77  H    0.043900
    78  H    0.047581
    79  H    0.051036
    80  Mg   0.836100
    81  C   -0.017042
    82  C   -0.084460
    83  C   -0.046250
    84  C   -0.065159
    85  N   -0.254356
    86  C   -0.051106
    87  C   -0.015028
    88  C   -0.090496
    89  C    0.044863
    90  C    0.114378
    91  C    0.062200
    92  C   -0.077053
    93  H    0.032104
    94  N   -0.423770
    95  C    0.161974
    96  C   -0.172095
    97  C   -0.009607
    98  C    0.152363
    99  C    0.097215
   100  C    0.015157
   101  O   -0.258030
   102  C    0.059582
   103  N   -0.350177
   104  C    0.038253
   105  C   -0.019801
   106  C   -0.034357
   107  C    0.088238
   108  C    0.073996
   109  C    0.034965
   110  C   -0.007282
   111  N   -0.323680
   112  C    0.077181
   113  C   -0.164293
   114  C    0.001705
   115  C    0.095138
   116  C    0.131750
   117  C    0.041405
   118  O   -0.189804
   119  C    0.001147
   120  C    0.211199
   121  O   -0.252046
   122  O   -0.305445
   123  C    0.152461
   124  H   -0.017817
   125  H   -0.016710
   126  H   -0.041537
   127  H   -0.001460
   128  H   -0.003316
   129  H    0.021882
   130  H    0.014750
   131  H    0.016154
   132  H    0.015028
   133  H    0.036571
   134  H    0.020658
   135  H    0.019783
   136  H    0.009753
   137  H    0.024532
   138  H    0.059999
   139  H    0.040606
   140  H    0.029586
   141  H    0.047153
   142  H    0.013529
   143  H    0.011700
   144  H    0.023983
   145  H    0.011824
   146  H    0.005342
   147  H    0.005253
   148  H    0.003170
   149  H    0.010557
   150  H    0.017811
   151  H    0.030318
   152  H    0.044804
   153  H    0.007811
   154  H    0.046072
   155  H    0.034485
   156  H    0.043398
   157  H    0.049207
   158  H    0.052573
 Sum of Mulliken charges =  -0.00000

 Dipole moment (field-independent basis, Debye):
    X=              3.4697    Y=              3.1451    Z=              1.0536  Tot=              4.8001
 Quadrupole moment (field-independent basis, Debye-Ang):
   XX=           -536.3034   YY=           -464.0015   ZZ=           -516.5314
   XY=              6.3135   XZ=             46.5364   YZ=             21.1302

 Normal termination of Gaussian 16 at Thu Sep  9 14:59:02 2021.
