 Gaussian 16, Revision A.03,
 Gaussian 16:  ES64L-G16RevA.03 25-Dec-2016

 -----------------------------------
 #p cam-b3lyp/Def2SVP td=(nstates=5)
 -----------------------------------

 --------------------------------
 TDDFT excited states in gaussian
 --------------------------------
 Symbolic Z-matrix:
 Charge =  0 Multiplicity = 1

                         Standard orientation:
 ---------------------------------------------------------------------
 Center     Atomic      Atomic             Coordinates (Angstroms)
 Number     Number       Type             X           Y           Z
 ---------------------------------------------------------------------
      1         12           0       -6.644562   -0.453554    0.228175
      2          6           0       -6.655045    3.090130    0.732562
      3          6           0       -7.594136    0.151883   -2.992822
      4          6           0       -7.082625   -3.575587   -0.114803
      5          6           0       -6.812624   -0.798556    3.692044
      6          7           0       -7.040247    1.425823   -0.872744
      7          6           0       -6.950228    2.719709   -0.581326
      8          6           0       -7.124828    3.646004   -1.821837
      9          6           0       -7.957993    2.659661   -2.757230
     10          6           0       -7.476803    1.331727   -2.199580
     11          6           0       -9.466754    2.758914   -2.556505
     12          6           0       -5.754262    4.032037   -2.473188
     13          6           0       -5.810781    5.185137   -3.479429
     14          1           0       -4.689458    6.109917   -3.548467
     15          7           0       -6.771586   -1.557666   -1.405120
     16          6           0       -7.160252   -1.142898   -2.634832
     17          6           0       -7.087519   -2.333743   -3.508490
     18          6           0       -6.807691   -3.514832   -2.645462
     19          6           0       -6.903334   -2.926350   -1.334005
     20          6           0       -7.226668   -2.270771   -4.998598
     21          6           0       -6.512866   -4.948828   -2.953465
     22          8           0       -6.529738   -5.855471   -2.052195
     23          6           0       -6.287756   -5.283349   -4.371373
     24          7           0       -7.131271   -1.975266    1.571731
     25          6           0       -7.201997   -3.250356    1.174080
     26          6           0       -7.282654   -4.183910    2.345366
     27          6           0       -7.006507   -3.292433    3.641037
     28          6           0       -6.889534   -1.908957    2.955048
     29          6           0       -8.612177   -4.932077    2.514560
     30          6           0       -5.860966   -3.750121    4.578414
     31          6           0       -4.530739   -3.598158    3.875206
     32          7           0       -6.543609    0.875128    1.941493
     33          6           0       -6.659004    0.518617    3.292884
     34          6           0       -6.636164    1.769526    4.073124
     35          6           0       -6.525022    2.774369    3.114071
     36          6           0       -6.507640    2.189859    1.815480
     37          6           0       -6.771490    1.873221    5.485699
     38          6           0       -6.441710    4.207379    2.882993
     39          8           0       -6.319910    5.196799    3.606670
     40          6           0       -6.645254    4.476633    1.326748
     41          6           0       -5.563440    5.423735    0.884045
     42          8           0       -4.366636    5.070193    0.878266
     43          8           0       -6.122711    6.503628    0.316956
     44          6           0       -5.103117    7.470282   -0.171061
     45          1           0       -8.117502    0.208792   -3.949269
     46          1           0       -7.126805   -4.664686   -0.180749
     47          1           0       -6.775738   -0.832856    4.782418
     48          1           0       -7.698202    4.553956   -1.633982
     49          1           0       -7.674178    2.755807   -3.805050
     50          1           0       -9.714810    3.399796   -1.710538
     51          1           0       -9.803680    1.738518   -2.372749
     52          1           0       -9.959767    3.076291   -3.475737
     53          1           0       -5.429901    3.226585   -3.132049
     54          1           0       -5.012891    4.258848   -1.706213
     55          1           0       -6.752069    5.730812   -3.407852
     56          1           0       -5.818767    4.761821   -4.483889
     57          1           0       -7.590239   -1.297582   -5.326111
     58          1           0       -8.021106   -2.964204   -5.273784
     59          1           0       -6.304028   -2.547499   -5.508979
     60          1           0       -7.170642   -5.010823   -4.949984
     61          1           0       -6.003217   -6.334782   -4.390762
     62          1           0       -5.470106   -4.671214   -4.753065
     63          1           0       -6.523131   -4.961776    2.278475
     64          1           0       -7.878293   -3.238058    4.293498
     65          1           0       -8.505060   -6.016949    2.531370
     66          1           0       -9.280266   -4.617444    1.713340
     67          1           0       -9.185529   -4.651255    3.397637
     68          1           0       -5.973411   -4.804735    4.827598
     69          1           0       -5.820447   -3.190944    5.513257
     70          1           0       -4.457939   -4.514978    3.291278
     71          1           0       -3.721046   -3.533369    4.602812
     72          1           0       -4.544755   -2.764640    3.172683
     73          1           0       -6.025340    2.597973    5.811219
     74          1           0       -6.623683    0.908009    5.969559
     75          1           0       -7.799385    2.226850    5.564659
     76          1           0       -7.639257    4.907414    1.210534
     77          1           0       -5.321082    8.430329    0.296951
     78          1           0       -5.125887    7.421394   -1.259866
     79          1           0       -4.079955    7.303779    0.167692
     80         12           0        6.566964   -1.108664   -0.203048
     81          6           0        7.480977    2.339441    0.189622
     82          6           0        4.846719   -0.179502   -2.998044
     83          6           0        5.376602   -4.047240   -0.326580
     84          6           0        7.369724   -1.560207    3.158106
     85          7           0        6.276686    0.855866   -1.177024
     86          6           0        6.722813    2.086091   -0.972465
     87          6           0        6.402342    3.085032   -2.116575
     88          6           0        5.121998    2.339038   -2.735524
     89          6           0        5.444665    0.907583   -2.311875
     90          6           0        3.812789    2.747297   -2.080820
     91          6           0        7.567354    3.189780   -3.162410
     92          6           0        7.456363    4.367738   -4.132897
     93          1           0        8.683286    5.030702   -4.566025
     94          7           0        5.716753   -2.087781   -1.705396
     95          6           0        5.082266   -1.553073   -2.769722
     96          6           0        4.617556   -2.692837   -3.575424
     97          6           0        4.885662   -3.944352   -2.816125
     98          6           0        5.327424   -3.394985   -1.549973
     99          6           0        4.061688   -2.536917   -4.961104
    100          6           0        4.752708   -5.395438   -3.166664
    101          8           0        4.814799   -6.312403   -2.273270
    102          6           0        4.454563   -5.705608   -4.572505
    103          7           0        6.194372   -2.541498    1.256576
    104          6           0        5.722705   -3.756947    0.927725
    105          6           0        5.794668   -4.705601    2.100437
    106          6           0        6.640351   -3.939880    3.221187
    107          6           0        6.843776   -2.586989    2.504460
    108          6           0        4.452055   -5.142375    2.686118
    109          6           0        7.888537   -4.672985    3.784458
    110          6           0        8.944712   -4.794052    2.709646
    111          7           0        7.465725    0.087415    1.355692
    112          6           0        7.685251   -0.287697    2.699267
    113          6           0        8.214645    0.899208    3.401716
    114          6           0        8.244961    1.896874    2.415697
    115          6           0        7.749157    1.374606    1.190578
    116          6           0        8.546643    0.968370    4.784153
    117          6           0        8.573675    3.276019    2.135342
    118          8           0        9.113047    4.185610    2.764205
    119          6           0        7.975125    3.659240    0.713635
    120          6           0        9.049210    4.365404   -0.067505
    121          8           0       10.080757    3.762015   -0.411652
    122          8           0        8.588392    5.565508   -0.464699
    123          6           0        9.614126    6.299408   -1.252803
    124          1           0        4.093297    0.036691   -3.756001
    125          1           0        5.080392   -5.098681   -0.340578
    126          1           0        7.736459   -1.646742    4.183141
    127          1           0        6.129526    4.080494   -1.787321
    128          1           0        5.102789    2.420829   -3.819170
    129          1           0        3.972376    3.385951   -1.224789
    130          1           0        3.333833    1.824588   -1.780401
    131          1           0        3.148579    3.205033   -2.819498
    132          1           0        7.488931    2.354870   -3.870589
    133          1           0        8.520055    3.215651   -2.670171
    134          1           0        6.716717    5.106643   -3.801386
    135          1           0        7.060080    3.999134   -5.082168
    136          1           0        3.832436   -1.488173   -5.186901
    137          1           0        3.086982   -3.036596   -4.972727
    138          1           0        4.699418   -2.988440   -5.724050
    139          1           0        3.524548   -5.220899   -4.859887
    140          1           0        4.485820   -6.794520   -4.644492
    141          1           0        5.241711   -5.273732   -5.200593
    142          1           0        6.314006   -5.616653    1.829569
    143          1           0        6.036539   -3.733238    4.117034
    144          1           0        4.316579   -6.240384    2.695809
    145          1           0        3.661948   -4.666724    2.120408
    146          1           0        4.254113   -4.793128    3.698069
    147          1           0        7.627892   -5.692324    4.079701
    148          1           0        8.319857   -4.186480    4.652942
    149          1           0        8.629391   -5.681418    2.152649
    150          1           0        9.928237   -4.935326    3.153229
    151          1           0        8.905431   -3.941684    2.021479
    152          1           0        9.487488    1.498142    4.852269
    153          1           0        8.614888   -0.023216    5.226734
    154          1           0        7.687867    1.528838    5.163164
    155          1           0        7.107008    4.296928    0.884755
    156          1           0        9.759832    7.267808   -0.764275
    157          1           0        9.239034    6.311564   -2.293432
    158          1           0       10.624224    5.906779   -1.249565
 ---------------------------------------------------------------------

 SCF Done:  E(RCAM-B3LYP) =  -4069.81164871     A.U. after   19 cycles

 Excitation energies and oscillator strengths:

 Excited State   1:      Singlet-A      1.6655 eV  744.43 nm  f=0.0366  <S**2>=0.000
     309 -> 315       -0.10952
     310 -> 316        0.13181
     311 -> 313       -0.43715
     312 -> 314        0.52949
 This state for optimization and/or second-order correction.
 Total Energy, E(TD-HF/TD-DFT) =  -4069.75044276
 Copying the excited state density for this state as the 1-particle RhoCI density.

 Excited State   2:      Singlet-A      1.6887 eV  734.18 nm  f=0.7116  <S**2>=0.000
     309 -> 315        0.13734
     310 -> 316        0.11255
     311 -> 313        0.52829
     312 -> 314        0.43624

 Excited State   3:      Singlet-A      2.1844 eV  567.59 nm  f=0.0414  <S**2>=0.000
     309 -> 313       -0.19591
     310 -> 314        0.61265
     312 -> 316       -0.25884

 Excited State   4:      Singlet-A      2.1934 eV  565.25 nm  f=0.1475  <S**2>=0.000
     309 -> 313        0.61013
     310 -> 314        0.19413
     311 -> 315       -0.26593

 Excited State   5:      Singlet-A      2.6372 eV  470.13 nm  f=0.0000  <S**2>=0.000
     312 -> 313        0.70707

 The electronic state is 1-A.
 Alpha  occ. eigenvalues --  -46.87894 -46.87556 -19.26397 -19.26255 -19.19135
 Alpha  occ. eigenvalues --  -19.19067 -19.18902 -19.18634 -19.18260 -19.17945
 Alpha  occ. eigenvalues --  -14.42551 -14.42390 -14.41541 -14.41256 -14.39500
 Alpha  occ. eigenvalues --  -14.39251 -14.38682 -14.38495 -10.39193 -10.38994
 Alpha  occ. eigenvalues --  -10.35536 -10.35314 -10.34481 -10.34121 -10.31797
 Alpha  occ. eigenvalues --  -10.31672 -10.31506 -10.31198 -10.31016 -10.30920
 Alpha  occ. eigenvalues --  -10.30667 -10.30598 -10.30296 -10.30296 -10.30258
 Alpha  occ. eigenvalues --  -10.30044 -10.30005 -10.29790 -10.29724 -10.29349
 Alpha  occ. eigenvalues --  -10.29339 -10.29306 -10.28873 -10.28706 -10.28608
 Alpha  occ. eigenvalues --  -10.28583 -10.28463 -10.28302 -10.28232 -10.28016
 Alpha  occ. eigenvalues --  -10.27900 -10.27886 -10.27827 -10.27680 -10.27598
 Alpha  occ. eigenvalues --  -10.27571 -10.27565 -10.27516 -10.27502 -10.27426
 Alpha  occ. eigenvalues --  -10.27414 -10.27379 -10.27374 -10.27281 -10.27258
 Alpha  occ. eigenvalues --  -10.26938 -10.26861 -10.26606 -10.26509 -10.26362
 Alpha  occ. eigenvalues --  -10.26337 -10.26243 -10.26109 -10.26059 -10.25917
 Alpha  occ. eigenvalues --  -10.25847 -10.25834 -10.25743 -10.25494 -10.25298
 Alpha  occ. eigenvalues --  -10.24926 -10.24877 -10.24769 -10.24743 -10.24658
 Alpha  occ. eigenvalues --  -10.24588  -3.16637  -3.16306  -1.91519  -1.91188
 Alpha  occ. eigenvalues --   -1.91105  -1.90947  -1.90777  -1.90614  -1.16746
 Alpha  occ. eigenvalues --   -1.16548  -1.08718  -1.08551  -1.07302  -1.06887
 Alpha  occ. eigenvalues --   -1.06851  -1.06756  -1.04682  -1.04389  -1.03854
 Alpha  occ. eigenvalues --   -1.03560  -1.03328  -1.02937  -1.02505  -1.02008
 Alpha  occ. eigenvalues --   -0.92070  -0.91881  -0.89601  -0.89399  -0.89306
 Alpha  occ. eigenvalues --   -0.89036  -0.88365  -0.88126  -0.87959  -0.87776
 Alpha  occ. eigenvalues --   -0.87690  -0.87583  -0.87374  -0.87041  -0.85097
 Alpha  occ. eigenvalues --   -0.84896  -0.84012  -0.83784  -0.83060  -0.82857
 Alpha  occ. eigenvalues --   -0.82756  -0.82554  -0.81689  -0.81499  -0.80697
 Alpha  occ. eigenvalues --   -0.80346  -0.78895  -0.78547  -0.77316  -0.77046
 Alpha  occ. eigenvalues --   -0.77040  -0.76798  -0.76028  -0.75730  -0.74979
 Alpha  occ. eigenvalues --   -0.74705  -0.72866  -0.72598  -0.71766  -0.71473
 Alpha  occ. eigenvalues --   -0.69979  -0.69669  -0.68982  -0.68726  -0.67737
 Alpha  occ. eigenvalues --   -0.67505  -0.67342  -0.67113  -0.65399  -0.65168
 Alpha  occ. eigenvalues --   -0.64950  -0.64720  -0.64670  -0.64554  -0.64352
 Alpha  occ. eigenvalues --   -0.64109  -0.62399  -0.62182  -0.60535  -0.60253
 Alpha  occ. eigenvalues --   -0.59914  -0.59687  -0.59081  -0.58892  -0.58598
 Alpha  occ. eigenvalues --   -0.58326  -0.57684  -0.57450  -0.57398  -0.57142
 Alpha  occ. eigenvalues --   -0.56406  -0.56109  -0.56089  -0.55793  -0.55617
 Alpha  occ. eigenvalues --   -0.55424  -0.55362  -0.55152  -0.54614  -0.54394
 Alpha  occ. eigenvalues --   -0.54013  -0.53802  -0.53393  -0.53330  -0.53135
 Alpha  occ. eigenvalues --   -0.53046  -0.53016  -0.52863  -0.52806  -0.52586
 Alpha  occ. eigenvalues --   -0.52509  -0.52317  -0.51998  -0.51779  -0.51732
 Alpha  occ. eigenvalues --   -0.51564  -0.51290  -0.51102  -0.50676  -0.50406
 Alpha  occ. eigenvalues --   -0.50114  -0.50016  -0.49881  -0.49776  -0.49620
 Alpha  occ. eigenvalues --   -0.49393  -0.49313  -0.49202  -0.49101  -0.48991
 Alpha  occ. eigenvalues --   -0.48692  -0.48545  -0.48537  -0.48454  -0.48281
 Alpha  occ. eigenvalues --   -0.48254  -0.47795  -0.47501  -0.47392  -0.47030
 Alpha  occ. eigenvalues --   -0.46891  -0.46672  -0.46611  -0.46452  -0.46452
 Alpha  occ. eigenvalues --   -0.46251  -0.46177  -0.45987  -0.45918  -0.45719
 Alpha  occ. eigenvalues --   -0.45280  -0.45111  -0.44674  -0.44608  -0.44414
 Alpha  occ. eigenvalues --   -0.44376  -0.44234  -0.44195  -0.44117  -0.44019
 Alpha  occ. eigenvalues --   -0.43991  -0.43850  -0.43593  -0.43486  -0.43457
 Alpha  occ. eigenvalues --   -0.43283  -0.43121  -0.42835  -0.42800  -0.42799
 Alpha  occ. eigenvalues --   -0.42737  -0.42463  -0.42099  -0.41871  -0.41799
 Alpha  occ. eigenvalues --   -0.41647  -0.41565  -0.41361  -0.41237  -0.40976
 Alpha  occ. eigenvalues --   -0.40923  -0.40879  -0.40654  -0.40638  -0.40603
 Alpha  occ. eigenvalues --   -0.40396  -0.40370  -0.40138  -0.39511  -0.39339
 Alpha  occ. eigenvalues --   -0.38554  -0.38254  -0.37877  -0.37562  -0.37406
 Alpha  occ. eigenvalues --   -0.37378  -0.37169  -0.37098  -0.36816  -0.36677
 Alpha  occ. eigenvalues --   -0.36290  -0.36119  -0.34382  -0.34150  -0.33882
 Alpha  occ. eigenvalues --   -0.33766  -0.33282  -0.33074  -0.31431  -0.31192
 Alpha  occ. eigenvalues --   -0.31131  -0.30870  -0.30119  -0.29848  -0.29545
 Alpha  occ. eigenvalues --   -0.29415  -0.29233  -0.29108  -0.24176  -0.23931
 Alpha  occ. eigenvalues --   -0.21223  -0.21015
 Alpha virt. eigenvalues --   -0.08869  -0.08692  -0.01843  -0.01583  -0.00155
 Alpha virt. eigenvalues --    0.00064   0.02110   0.02311   0.03009   0.03318
 Alpha virt. eigenvalues --    0.04608   0.04835   0.04987   0.05263   0.06041

 Mulliken charges:
               1
     1  Mg   0.838460
     2  C   -0.003190
     3  C   -0.094609
     4  C   -0.045646
     5  C   -0.063754
     6  N   -0.256775
     7  C   -0.052621
     8  C   -0.013929
     9  C   -0.086937
    10  C    0.046143
    11  C    0.104791
    12  C    0.053649
    13  C   -0.071523
    14  H    0.035276
    15  N   -0.433150
    16  C    0.168253
    17  C   -0.177477
    18  C   -0.004000
    19  C    0.148669
    20  C    0.110247
    21  C    0.012346
    22  O   -0.249092
    23  C    0.062576
    24  N   -0.341126
    25  C    0.041244
    26  C   -0.028264
    27  C   -0.024035
    28  C    0.074862
    29  C    0.076084
    30  C    0.035063
    31  C   -0.004535
    32  N   -0.310503
    33  C    0.080433
    34  C   -0.169522
    35  C    0.008451
    36  C    0.082988
    37  C    0.127278
    38  C    0.046205
    39  O   -0.188112
    40  C   -0.005384
    41  C    0.213005
    42  O   -0.257484
    43  O   -0.304673
    44  C    0.157675
    45  H   -0.017667
    46  H   -0.016511
    47  H   -0.041219
    48  H    0.001123
    49  H   -0.004401
    50  H    0.025630
    51  H    0.016638
    52  H    0.016685
    53  H    0.010490
    54  H    0.043814
    55  H    0.018375
    56  H    0.017626
    57  H    0.005684
    58  H    0.027068
    59  H    0.038755
    60  H    0.037371
    61  H    0.036057
    62  H    0.030701
    63  H    0.016884
    64  H    0.009622
    65  H    0.023490
    66  H    0.012522
    67  H    0.004883
    68  H    0.006632
    69  H    0.004777
    70  H    0.009182
    71  H    0.018157
    72  H    0.028748
    73  H    0.047792
    74  H    0.009280
    75  H    0.046195
    76  H    0.035315
    77  H    0.043351
    78  H    0.046101
    79  H    0.053496
    80  Mg   0.838184
    81  C   -0.016766
    82  C   -0.087709
    83  C   -0.045422
    84  C   -0.064712
    85  N   -0.254594
    86  C   -0.049388
    87  C   -0.015160
    88  C   -0.090654
    89  C    0.045985
    90  C    0.114432
    91  C    0.062591
    92  C   -0.077650
    93  H    0.034441
    94  N   -0.423491
    95  C    0.162988
    96  C   -0.174742
    97  C   -0.007896
    98  C    0.152135
    99  C    0.099545
   100  C    0.015548
   101  O   -0.253143
   102  C    0.061285
   103  N   -0.349962
   104  C    0.037572
   105  C   -0.019868
   106  C   -0.034804
   107  C    0.088979
   108  C    0.073630
   109  C    0.034755
   110  C   -0.007624
   111  N   -0.324176
   112  C    0.078627
   113  C   -0.162977
   114  C    0.002475
   115  C    0.096266
   116  C    0.131416
   117  C    0.042565
   118  O   -0.187791
   119  C    0.000841
   120  C    0.211162
   121  O   -0.251272
   122  O   -0.305411
   123  C    0.152132
   124  H   -0.019966
   125  H   -0.015635
   126  H   -0.040516
   127  H   -0.000292
   128  H   -0.005039
   129  H    0.023649
   130  H    0.015205
   131  H    0.016111
   132  H    0.013639
   133  H    0.037555
   134  H    0.020945
   135  H    0.019192
   136  H    0.008358
   137  H    0.025535
   138  H    0.039319
   139  H    0.037867
   140  H    0.036230
   141  H    0.033635
   142  H    0.014184
   143  H    0.012517
   144  H    0.024917
   145  H    0.012114
   146  H    0.005583
   147  H    0.006081
   148  H    0.003588
   149  H    0.010831
   150  H    0.017732
   151  H    0.030155
   152  H    0.045829
   153  H    0.008320
   154  H    0.047568
   155  H    0.035848
   156  H    0.043902
   157  H    0.049323
   158  H    0.053374
 Sum of Mulliken charges =  -0.00000

 Dipole moment (field-independent basis, Debye):
    X=             -5.5586    Y=             -0.9442    Z=             -6.7739  Tot=              8.8133
 Quadrupole moment (field-independent basis, Debye-Ang):
   XX=           -537.1178   YY=           -538.2865   ZZ=           -457.4300
   XY=            -13.0569   XZ=              8.9952   YZ=            -54.1402

 Normal termination of Gaussian 16 at Sat Sep 11 08:37:53 2021.
