 Gaussian 16, Revision A.03,
 Gaussian 16:  ES64L-G16RevA.03 25-Dec-2016

 -----------------------------------
 #p cam-b3lyp/Def2SVP td=(nstates=5)
 -----------------------------------

 --------------------------------
 TDDFT excited states in gaussian
 --------------------------------
 Symbolic Z-matrix:
 Charge =  0 Multiplicity = 1

                         Standard orientation:
 ---------------------------------------------------------------------
 Center     Atomic      Atomic             Coordinates (Angstroms)
 Number     Number       Type             X           Y           Z
 ---------------------------------------------------------------------
      1         12           0        6.713637   -0.391675   -0.198664
      2          6           0        6.686381    3.059771   -1.146816
      3          6           0        7.654593    0.626094    2.919318
      4          6           0        7.184989   -3.440455    0.535767
      5          6           0        6.887612   -1.169804   -3.591290
      6          7           0        7.088409    1.615894    0.655654
      7          6           0        6.984684    2.861542    0.203134
      8          6           0        7.148531    3.938990    1.316522
      9          6           0        7.991644    3.087758    2.368454
     10          6           0        7.525102    1.694913    1.983428
     11          6           0        9.499380    3.177043    2.155706
     12          6           0        5.773481    4.389501    1.914861
     13          6           0        5.816968    5.661052    2.767282
     14          1           0        4.685733    6.575051    2.719716
     15          7           0        6.851468   -1.279114    1.560968
     16          6           0        7.234870   -0.708128    2.728128
     17          6           0        7.174373   -1.779737    3.745317
     18          6           0        6.907800   -3.063352    3.038659
     19          6           0        6.997955   -2.644319    1.663282
     20          6           0        7.311884   -1.527481    5.215422
     21          6           0        6.628197   -4.450013    3.525614
     22          8           0        6.655383   -5.463044    2.746126
     23          6           0        6.405786   -4.605074    4.974590
     24          7           0        7.217522   -2.065654   -1.339509
     25          6           0        7.301686   -3.279440   -0.783969
     26          6           0        7.393115   -4.352602   -1.827953
     27          6           0        7.108237   -3.635017   -3.225690
     28          6           0        6.975973   -2.177281   -2.719940
     29          6           0        8.730705   -5.101834   -1.902210
     30          6           0        5.968278   -4.219760   -4.096889
     31          6           0        4.636046   -3.994443   -3.417560
     32          7           0        6.599516    0.708689   -2.066074
     33          6           0        6.719598    0.185526   -3.361665
     34          6           0        6.683823    1.327492   -4.293705
     35          6           0        6.561280    2.444221   -3.469238
     36          6           0        6.549346    2.028342   -2.107183
     37          6           0        6.818931    1.253301   -5.708158
     38          6           0        6.462433    3.893967   -3.421037
     39          8           0        6.330476    4.782641   -4.263853
     40          6           0        6.662077    4.359889   -1.911439
     41          6           0        5.569870    5.343672   -1.591184
     42          8           0        4.376929    4.980866   -1.539912
     43          8           0        6.117147    6.492510   -1.165508
     44          6           0        5.086918    7.502083   -0.802818
     45          1           0        8.176705    0.809025    3.860528
     46          1           0        7.240822   -4.511953    0.738777
     47          1           0        6.851794   -1.342009   -4.668562
     48          1           0        7.712240    4.822028    1.015025
     49          1           0        7.706142    3.312490    3.395930
     50          1           0        9.741080    3.708511    1.235356
     51          1           0        9.847364    2.145282    2.102123
     52          1           0        9.988367    3.613310    3.027107
     53          1           0        5.457369    3.670329    2.670456
     54          1           0        5.030208    4.509602    1.125908
     55          1           0        6.752387    6.203382    2.626643
     56          1           0        5.828858    5.368170    3.817176
     57          1           0        7.664772   -0.516860    5.417068
     58          1           0        8.113549   -2.172011    5.575454
     59          1           0        6.391943   -1.747385    5.757347
     60          1           0        7.285324   -4.252153    5.513487
     61          1           0        6.132545   -5.648622    5.126895
     62          1           0        5.581364   -3.958427    5.276461
     63          1           0        6.641948   -5.123888   -1.662754
     64          1           0        7.979807   -3.654171   -3.880422
     65          1           0        8.635258   -6.181221   -1.781716
     66          1           0        9.394863   -4.681322   -1.147654
     67          1           0        9.301573   -4.928716   -2.814107
     68          1           0        6.092204   -5.296139   -4.210889
     69          1           0        5.922354   -3.783666   -5.094869
     70          1           0        4.572725   -4.830853   -2.722405
     71          1           0        3.826170   -4.030815   -4.146935
     72          1           0        4.640660   -3.078730   -2.826007
     73          1           0        6.065247    1.923056   -6.122113
     74          1           0        6.681809    0.233152   -6.066062
     75          1           0        7.843018    1.605132   -5.831915
     76          1           0        7.651322    4.812548   -1.851311
     77          1           0        5.294858    8.397577   -1.388553
     78          1           0        5.109514    7.591422    0.283420
     79          1           0        4.065819    7.283133   -1.117076
     80         12           0       -6.488122   -1.129364    0.322559
     81          6           0       -8.120920    2.028091   -0.170883
     82          6           0       -4.333121    0.481788    2.418925
     83          6           0       -4.759631   -3.788053    0.428065
     84          6           0       -8.008050   -2.217747   -2.618694
     85          7           0       -6.347841    0.983331    0.962136
     86          6           0       -7.060439    2.080928    0.757561
     87          6           0       -6.661845    3.283132    1.654990
     88          6           0       -5.147597    2.853725    1.973619
     89          6           0       -5.283206    1.341111    1.811466
     90          6           0       -4.149931    3.356948    0.943673
     91          6           0       -7.523573    3.363618    2.963785
     92          6           0       -7.401981    4.680426    3.733857
     93          1           0       -8.584681    5.200487    4.414464
     94          7           0       -5.114260   -1.717007    1.628604
     95          6           0       -4.348151   -0.930327    2.413153
     96          6           0       -3.484130   -1.843520    3.177155
     97          6           0       -3.687317   -3.224095    2.660007
     98          6           0       -4.531243   -2.954458    1.513196
     99          6           0       -2.638383   -1.388801    4.330999
    100          6           0       -3.192205   -4.563849    3.114009
    101          8           0       -3.298536   -5.606453    2.376107
    102          6           0       -2.495580   -4.601228    4.408158
    103          7           0       -6.224965   -2.694269   -1.020639
    104          6           0       -5.459737   -3.754133   -0.705961
    105          6           0       -5.639598   -4.872521   -1.704587
    106          6           0       -6.871811   -4.433092   -2.624441
    107          6           0       -7.146091   -3.034682   -2.028941
    108          6           0       -4.429366   -5.177397   -2.587075
    109          6           0       -8.055342   -5.432381   -2.739958
    110          6           0       -8.762893   -5.550445   -1.409236
    111          7           0       -7.964208   -0.346563   -1.047278
    112          6           0       -8.437998   -0.955414   -2.230035
    113          6           0       -9.346490    0.009555   -2.882640
    114          6           0       -9.320091    1.130638   -2.039460
    115          6           0       -8.440490    0.889599   -0.949645
    116          6           0      -10.022687   -0.189819   -4.119225
    117          6           0       -9.828098    2.467190   -1.829122
    118          8           0      -10.673869    3.171563   -2.378916
    119          6           0       -8.976794    3.155897   -0.677012
    120          6           0       -9.935319    3.796191    0.289307
    121          8           0      -10.710098    3.098313    0.967023
    122          8           0       -9.630590    5.100877    0.412967
    123          6           0      -10.546877    5.776922    1.369627
    124          1           0       -3.469719    0.929097    2.912215
    125          1           0       -4.271750   -4.764500    0.472706
    126          1           0       -8.597094   -2.519009   -3.487571
    127          1           0       -6.678651    4.245912    1.158444
    128          1           0       -4.872424    3.104592    2.994750
    129          1           0       -4.640331    3.821806    0.101323
    130          1           0       -3.592828    2.486115    0.623793
    131          1           0       -3.422722    4.022739    1.417202
    132          1           0       -7.109384    2.671624    3.708321
    133          1           0       -8.555911    3.162139    2.753246
    134          1           0       -6.927042    5.466333    3.134084
    135          1           0       -6.715931    4.530733    4.571080
    136          1           0       -2.567098   -0.294851    4.370962
    137          1           0       -1.614488   -1.720454    4.127212
    138          1           0       -2.963690   -1.811465    5.283992
    139          1           0       -1.635147   -3.937166    4.374440
    140          1           0       -2.296387   -5.656900    4.602426
    141          1           0       -3.167466   -4.206876    5.178656
    142          1           0       -5.887585   -5.800944   -1.204952
    143          1           0       -6.564743   -4.275219   -3.668769
    144          1           0       -4.090870   -6.228307   -2.515790
    145          1           0       -3.629785   -4.501086   -2.315404
    146          1           0       -4.563983   -4.962524   -3.645805
    147          1           0       -7.685259   -6.431109   -2.984381
    148          1           0       -8.777106   -5.160721   -3.503012
    149          1           0       -8.151958   -6.279647   -0.868759
    150          1           0       -9.779838   -5.912258   -1.546857
    151          1           0       -8.717347   -4.606280   -0.854151
    152          1           0      -11.034508    0.167759   -3.981966
    153          1           0      -10.006935   -1.236235   -4.416784
    154          1           0       -9.412211    0.433507   -4.778050
    155          1           0       -8.320064    3.888258   -1.148101
    156          1           0      -10.995416    6.622544    0.839133
    157          1           0       -9.931593    6.009381    2.259090
    158          1           0      -11.429545    5.234101    1.686965
 ---------------------------------------------------------------------

 SCF Done:  E(RCAM-B3LYP) =  -4069.81168923     A.U. after   19 cycles

 Excitation energies and oscillator strengths:

 Excited State   1:      Singlet-A      1.6659 eV  744.26 nm  f=0.1036  <S**2>=0.000
     309 -> 315       -0.10912
     310 -> 316       -0.13229
     311 -> 313       -0.43535
     312 -> 314        0.53095
 This state for optimization and/or second-order correction.
 Total Energy, E(TD-HF/TD-DFT) =  -4069.75046989
 Copying the excited state density for this state as the 1-particle RhoCI density.

 Excited State   2:      Singlet-A      1.6879 eV  734.53 nm  f=0.6539  <S**2>=0.000
     309 -> 315        0.13768
     310 -> 316       -0.11191
     311 -> 313        0.52979
     312 -> 314        0.43448

 Excited State   3:      Singlet-A      2.1844 eV  567.59 nm  f=0.0403  <S**2>=0.000
     309 -> 313        0.20035
     310 -> 314        0.61126
     312 -> 316        0.25819

 Excited State   4:      Singlet-A      2.1935 eV  565.23 nm  f=0.1483  <S**2>=0.000
     309 -> 313        0.60871
     310 -> 314       -0.19857
     311 -> 315       -0.26537

 Excited State   5:      Singlet-A      2.6228 eV  472.72 nm  f=0.0000  <S**2>=0.000
     312 -> 313        0.70701

 The electronic state is 1-A.
 Alpha  occ. eigenvalues --  -46.87924 -46.87556 -19.26446 -19.26266 -19.19185
 Alpha  occ. eigenvalues --  -19.19076 -19.18927 -19.18630 -19.18295 -19.17953
 Alpha  occ. eigenvalues --  -14.42582 -14.42389 -14.41568 -14.41257 -14.39531
 Alpha  occ. eigenvalues --  -14.39250 -14.38713 -14.38497 -10.39240 -10.39004
 Alpha  occ. eigenvalues --  -10.35561 -10.35309 -10.34517 -10.34130 -10.31849
 Alpha  occ. eigenvalues --  -10.31684 -10.31539 -10.31197 -10.31049 -10.30918
 Alpha  occ. eigenvalues --  -10.30698 -10.30627 -10.30320 -10.30298 -10.30260
 Alpha  occ. eigenvalues --  -10.30042 -10.30029 -10.29793 -10.29754 -10.29379
 Alpha  occ. eigenvalues --  -10.29336 -10.29308 -10.28912 -10.28753 -10.28606
 Alpha  occ. eigenvalues --  -10.28585 -10.28496 -10.28303 -10.28267 -10.28008
 Alpha  occ. eigenvalues --  -10.27918 -10.27901 -10.27858 -10.27711 -10.27631
 Alpha  occ. eigenvalues --  -10.27581 -10.27560 -10.27534 -10.27526 -10.27427
 Alpha  occ. eigenvalues --  -10.27410 -10.27380 -10.27374 -10.27295 -10.27283
 Alpha  occ. eigenvalues --  -10.26949 -10.26909 -10.26607 -10.26537 -10.26367
 Alpha  occ. eigenvalues --  -10.26358 -10.26242 -10.26135 -10.26061 -10.25946
 Alpha  occ. eigenvalues --  -10.25835 -10.25828 -10.25755 -10.25503 -10.25300
 Alpha  occ. eigenvalues --  -10.24958 -10.24903 -10.24772 -10.24731 -10.24659
 Alpha  occ. eigenvalues --  -10.24588  -3.16668  -3.16306  -1.91549  -1.91188
 Alpha  occ. eigenvalues --   -1.91136  -1.90978  -1.90777  -1.90614  -1.16795
 Alpha  occ. eigenvalues --   -1.16560  -1.08755  -1.08561  -1.07326  -1.06882
 Alpha  occ. eigenvalues --   -1.06861  -1.06805  -1.04714  -1.04388  -1.03882
 Alpha  occ. eigenvalues --   -1.03560  -1.03357  -1.02938  -1.02534  -1.02009
 Alpha  occ. eigenvalues --   -0.92103  -0.91884  -0.89620  -0.89400  -0.89342
 Alpha  occ. eigenvalues --   -0.89031  -0.88382  -0.88127  -0.87990  -0.87807
 Alpha  occ. eigenvalues --   -0.87695  -0.87582  -0.87404  -0.87039  -0.85131
 Alpha  occ. eigenvalues --   -0.84893  -0.84026  -0.83786  -0.83084  -0.82855
 Alpha  occ. eigenvalues --   -0.82788  -0.82552  -0.81726  -0.81504  -0.80730
 Alpha  occ. eigenvalues --   -0.80349  -0.78925  -0.78547  -0.77344  -0.77071
 Alpha  occ. eigenvalues --   -0.77046  -0.76799  -0.76062  -0.75729  -0.74999
 Alpha  occ. eigenvalues --   -0.74707  -0.72895  -0.72599  -0.71794  -0.71472
 Alpha  occ. eigenvalues --   -0.69987  -0.69670  -0.69015  -0.68725  -0.67768
 Alpha  occ. eigenvalues --   -0.67507  -0.67379  -0.67113  -0.65434  -0.65168
 Alpha  occ. eigenvalues --   -0.64982  -0.64750  -0.64671  -0.64555  -0.64371
 Alpha  occ. eigenvalues --   -0.64110  -0.62437  -0.62188  -0.60562  -0.60253
 Alpha  occ. eigenvalues --   -0.59948  -0.59685  -0.59110  -0.58893  -0.58628
 Alpha  occ. eigenvalues --   -0.58328  -0.57722  -0.57458  -0.57424  -0.57145
 Alpha  occ. eigenvalues --   -0.56437  -0.56130  -0.56110  -0.55798  -0.55648
 Alpha  occ. eigenvalues --   -0.55447  -0.55363  -0.55156  -0.54641  -0.54399
 Alpha  occ. eigenvalues --   -0.54050  -0.53798  -0.53421  -0.53363  -0.53135
 Alpha  occ. eigenvalues --   -0.53050  -0.53046  -0.52895  -0.52808  -0.52582
 Alpha  occ. eigenvalues --   -0.52516  -0.52319  -0.52028  -0.51788  -0.51769
 Alpha  occ. eigenvalues --   -0.51563  -0.51319  -0.51105  -0.50705  -0.50403
 Alpha  occ. eigenvalues --   -0.50132  -0.50043  -0.49878  -0.49776  -0.49652
 Alpha  occ. eigenvalues --   -0.49391  -0.49347  -0.49236  -0.49102  -0.48991
 Alpha  occ. eigenvalues --   -0.48727  -0.48572  -0.48561  -0.48456  -0.48283
 Alpha  occ. eigenvalues --   -0.48252  -0.47824  -0.47500  -0.47420  -0.47029
 Alpha  occ. eigenvalues --   -0.46917  -0.46707  -0.46611  -0.46480  -0.46448
 Alpha  occ. eigenvalues --   -0.46279  -0.46178  -0.45991  -0.45952  -0.45725
 Alpha  occ. eigenvalues --   -0.45299  -0.45113  -0.44707  -0.44635  -0.44418
 Alpha  occ. eigenvalues --   -0.44374  -0.44260  -0.44224  -0.44149  -0.44017
 Alpha  occ. eigenvalues --   -0.43992  -0.43851  -0.43629  -0.43515  -0.43462
 Alpha  occ. eigenvalues --   -0.43284  -0.43150  -0.42842  -0.42841  -0.42803
 Alpha  occ. eigenvalues --   -0.42751  -0.42464  -0.42121  -0.41873  -0.41829
 Alpha  occ. eigenvalues --   -0.41679  -0.41568  -0.41360  -0.41266  -0.41005
 Alpha  occ. eigenvalues --   -0.40951  -0.40876  -0.40671  -0.40634  -0.40601
 Alpha  occ. eigenvalues --   -0.40411  -0.40396  -0.40137  -0.39516  -0.39340
 Alpha  occ. eigenvalues --   -0.38573  -0.38254  -0.37916  -0.37562  -0.37428
 Alpha  occ. eigenvalues --   -0.37414  -0.37169  -0.37097  -0.36855  -0.36685
 Alpha  occ. eigenvalues --   -0.36320  -0.36121  -0.34411  -0.34151  -0.33928
 Alpha  occ. eigenvalues --   -0.33774  -0.33313  -0.33074  -0.31455  -0.31187
 Alpha  occ. eigenvalues --   -0.31160  -0.30870  -0.30156  -0.29858  -0.29576
 Alpha  occ. eigenvalues --   -0.29446  -0.29232  -0.29112  -0.24206  -0.23931
 Alpha  occ. eigenvalues --   -0.21252  -0.21015
 Alpha virt. eigenvalues --   -0.08900  -0.08692  -0.01871  -0.01582  -0.00185
 Alpha virt. eigenvalues --    0.00067   0.02079   0.02306   0.02971   0.03313
 Alpha virt. eigenvalues --    0.04575   0.04837   0.04941   0.05254   0.05999

 Mulliken charges:
               1
     1  Mg   0.838204
     2  C   -0.003327
     3  C   -0.094746
     4  C   -0.045496
     5  C   -0.063669
     6  N   -0.256764
     7  C   -0.052669
     8  C   -0.013905
     9  C   -0.086898
    10  C    0.046048
    11  C    0.104766
    12  C    0.053683
    13  C   -0.071506
    14  H    0.035086
    15  N   -0.433133
    16  C    0.168143
    17  C   -0.177637
    18  C   -0.004075
    19  C    0.148620
    20  C    0.110262
    21  C    0.012262
    22  O   -0.248788
    23  C    0.062674
    24  N   -0.341126
    25  C    0.041222
    26  C   -0.028304
    27  C   -0.024069
    28  C    0.074963
    29  C    0.076054
    30  C    0.034995
    31  C   -0.004540
    32  N   -0.310499
    33  C    0.080451
    34  C   -0.169502
    35  C    0.008430
    36  C    0.082934
    37  C    0.127288
    38  C    0.046141
    39  O   -0.188200
    40  C   -0.005351
    41  C    0.213008
    42  O   -0.257731
    43  O   -0.304587
    44  C    0.157721
    45  H   -0.017626
    46  H   -0.016318
    47  H   -0.041111
    48  H    0.001157
    49  H   -0.004435
    50  H    0.025649
    51  H    0.016712
    52  H    0.016745
    53  H    0.010289
    54  H    0.043594
    55  H    0.018513
    56  H    0.017684
    57  H    0.005706
    58  H    0.027207
    59  H    0.038524
    60  H    0.037459
    61  H    0.036270
    62  H    0.030261
    63  H    0.017155
    64  H    0.009631
    65  H    0.023638
    66  H    0.012469
    67  H    0.004906
    68  H    0.006789
    69  H    0.004725
    70  H    0.009554
    71  H    0.018423
    72  H    0.028520
    73  H    0.047711
    74  H    0.009385
    75  H    0.046232
    76  H    0.035364
    77  H    0.043389
    78  H    0.046130
    79  H    0.053266
    80  Mg   0.838093
    81  C   -0.016834
    82  C   -0.087601
    83  C   -0.045385
    84  C   -0.064786
    85  N   -0.254631
    86  C   -0.049493
    87  C   -0.015137
    88  C   -0.090581
    89  C    0.045883
    90  C    0.114267
    91  C    0.062589
    92  C   -0.077630
    93  H    0.034353
    94  N   -0.423546
    95  C    0.162975
    96  C   -0.174398
    97  C   -0.007853
    98  C    0.152230
    99  C    0.099419
   100  C    0.015706
   101  O   -0.252975
   102  C    0.061288
   103  N   -0.349933
   104  C    0.037620
   105  C   -0.019884
   106  C   -0.034788
   107  C    0.088963
   108  C    0.073602
   109  C    0.034753
   110  C   -0.007619
   111  N   -0.324114
   112  C    0.078517
   113  C   -0.163123
   114  C    0.002331
   115  C    0.096221
   116  C    0.131470
   117  C    0.042421
   118  O   -0.188003
   119  C    0.000886
   120  C    0.211178
   121  O   -0.251243
   122  O   -0.305464
   123  C    0.152130
   124  H   -0.019380
   125  H   -0.015570
   126  H   -0.040589
   127  H   -0.000437
   128  H   -0.004968
   129  H    0.022924
   130  H    0.015747
   131  H    0.016828
   132  H    0.013615
   133  H    0.037505
   134  H    0.020979
   135  H    0.019215
   136  H    0.008534
   137  H    0.025849
   138  H    0.039029
   139  H    0.037885
   140  H    0.036389
   141  H    0.033408
   142  H    0.014208
   143  H    0.012479
   144  H    0.024890
   145  H    0.012155
   146  H    0.005596
   147  H    0.006083
   148  H    0.003555
   149  H    0.010840
   150  H    0.017709
   151  H    0.030158
   152  H    0.045791
   153  H    0.008341
   154  H    0.047246
   155  H    0.035512
   156  H    0.043838
   157  H    0.049381
   158  H    0.053379
 Sum of Mulliken charges =  -0.00000

 Dipole moment (field-independent basis, Debye):
    X=              6.2016    Y=              0.4855    Z=              5.8332  Tot=              8.5277
 Quadrupole moment (field-independent basis, Debye-Ang):
   XX=           -549.7600   YY=           -517.3725   ZZ=           -475.0225
   XY=             16.0499   XZ=             17.0877   YZ=             58.7311

 Normal termination of Gaussian 16 at Sat Sep 11 15:46:49 2021.
