 Gaussian 16, Revision A.03,
 Gaussian 16:  ES64L-G16RevA.03 25-Dec-2016

 -----------------------------------
 #p cam-b3lyp/Def2SVP td=(nstates=5)
 -----------------------------------

 --------------------------------
 TDDFT excited states in gaussian
 --------------------------------
 Symbolic Z-matrix:
 Charge =  0 Multiplicity = 1

                         Standard orientation:
 ---------------------------------------------------------------------
 Center     Atomic      Atomic             Coordinates (Angstroms)
 Number     Number       Type             X           Y           Z
 ---------------------------------------------------------------------
      1         12           0        5.113215    0.979497    0.454842
      2          6           0        5.943848   -2.067755   -1.229354
      3          6           0        5.710528    2.595864   -2.490263
      4          6           0        4.828249    3.719265    2.026176
      5          6           0        5.686040   -0.696077    3.456506
      6          7           0        5.740194    0.247112   -1.537934
      7          6           0        5.967662   -0.950799   -2.067499
      8          6           0        6.159557   -0.916626   -3.613262
      9          6           0        6.626209    0.599257   -3.775538
     10          6           0        5.957449    1.192030   -2.547815
     11          6           0        8.134693    0.788822   -3.652892
     12          6           0        4.824605   -1.190765   -4.384290
     13          6           0        4.982972   -1.497554   -5.876320
     14          1           0        4.084406   -2.462293   -6.492117
     15          7           0        4.774495    2.808647   -0.210239
     16          6           0        5.066690    3.289314   -1.442662
     17          6           0        4.622364    4.699720   -1.445946
     18          6           0        4.222079    5.053918   -0.055835
     19          6           0        4.622141    3.867440    0.656625
     20          6           0        4.562396    5.540629   -2.684100
     21          6           0        3.590368    6.273046    0.538135
     22          8           0        3.540518    6.466635    1.800915
     23          6           0        3.103974    7.289963   -0.411782
     24          7           0        5.449365    1.517502    2.443608
     25          6           0        5.192392    2.756821    2.876086
     26          6           0        5.236220    2.832643    4.373507
     27          6           0        5.338573    1.325044    4.889667
     28          6           0        5.422564    0.611162    3.517957
     29          6           0        6.387543    3.655065    4.968561
     30          6           0        4.264359    0.853853    5.901824
     31          6           0        2.911646    0.802018    5.227598
     32          7           0        5.535857   -1.063895    1.052307
     33          6           0        5.760564   -1.532114    2.354978
     34          6           0        6.112119   -2.959924    2.246193
     35          6           0        6.083503   -3.220738    0.877616
     36          6           0        5.761780   -2.024919    0.174194
     37          6           0        6.462058   -3.816699    3.326894
     38          6           0        6.274009   -4.225625   -0.155712
     39          8           0        6.466595   -5.442342   -0.157084
     40          6           0        6.310769   -3.491171   -1.568176
     41          6           0        5.403013   -4.248960   -2.498253
     42          8           0        4.169666   -4.273264   -2.309495
     43          8           0        6.093481   -4.623321   -3.586209
     44          6           0        5.243729   -5.354596   -4.563610
     45          1           0        6.095397    3.232670   -3.289196
     46          1           0        4.631247    4.616704    2.616286
     47          1           0        5.795228   -1.304139    4.356389
     48          1           0        6.932602   -1.586510   -3.990198
     49          1           0        6.225825    1.053528   -4.681658
     50          1           0        8.628335   -0.132878   -3.345145
     51          1           0        8.270254    1.563634   -2.898053
     52          1           0        8.550528    1.193687   -4.575899
     53          1           0        4.248420   -0.267508   -4.444856
     54          1           0        4.262475   -1.995112   -3.908515
     55          1           0        6.019002   -1.725364   -6.128616
     56          1           0        4.760948   -0.589599   -6.437143
     57          1           0        5.074397    5.062419   -3.518195
     58          1           0        5.145701    6.439827   -2.486848
     59          1           0        3.540113    5.815347   -2.944483
     60          1           0        3.934975    7.633104   -1.028418
     61          1           0        2.603461    8.048123    0.189493
     62          1           0        2.389358    6.825010   -1.091555
     63          1           0        4.327521    3.284669    4.768937
     64          1           0        6.284420    1.129169    5.395316
     65          1           0        6.056627    4.463434    5.621048
     66          1           0        6.988619    4.038705    4.144657
     67          1           0        7.124814    3.074938    5.522908
     68          1           0        4.184659    1.560953    6.726811
     69          1           0        4.473959   -0.128244    6.325857
     70          1           0        2.565684    1.832747    5.296446
     71          1           0        2.243637    0.129172    5.766350
     72          1           0        3.003625    0.559213    4.168792
     73          1           0        5.939115   -4.756939    3.152400
     74          1           0        6.182274   -3.379752    4.285226
     75          1           0        7.542243   -3.877208    3.195004
     76          1           0        7.347271   -3.508412   -1.903569
     77          1           0        5.723091   -6.315753   -4.749684
     78          1           0        5.103495   -4.686202   -5.413310
     79          1           0        4.266011   -5.678265   -4.204937
     80         12           0       -5.273409   -1.087847    0.362398
     81          6           0       -5.623962    1.818076   -1.714094
     82          6           0       -4.826849    1.032290    2.996830
     83          6           0       -4.514352   -3.608276    2.134031
     84          6           0       -4.610512   -2.907442   -2.535067
     85          7           0       -5.250587    1.119742    0.497693
     86          6           0       -5.456457    2.119465   -0.346410
     87          6           0       -5.564423    3.515364    0.323933
     88          6           0       -4.739665    3.202177    1.665779
     89          6           0       -4.977853    1.696091    1.753181
     90          6           0       -3.245794    3.442042    1.523796
     91          6           0       -7.048763    3.912694    0.641572
     92          6           0       -7.255909    5.383245    1.010798
     93          1           0       -8.486404    6.042021    0.581405
     94          7           0       -5.231855   -1.305826    2.334533
     95          6           0       -5.064282   -0.335264    3.257143
     96          6           0       -5.088743   -1.012714    4.562757
     97          6           0       -5.119326   -2.482011    4.328330
     98          6           0       -4.931249   -2.523761    2.892028
     99          6           0       -5.162041   -0.268524    5.864375
    100          6           0       -5.277239   -3.655836    5.246703
    101          8           0       -5.035548   -4.852792    4.857217
    102          6           0       -5.632759   -3.354180    6.641014
    103          7           0       -4.445574   -2.938165   -0.099481
    104          6           0       -4.268126   -3.872753    0.850777
    105          6           0       -3.919594   -5.210131    0.242211
    106          6           0       -4.137982   -5.035628   -1.332412
    107          6           0       -4.505222   -3.535984   -1.372307
    108          6           0       -2.500027   -5.711539    0.506384
    109          6           0       -5.088844   -6.048211   -2.027534
    110          6           0       -6.507470   -5.835193   -1.550554
    111          7           0       -5.315505   -0.698693   -1.762417
    112          6           0       -4.976474   -1.594037   -2.800447
    113          6           0       -5.049922   -0.838901   -4.068038
    114          6           0       -5.407020    0.459520   -3.674249
    115          6           0       -5.526574    0.514994   -2.259290
    116          6           0       -4.756261   -1.354680   -5.361817
    117          6           0       -5.699634    1.798420   -4.132954
    118          8           0       -5.837953    2.328439   -5.234627
    119          6           0       -5.729571    2.768575   -2.874262
    120          6           0       -6.966178    3.619223   -2.972772
    121          8           0       -8.095395    3.104986   -2.888793
    122          8           0       -6.612844    4.916839   -2.931376
    123          6           0       -7.806368    5.800216   -3.014789
    124          1           0       -4.450379    1.602173    3.846760
    125          1           0       -4.346812   -4.534544    2.688510
    126          1           0       -4.513660   -3.427362   -3.490571
    127          1           0       -5.090397    4.320541   -0.224484
    128          1           0       -5.174967    3.707502    2.523988
    129          1           0       -2.969557    3.671271    0.505324
    130          1           0       -2.768713    2.526541    1.848290
    131          1           0       -2.920072    4.216317    2.224325
    132          1           0       -7.352831    3.437902    1.583304
    133          1           0       -7.696060    3.649852   -0.172392
    134          1           0       -6.383058    5.998145    0.759860
    135          1           0       -7.334430    5.460327    2.097961
    136          1           0       -4.958088    0.800740    5.728426
    137          1           0       -4.333059   -0.626464    6.484485
    138          1           0       -6.100615   -0.440438    6.395589
    139          1           0       -4.873595   -2.708239    7.075622
    140          1           0       -5.788249   -4.323241    7.119157
    141          1           0       -6.570234   -2.786985    6.648157
    142          1           0       -4.583500   -5.985041    0.605318
    143          1           0       -3.195330   -5.143225   -1.888902
    144          1           0       -2.471417   -6.705176    0.992113
    145          1           0       -1.985851   -4.977218    1.112128
    146          1           0       -1.861171   -5.773901   -0.372919
    147          1           0       -4.819278   -7.070942   -1.752728
    148          1           0       -5.065702   -5.989037   -3.110570
    149          1           0       -6.538565   -6.394907   -0.610949
    150          1           0       -7.218041   -6.234422   -2.271487
    151          1           0       -6.688370   -4.780632   -1.312181
    152          1           0       -5.528080   -0.988342   -6.025585
    153          1           0       -4.718057   -2.442018   -5.357091
    154          1           0       -3.771754   -0.910083   -5.530180
    155          1           0       -4.818001    3.366869   -2.900043
    156          1           0       -7.644283    6.477365   -3.859115
    157          1           0       -7.908914    6.259174   -2.013499
    158          1           0       -8.750096    5.343103   -3.288429
 ---------------------------------------------------------------------

 SCF Done:  E(RCAM-B3LYP) =  -4069.81205828     A.U. after   19 cycles

 Excitation energies and oscillator strengths:

 Excited State   1:      Singlet-A      1.6667 eV  743.88 nm  f=0.1925  <S**2>=0.000
     309 -> 315       -0.10132
     310 -> 316       -0.13869
     311 -> 313       -0.40540
     312 -> 314        0.55401
 This state for optimization and/or second-order correction.
 Total Energy, E(TD-HF/TD-DFT) =  -4069.75080742
 Copying the excited state density for this state as the 1-particle RhoCI density.

 Excited State   2:      Singlet-A      1.6844 eV  736.05 nm  f=0.5136  <S**2>=0.000
     309 -> 315        0.14236
     310 -> 316       -0.10371
     311 -> 313        0.55295
     312 -> 314        0.40465

 Excited State   3:      Singlet-A      2.1838 eV  567.74 nm  f=0.0751  <S**2>=0.000
     309 -> 313        0.19328
     310 -> 314        0.61367
     312 -> 316        0.25856

 Excited State   4:      Singlet-A      2.1931 eV  565.34 nm  f=0.1189  <S**2>=0.000
     309 -> 313        0.61081
     310 -> 314       -0.19169
     311 -> 315       -0.26574

 Excited State   5:      Singlet-A      2.4845 eV  499.03 nm  f=0.0000  <S**2>=0.000
     312 -> 313        0.70709

 The electronic state is 1-A.
 Alpha  occ. eigenvalues --  -46.87886 -46.87496 -19.26369 -19.26302 -19.19113
 Alpha  occ. eigenvalues --  -19.19096 -19.18936 -19.18571 -19.18251 -19.17954
 Alpha  occ. eigenvalues --  -14.42533 -14.42338 -14.41545 -14.41175 -14.39494
 Alpha  occ. eigenvalues --  -14.39193 -14.38674 -14.38445 -10.39170 -10.39023
 Alpha  occ. eigenvalues --  -10.35569 -10.35250 -10.34470 -10.34133 -10.31763
 Alpha  occ. eigenvalues --  -10.31728 -10.31480 -10.31163 -10.30989 -10.30875
 Alpha  occ. eigenvalues --  -10.30651 -10.30604 -10.30309 -10.30240 -10.30217
 Alpha  occ. eigenvalues --  -10.30023 -10.29941 -10.29720 -10.29701 -10.29344
 Alpha  occ. eigenvalues --  -10.29271 -10.29260 -10.28807 -10.28596 -10.28570
 Alpha  occ. eigenvalues --  -10.28567 -10.28450 -10.28259 -10.28171 -10.27997
 Alpha  occ. eigenvalues --  -10.27877 -10.27859 -10.27805 -10.27675 -10.27629
 Alpha  occ. eigenvalues --  -10.27582 -10.27536 -10.27510 -10.27490 -10.27347
 Alpha  occ. eigenvalues --  -10.27334 -10.27324 -10.27248 -10.27240 -10.27085
 Alpha  occ. eigenvalues --  -10.26960 -10.26751 -10.26589 -10.26527 -10.26343
 Alpha  occ. eigenvalues --  -10.26296 -10.26283 -10.26113 -10.25912 -10.25911
 Alpha  occ. eigenvalues --  -10.25858 -10.25757 -10.25744 -10.25559 -10.24962
 Alpha  occ. eigenvalues --  -10.24916 -10.24888 -10.24882 -10.24737 -10.24538
 Alpha  occ. eigenvalues --  -10.24510  -3.16629  -3.16246  -1.91511  -1.91128
 Alpha  occ. eigenvalues --   -1.91097  -1.90940  -1.90716  -1.90554  -1.16719
 Alpha  occ. eigenvalues --   -1.16592  -1.08708  -1.08570  -1.07341  -1.06882
 Alpha  occ. eigenvalues --   -1.06823  -1.06733  -1.04663  -1.04342  -1.03854
 Alpha  occ. eigenvalues --   -1.03499  -1.03325  -1.02865  -1.02502  -1.01945
 Alpha  occ. eigenvalues --   -0.92057  -0.91851  -0.89636  -0.89304  -0.89248
 Alpha  occ. eigenvalues --   -0.89011  -0.88404  -0.87992  -0.87949  -0.87753
 Alpha  occ. eigenvalues --   -0.87660  -0.87521  -0.87363  -0.86983  -0.85053
 Alpha  occ. eigenvalues --   -0.84858  -0.84063  -0.83653  -0.83076  -0.82774
 Alpha  occ. eigenvalues --   -0.82731  -0.82512  -0.81671  -0.81489  -0.80685
 Alpha  occ. eigenvalues --   -0.80314  -0.78881  -0.78496  -0.77310  -0.77013
 Alpha  occ. eigenvalues --   -0.76996  -0.76744  -0.75998  -0.75710  -0.75006
 Alpha  occ. eigenvalues --   -0.74562  -0.72862  -0.72543  -0.71760  -0.71394
 Alpha  occ. eigenvalues --   -0.70044  -0.69531  -0.68949  -0.68689  -0.67733
 Alpha  occ. eigenvalues --   -0.67450  -0.67289  -0.67077  -0.65359  -0.65141
 Alpha  occ. eigenvalues --   -0.64945  -0.64713  -0.64621  -0.64513  -0.64380
 Alpha  occ. eigenvalues --   -0.64000  -0.62389  -0.62165  -0.60539  -0.60177
 Alpha  occ. eigenvalues --   -0.59873  -0.59658  -0.59079  -0.58829  -0.58595
 Alpha  occ. eigenvalues --   -0.58274  -0.57670  -0.57455  -0.57411  -0.57065
 Alpha  occ. eigenvalues --   -0.56393  -0.56072  -0.56061  -0.55786  -0.55612
 Alpha  occ. eigenvalues --   -0.55451  -0.55334  -0.55068  -0.54631  -0.54315
 Alpha  occ. eigenvalues --   -0.53958  -0.53776  -0.53394  -0.53303  -0.53077
 Alpha  occ. eigenvalues --   -0.53011  -0.53008  -0.52841  -0.52774  -0.52579
 Alpha  occ. eigenvalues --   -0.52539  -0.52198  -0.51992  -0.51766  -0.51687
 Alpha  occ. eigenvalues --   -0.51537  -0.51287  -0.51065  -0.50663  -0.50334
 Alpha  occ. eigenvalues --   -0.50148  -0.50009  -0.49832  -0.49637  -0.49596
 Alpha  occ. eigenvalues --   -0.49352  -0.49298  -0.49164  -0.49078  -0.48972
 Alpha  occ. eigenvalues --   -0.48675  -0.48571  -0.48542  -0.48435  -0.48213
 Alpha  occ. eigenvalues --   -0.48143  -0.47783  -0.47445  -0.47385  -0.46947
 Alpha  occ. eigenvalues --   -0.46890  -0.46623  -0.46544  -0.46452  -0.46407
 Alpha  occ. eigenvalues --   -0.46257  -0.46112  -0.45904  -0.45901  -0.45697
 Alpha  occ. eigenvalues --   -0.45314  -0.44960  -0.44663  -0.44601  -0.44384
 Alpha  occ. eigenvalues --   -0.44330  -0.44251  -0.44161  -0.44105  -0.43993
 Alpha  occ. eigenvalues --   -0.43908  -0.43817  -0.43582  -0.43471  -0.43439
 Alpha  occ. eigenvalues --   -0.43225  -0.43116  -0.42840  -0.42811  -0.42764
 Alpha  occ. eigenvalues --   -0.42742  -0.42353  -0.42117  -0.41796  -0.41794
 Alpha  occ. eigenvalues --   -0.41605  -0.41523  -0.41308  -0.41226  -0.40957
 Alpha  occ. eigenvalues --   -0.40929  -0.40815  -0.40679  -0.40584  -0.40549
 Alpha  occ. eigenvalues --   -0.40290  -0.40277  -0.40111  -0.39587  -0.39205
 Alpha  occ. eigenvalues --   -0.38579  -0.38124  -0.37812  -0.37526  -0.37426
 Alpha  occ. eigenvalues --   -0.37334  -0.37086  -0.37047  -0.36810  -0.36672
 Alpha  occ. eigenvalues --   -0.36290  -0.36034  -0.34374  -0.34094  -0.33864
 Alpha  occ. eigenvalues --   -0.33779  -0.33277  -0.33015  -0.31466  -0.31127
 Alpha  occ. eigenvalues --   -0.31126  -0.30812  -0.30110  -0.29862  -0.29540
 Alpha  occ. eigenvalues --   -0.29407  -0.29184  -0.29074  -0.24169  -0.23874
 Alpha  occ. eigenvalues --   -0.21216  -0.20955
 Alpha virt. eigenvalues --   -0.08863  -0.08641  -0.01845  -0.01511  -0.00152
 Alpha virt. eigenvalues --    0.00110   0.02110   0.02340   0.03012   0.03385
 Alpha virt. eigenvalues --    0.04642   0.04887   0.05010   0.05238   0.06120

 Mulliken charges:
               1
     1  Mg   0.838723
     2  C   -0.002954
     3  C   -0.093488
     4  C   -0.046387
     5  C   -0.063975
     6  N   -0.256794
     7  C   -0.052284
     8  C   -0.014081
     9  C   -0.087095
    10  C    0.046285
    11  C    0.104738
    12  C    0.053305
    13  C   -0.071963
    14  H    0.036058
    15  N   -0.433125
    16  C    0.168290
    17  C   -0.176803
    18  C   -0.004296
    19  C    0.148572
    20  C    0.109995
    21  C    0.011601
    22  O   -0.250566
    23  C    0.062614
    24  N   -0.341058
    25  C    0.041259
    26  C   -0.028059
    27  C   -0.023920
    28  C    0.074635
    29  C    0.076172
    30  C    0.035252
    31  C   -0.004389
    32  N   -0.310520
    33  C    0.080431
    34  C   -0.169507
    35  C    0.008420
    36  C    0.082969
    37  C    0.127307
    38  C    0.046092
    39  O   -0.188271
    40  C   -0.005319
    41  C    0.213017
    42  O   -0.257625
    43  O   -0.304575
    44  C    0.157851
    45  H   -0.017159
    46  H   -0.017388
    47  H   -0.041458
    48  H    0.001046
    49  H   -0.003477
    50  H    0.025482
    51  H    0.016382
    52  H    0.017029
    53  H    0.011730
    54  H    0.043720
    55  H    0.017935
    56  H    0.018675
    57  H    0.006451
    58  H    0.026895
    59  H    0.040188
    60  H    0.037987
    61  H    0.034931
    62  H    0.031596
    63  H    0.015516
    64  H    0.009708
    65  H    0.022825
    66  H    0.012889
    67  H    0.004956
    68  H    0.005849
    69  H    0.005246
    70  H    0.007153
    71  H    0.017753
    72  H    0.029648
    73  H    0.047857
    74  H    0.009161
    75  H    0.046127
    76  H    0.035404
    77  H    0.043117
    78  H    0.046725
    79  H    0.052963
    80  Mg   0.838189
    81  C   -0.017241
    82  C   -0.088104
    83  C   -0.045189
    84  C   -0.063700
    85  N   -0.254655
    86  C   -0.049991
    87  C   -0.015072
    88  C   -0.090413
    89  C    0.045841
    90  C    0.114388
    91  C    0.062579
    92  C   -0.077666
    93  H    0.034246
    94  N   -0.423602
    95  C    0.163229
    96  C   -0.174753
    97  C   -0.007668
    98  C    0.152290
    99  C    0.099466
   100  C    0.015443
   101  O   -0.252662
   102  C    0.061281
   103  N   -0.350058
   104  C    0.038475
   105  C   -0.020560
   106  C   -0.034710
   107  C    0.089076
   108  C    0.072295
   109  C    0.034601
   110  C   -0.007551
   111  N   -0.323988
   112  C    0.078312
   113  C   -0.163273
   114  C    0.001671
   115  C    0.096312
   116  C    0.131663
   117  C    0.041769
   118  O   -0.189275
   119  C    0.001146
   120  C    0.211177
   121  O   -0.250982
   122  O   -0.305923
   123  C    0.152141
   124  H   -0.019633
   125  H   -0.014928
   126  H   -0.040418
   127  H   -0.001421
   128  H   -0.004478
   129  H    0.021336
   130  H    0.014946
   131  H    0.017670
   132  H    0.013937
   133  H    0.037421
   134  H    0.020607
   135  H    0.019703
   136  H    0.008729
   137  H    0.025722
   138  H    0.039499
   139  H    0.037889
   140  H    0.036264
   141  H    0.033673
   142  H    0.013792
   143  H    0.014584
   144  H    0.024984
   145  H    0.013239
   146  H    0.010373
   147  H    0.006736
   148  H    0.003113
   149  H    0.010901
   150  H    0.017228
   151  H    0.029619
   152  H    0.045305
   153  H    0.008660
   154  H    0.046251
   155  H    0.033811
   156  H    0.043207
   157  H    0.049598
   158  H    0.053530
 Sum of Mulliken charges =  -0.00000

 Dipole moment (field-independent basis, Debye):
    X=              3.3023    Y=              4.6395    Z=              1.2037  Tot=              5.8206
 Quadrupole moment (field-independent basis, Debye-Ang):
   XX=           -521.8571   YY=           -520.7758   ZZ=           -476.8579
   XY=             11.9672   XZ=            -43.6563   YZ=             18.1147

 Normal termination of Gaussian 16 at Sat Sep  4 03:38:53 2021.
