 Gaussian 16, Revision A.03,
 Gaussian 16:  ES64L-G16RevA.03 25-Dec-2016

 -----------------------------------
 #p cam-b3lyp/Def2SVP td=(nstates=5)
 -----------------------------------

 --------------------------------
 TDDFT excited states in gaussian
 --------------------------------
 Symbolic Z-matrix:
 Charge =  0 Multiplicity = 1

                         Standard orientation:
 ---------------------------------------------------------------------
 Center     Atomic      Atomic             Coordinates (Angstroms)
 Number     Number       Type             X           Y           Z
 ---------------------------------------------------------------------
      1         12           0        8.162760    0.447498    0.824234
      2          6           0        8.526855   -2.497522   -1.177391
      3          6           0        9.280994    2.230810   -1.861360
      4          6           0        8.283066    2.997719    2.705329
      5          6           0        8.174248   -1.631052    3.621582
      6          7           0        8.790783   -0.168411   -1.207241
      7          6           0        8.826750   -1.321270   -1.868144
      8          6           0        9.140049   -1.154234   -3.385154
      9          6           0        9.897104    0.247957   -3.332939
     10          6           0        9.260571    0.821121   -2.079052
     11          6           0       11.400142    0.120794   -3.106643
     12          6           0        7.840716   -1.071730   -4.255014
     13          6           0        8.052325   -1.236116   -5.762844
     14          1           0        7.037053   -1.929726   -6.540967
     15          7           0        8.229708    2.369833    0.373682
     16          6           0        8.701834    2.917109   -0.772124
     17          6           0        8.534970    4.378976   -0.624533
     18          6           0        8.103419    4.648675    0.775153
     19          6           0        8.214884    3.334888    1.355598
     20          6           0        8.731240    5.347358   -1.750350
     21          6           0        7.670854    5.894949    1.480718
     22          8           0        7.561614    5.953096    2.753219
     23          6           0        7.460974    7.087029    0.639328
     24          7           0        8.440840    0.684161    2.879543
     25          6           0        8.391329    1.893965    3.447793
     26          6           0        8.333357    1.792836    4.943236
     27          6           0        8.107570    0.246938    5.273345
     28          6           0        8.159827   -0.312603    3.830275
     29          6           0        9.570602    2.300177    5.696790
     30          6           0        6.888767   -0.112070    6.159942
     31          6           0        5.606806    0.179708    5.412588
     32          7           0        8.142481   -1.692579    1.185762
     33          6           0        8.173250   -2.337704    2.430567
     34          6           0        8.254633   -3.785738    2.164779
     35          6           0        8.282452   -3.882099    0.774892
     36          6           0        8.248743   -2.575702    0.208780
     37          6           0        8.351290   -4.809400    3.148246
     38          6           0        8.357667   -4.783703   -0.363225
     39          8           0        8.315264   -6.006649   -0.504991
     40          6           0        8.641820   -3.918764   -1.669733
     41          6           0        7.681035   -4.374089   -2.734102
     42          8           0        6.454705   -4.174940   -2.616545
     43          8           0        8.369527   -4.754343   -3.821267
     44          6           0        7.474193   -5.190054   -4.926115
     45          1           0        9.840104    2.863695   -2.553310
     46          1           0        8.215208    3.845185    3.390628
     47          1           0        8.096402   -2.344810    4.443740
     48          1           0        9.798525   -1.917608   -3.799994
     49          1           0        9.661213    0.870179   -4.196024
     50          1           0       11.684627   -0.908657   -2.889342
     51          1           0       11.621831    0.764796   -2.255403
     52          1           0       11.955075    0.535437   -3.948603
     53          1           0        7.456707   -0.051900   -4.231656
     54          1           0        7.101170   -1.796862   -3.913573
     55          1           0        9.042547   -1.634755   -5.985233
     56          1           0        8.050568   -0.245632   -6.217967
     57          1           0        9.205790    4.873039   -2.608469
     58          1           0        9.457713    6.085934   -1.412043
     59          1           0        7.802843    5.845908   -2.029385
     60          1           0        8.386964    7.325465    0.115650
     61          1           0        7.068741    7.857595    1.302074
     62          1           0        6.725565    6.850936   -0.130336
     63          1           0        7.499318    2.368785    5.342093
     64          1           0        8.957241   -0.186954    5.801048
     65          1           0        9.349959    3.080433    6.425639
     66          1           0       10.295188    2.646526    4.960374
     67          1           0       10.139418    1.527858    6.213886
     68          1           0        6.881506    0.500740    7.060696
     69          1           0        6.874818   -1.157117    6.469672
     70          1           0        5.458580    1.244331    5.589898
     71          1           0        4.783746   -0.403413    5.827020
     72          1           0        5.732237    0.042644    4.338360
     73          1           0        7.674355   -5.602408    2.830654
     74          1           0        8.086633   -4.434969    4.136861
     75          1           0        9.407227   -5.067196    3.068272
     76          1           0        9.678879   -4.103180   -1.948335
     77          1           0        7.775222   -6.200265   -5.203765
     78          1           0        7.529244   -4.416974   -5.692745
     79          1           0        6.428153   -5.351874   -4.663526
     80         12           0       -7.656953    0.519030   -0.535501
     81          6           0      -10.178197   -1.725803    0.682334
     82          6           0      -10.127975    2.834478   -0.944599
     83          6           0       -5.547872    2.360294   -2.028452
     84          6           0       -5.645483   -2.269647   -1.103801
     85          7           0       -9.832855    0.445597   -0.145202
     86          6           0      -10.669191   -0.439595    0.375701
     87          6           0      -12.094512    0.108548    0.654203
     88          6           0      -12.099728    1.314643   -0.406081
     89          6           0      -10.597405    1.578724   -0.483283
     90          6           0      -12.583467    0.900808   -1.785956
     91          6           0      -12.255999    0.634767    2.123566
     92          6           0      -13.699759    0.897326    2.557582
     93          1           0      -14.070751    0.623563    3.943182
     94          7           0       -7.692079    2.467317   -0.911674
     95          6           0       -8.782133    3.255411   -1.021102
     96          6           0       -8.275575    4.602886   -1.324223
     97          6           0       -6.807020    4.512686   -1.547606
     98          6           0       -6.624681    3.075216   -1.524551
     99          6           0       -9.147809    5.824403   -1.300866
    100          6           0       -5.744775    5.548202   -1.761059
    101          8           0       -4.571833    5.234833   -2.171940
    102          6           0       -6.145828    6.948941   -1.564635
    103          7           0       -5.942004    0.095425   -1.631777
    104          6           0       -5.177132    1.083607   -2.128158
    105          6           0       -3.859456    0.550067   -2.637537
    106          6           0       -3.798775   -0.974247   -2.157579
    107          6           0       -5.192442   -1.088768   -1.501869
    108          6           0       -3.655746    0.615301   -4.151019
    109          6           0       -2.555515   -1.402858   -1.330977
    110          6           0       -2.568232   -0.714490    0.014902
    111          7           0       -7.770232   -1.594693   -0.102566
    112          6           0       -6.830047   -2.588587   -0.452291
    113          6           0       -7.399588   -3.889329   -0.044707
    114          6           0       -8.651499   -3.561536    0.497278
    115          6           0       -8.856872   -2.157853    0.413683
    116          6           0       -6.790689   -5.161330   -0.238055
    117          6           0       -9.850487   -4.084938    1.111435
    118          8           0      -10.208881   -5.191247    1.513132
    119          6           0      -10.945838   -2.933601    1.143409
    120          6           0      -11.543415   -2.899198    2.523344
    121          8           0      -10.849871   -2.578775    3.504636
    122          8           0      -12.878482   -3.037236    2.428952
    123          6           0      -13.517551   -2.998304    3.771296
    124          1           0      -10.855274    3.552676   -1.324200
    125          1           0       -4.741092    2.961002   -2.454752
    126          1           0       -5.038637   -3.176033   -1.157489
    127          1           0      -12.898422   -0.583561    0.434011
    128          1           0      -12.619984    2.184105   -0.012721
    129          1           0      -12.732414   -0.166374   -1.857385
    130          1           0      -11.814444    1.222508   -2.476005
    131          1           0      -13.483038    1.462224   -2.054120
    132          1           0      -11.852979    1.653837    2.185264
    133          1           0      -11.784464   -0.030506    2.820491
    134          1           0      -14.425429    0.447160    1.869328
    135          1           0      -13.893584    1.970408    2.487172
    136          1           0      -10.211611    5.558507   -1.268854
    137          1           0       -9.022059    6.325615   -2.266708
    138          1           0       -8.877081    6.520119   -0.503781
    139          1           0       -6.965108    7.187901   -2.238535
    140          1           0       -5.230253    7.533259   -1.674873
    141          1           0       -6.532993    7.062426   -0.545890
    142          1           0       -3.028575    1.089656   -2.199836
    143          1           0       -3.794254   -1.669832   -3.009631
    144          1           0       -2.749977    1.178211   -4.445642
    145          1           0       -4.538409    1.055529   -4.595578
    146          1           0       -3.601741   -0.349866   -4.651754
    147          1           0       -1.638673   -1.084992   -1.833501
    148          1           0       -2.485341   -2.475003   -1.180802
    149          1           0       -2.130806    0.264130   -0.204309
    150          1           0       -1.963595   -1.265263    0.732594
    151          1           0       -3.594581   -0.546651    0.361426
    152          1           0       -6.929516   -5.715822    0.680512
    153          1           0       -5.736502   -5.063488   -0.488833
    154          1           0       -7.380099   -5.533721   -1.080183
    155          1           0      -11.689670   -3.167821    0.380898
    156          1           0      -14.104646   -3.916338    3.872384
    157          1           0      -14.069439   -2.040427    3.811751
    158          1           0      -12.869297   -3.065419    4.637152
 ---------------------------------------------------------------------

 SCF Done:  E(RCAM-B3LYP) =  -4069.81190957     A.U. after   19 cycles

 Excitation energies and oscillator strengths:

 Excited State   1:      Singlet-A      1.6693 eV  742.71 nm  f=0.0201  <S**2>=0.000
     309 -> 315       -0.10222
     310 -> 316        0.13879
     311 -> 313       -0.40554
     312 -> 314        0.55376
 This state for optimization and/or second-order correction.
 Total Energy, E(TD-HF/TD-DFT) =  -4069.75056236
 Copying the excited state density for this state as the 1-particle RhoCI density.

 Excited State   2:      Singlet-A      1.6853 eV  735.66 nm  f=0.7360  <S**2>=0.000
     309 -> 315        0.14287
     310 -> 316        0.10403
     311 -> 313        0.55294
     312 -> 314        0.40501

 Excited State   3:      Singlet-A      2.1855 eV  567.30 nm  f=0.0980  <S**2>=0.000
     310 -> 314        0.64068
     312 -> 316       -0.27198

 Excited State   4:      Singlet-A      2.1931 eV  565.33 nm  f=0.1027  <S**2>=0.000
     309 -> 313        0.63882
     311 -> 315       -0.27768

 Excited State   5:      Singlet-A      2.7885 eV  444.63 nm  f=0.0000  <S**2>=0.000
     312 -> 313        0.70698

 The electronic state is 1-A.
 Alpha  occ. eigenvalues --  -46.87763 -46.87579 -19.26290 -19.26288 -19.19097
 Alpha  occ. eigenvalues --  -19.19026 -19.18762 -19.18656 -19.18145 -19.17978
 Alpha  occ. eigenvalues --  -14.42420 -14.42418 -14.41414 -14.41271 -14.39367
 Alpha  occ. eigenvalues --  -14.39274 -14.38555 -14.38518 -10.39082 -10.39026
 Alpha  occ. eigenvalues --  -10.35394 -10.35335 -10.34366 -10.34155 -10.31702
 Alpha  occ. eigenvalues --  -10.31690 -10.31377 -10.31231 -10.30954 -10.30878
 Alpha  occ. eigenvalues --  -10.30538 -10.30472 -10.30314 -10.30278 -10.30165
 Alpha  occ. eigenvalues --  -10.30048 -10.29885 -10.29801 -10.29594 -10.29358
 Alpha  occ. eigenvalues --  -10.29321 -10.29215 -10.28729 -10.28658 -10.28605
 Alpha  occ. eigenvalues --  -10.28535 -10.28332 -10.28331 -10.28093 -10.28078
 Alpha  occ. eigenvalues --  -10.27922 -10.27758 -10.27694 -10.27593 -10.27545
 Alpha  occ. eigenvalues --  -10.27454 -10.27432 -10.27409 -10.27407 -10.27404
 Alpha  occ. eigenvalues --  -10.27390 -10.27382 -10.27373 -10.27263 -10.27140
 Alpha  occ. eigenvalues --  -10.26981 -10.26697 -10.26636 -10.26374 -10.26341
 Alpha  occ. eigenvalues --  -10.26209 -10.26129 -10.25982 -10.25970 -10.25940
 Alpha  occ. eigenvalues --  -10.25837 -10.25808 -10.25744 -10.25390 -10.25303
 Alpha  occ. eigenvalues --  -10.24800 -10.24795 -10.24751 -10.24629 -10.24607
 Alpha  occ. eigenvalues --  -10.24544  -3.16506  -3.16329  -1.91388  -1.91211
 Alpha  occ. eigenvalues --   -1.90974  -1.90816  -1.90800  -1.90637  -1.16636
 Alpha  occ. eigenvalues --   -1.16583  -1.08605  -1.08585  -1.07162  -1.06910
 Alpha  occ. eigenvalues --   -1.06882  -1.06647  -1.04550  -1.04419  -1.03725
 Alpha  occ. eigenvalues --   -1.03582  -1.03199  -1.02953  -1.02377  -1.02029
 Alpha  occ. eigenvalues --   -0.91944  -0.91910  -0.89479  -0.89385  -0.89165
 Alpha  occ. eigenvalues --   -0.89084  -0.88245  -0.88106  -0.87836  -0.87707
 Alpha  occ. eigenvalues --   -0.87641  -0.87605  -0.87229  -0.87053  -0.84956
 Alpha  occ. eigenvalues --   -0.84931  -0.83895  -0.83757  -0.82915  -0.82858
 Alpha  occ. eigenvalues --   -0.82619  -0.82582  -0.81568  -0.81522  -0.80568
 Alpha  occ. eigenvalues --   -0.80369  -0.78757  -0.78560  -0.77184  -0.77064
 Alpha  occ. eigenvalues --   -0.76911  -0.76814  -0.75899  -0.75768  -0.74861
 Alpha  occ. eigenvalues --   -0.74707  -0.72739  -0.72613  -0.71640  -0.71501
 Alpha  occ. eigenvalues --   -0.69860  -0.69619  -0.68844  -0.68756  -0.67607
 Alpha  occ. eigenvalues --   -0.67524  -0.67193  -0.67137  -0.65263  -0.65201
 Alpha  occ. eigenvalues --   -0.64825  -0.64685  -0.64592  -0.64575  -0.64230
 Alpha  occ. eigenvalues --   -0.64092  -0.62282  -0.62201  -0.60399  -0.60262
 Alpha  occ. eigenvalues --   -0.59777  -0.59727  -0.58955  -0.58909  -0.58472
 Alpha  occ. eigenvalues --   -0.58342  -0.57566  -0.57481  -0.57273  -0.57146
 Alpha  occ. eigenvalues --   -0.56276  -0.56124  -0.55967  -0.55818  -0.55482
 Alpha  occ. eigenvalues --   -0.55386  -0.55307  -0.55148  -0.54498  -0.54388
 Alpha  occ. eigenvalues --   -0.53872  -0.53847  -0.53261  -0.53190  -0.53146
 Alpha  occ. eigenvalues --   -0.53071  -0.52891  -0.52826  -0.52714  -0.52610
 Alpha  occ. eigenvalues --   -0.52391  -0.52247  -0.51882  -0.51790  -0.51596
 Alpha  occ. eigenvalues --   -0.51589  -0.51166  -0.51113  -0.50519  -0.50411
 Alpha  occ. eigenvalues --   -0.49987  -0.49908  -0.49877  -0.49762  -0.49482
 Alpha  occ. eigenvalues --   -0.49422  -0.49184  -0.49133  -0.49070  -0.49031
 Alpha  occ. eigenvalues --   -0.48569  -0.48487  -0.48423  -0.48405  -0.48280
 Alpha  occ. eigenvalues --   -0.48277  -0.47661  -0.47517  -0.47261  -0.47043
 Alpha  occ. eigenvalues --   -0.46763  -0.46619  -0.46532  -0.46485  -0.46325
 Alpha  occ. eigenvalues --   -0.46183  -0.46132  -0.45997  -0.45799  -0.45741
 Alpha  occ. eigenvalues --   -0.45161  -0.45113  -0.44551  -0.44467  -0.44444
 Alpha  occ. eigenvalues --   -0.44394  -0.44106  -0.44060  -0.44055  -0.43986
 Alpha  occ. eigenvalues --   -0.43977  -0.43874  -0.43474  -0.43472  -0.43354
 Alpha  occ. eigenvalues --   -0.43309  -0.42995  -0.42858  -0.42819  -0.42687
 Alpha  occ. eigenvalues --   -0.42618  -0.42443  -0.41974  -0.41856  -0.41673
 Alpha  occ. eigenvalues --   -0.41589  -0.41507  -0.41377  -0.41109  -0.40912
 Alpha  occ. eigenvalues --   -0.40838  -0.40777  -0.40660  -0.40617  -0.40532
 Alpha  occ. eigenvalues --   -0.40378  -0.40215  -0.40169  -0.39392  -0.39282
 Alpha  occ. eigenvalues --   -0.38430  -0.38246  -0.37729  -0.37587  -0.37282
 Alpha  occ. eigenvalues --   -0.37239  -0.37165  -0.37126  -0.36702  -0.36697
 Alpha  occ. eigenvalues --   -0.36169  -0.36125  -0.34253  -0.34171  -0.33795
 Alpha  occ. eigenvalues --   -0.33769  -0.33155  -0.33094  -0.31293  -0.31214
 Alpha  occ. eigenvalues --   -0.31002  -0.30894  -0.30006  -0.29882  -0.29411
 Alpha  occ. eigenvalues --   -0.29289  -0.29253  -0.29132  -0.24048  -0.23955
 Alpha  occ. eigenvalues --   -0.21093  -0.21035
 Alpha virt. eigenvalues --   -0.08738  -0.08714  -0.01713  -0.01602  -0.00018
 Alpha virt. eigenvalues --    0.00038   0.02232   0.02288   0.03147   0.03314
 Alpha virt. eigenvalues --    0.04745   0.04803   0.05100   0.05230   0.06190

 Mulliken charges:
               1
     1  Mg   0.838494
     2  C   -0.003210
     3  C   -0.094104
     4  C   -0.045729
     5  C   -0.063920
     6  N   -0.256788
     7  C   -0.052615
     8  C   -0.013964
     9  C   -0.087011
    10  C    0.046286
    11  C    0.104803
    12  C    0.053471
    13  C   -0.071717
    14  H    0.035693
    15  N   -0.433165
    16  C    0.168471
    17  C   -0.177036
    18  C   -0.003832
    19  C    0.148744
    20  C    0.110147
    21  C    0.012520
    22  O   -0.249491
    23  C    0.062352
    24  N   -0.341119
    25  C    0.041247
    26  C   -0.028213
    27  C   -0.023985
    28  C    0.074807
    29  C    0.076166
    30  C    0.035106
    31  C   -0.004545
    32  N   -0.310399
    33  C    0.080248
    34  C   -0.169805
    35  C    0.008271
    36  C    0.082799
    37  C    0.127342
    38  C    0.045915
    39  O   -0.188609
    40  C   -0.005250
    41  C    0.212953
    42  O   -0.257639
    43  O   -0.304660
    44  C    0.157792
    45  H   -0.017576
    46  H   -0.016693
    47  H   -0.041409
    48  H    0.000890
    49  H   -0.004011
    50  H    0.025458
    51  H    0.016512
    52  H    0.016662
    53  H    0.011260
    54  H    0.043714
    55  H    0.017961
    56  H    0.018104
    57  H    0.005818
    58  H    0.026833
    59  H    0.039978
    60  H    0.037200
    61  H    0.035847
    62  H    0.031987
    63  H    0.016745
    64  H    0.009459
    65  H    0.023297
    66  H    0.012484
    67  H    0.004758
    68  H    0.006496
    69  H    0.004773
    70  H    0.009000
    71  H    0.018352
    72  H    0.028716
    73  H    0.047457
    74  H    0.009228
    75  H    0.046004
    76  H    0.035177
    77  H    0.043015
    78  H    0.046423
    79  H    0.053264
    80  Mg   0.837816
    81  C   -0.016969
    82  C   -0.087972
    83  C   -0.045540
    84  C   -0.064759
    85  N   -0.254569
    86  C   -0.049833
    87  C   -0.015093
    88  C   -0.090487
    89  C    0.045728
    90  C    0.114430
    91  C    0.062558
    92  C   -0.077816
    93  H    0.034777
    94  N   -0.423423
    95  C    0.162858
    96  C   -0.174829
    97  C   -0.007992
    98  C    0.152123
    99  C    0.099443
   100  C    0.015485
   101  O   -0.253474
   102  C    0.061269
   103  N   -0.350151
   104  C    0.037553
   105  C   -0.019752
   106  C   -0.035225
   107  C    0.088996
   108  C    0.073862
   109  C    0.034654
   110  C   -0.007853
   111  N   -0.324159
   112  C    0.078555
   113  C   -0.162854
   114  C    0.002190
   115  C    0.096324
   116  C    0.131363
   117  C    0.042451
   118  O   -0.187851
   119  C    0.000900
   120  C    0.211234
   121  O   -0.250985
   122  O   -0.305665
   123  C    0.152059
   124  H   -0.019950
   125  H   -0.015789
   126  H   -0.039616
   127  H   -0.000752
   128  H   -0.004482
   129  H    0.022400
   130  H    0.014383
   131  H    0.016062
   132  H    0.013916
   133  H    0.037708
   134  H    0.020708
   135  H    0.019498
   136  H    0.008626
   137  H    0.025818
   138  H    0.039604
   139  H    0.038066
   140  H    0.035985
   141  H    0.033958
   142  H    0.014482
   143  H    0.012748
   144  H    0.024778
   145  H    0.011123
   146  H    0.005868
   147  H    0.007530
   148  H    0.004908
   149  H    0.010604
   150  H    0.019087
   151  H    0.029269
   152  H    0.046159
   153  H    0.009363
   154  H    0.046862
   155  H    0.034888
   156  H    0.043835
   157  H    0.049399
   158  H    0.053576
 Sum of Mulliken charges =  -0.00000

 Dipole moment (field-independent basis, Debye):
    X=              0.1825    Y=              6.7940    Z=             -4.0064  Tot=              7.8894
 Quadrupole moment (field-independent basis, Debye-Ang):
   XX=           -420.3810   YY=           -542.8865   ZZ=           -482.4341
   XY=            -28.4479   XZ=             -7.9816   YZ=             -5.0188

 Normal termination of Gaussian 16 at Sat Sep 11 19:32:02 2021.
