 Gaussian 16, Revision A.03,
 Gaussian 16:  ES64L-G16RevA.03 25-Dec-2016

 -----------------------------------
 #p cam-b3lyp/Def2SVP td=(nstates=5)
 -----------------------------------

 --------------------------------
 TDDFT excited states in gaussian
 --------------------------------
 Symbolic Z-matrix:
 Charge =  0 Multiplicity = 1

                         Standard orientation:
 ---------------------------------------------------------------------
 Center     Atomic      Atomic             Coordinates (Angstroms)
 Number     Number       Type             X           Y           Z
 ---------------------------------------------------------------------
      1         12           0        8.194491    0.379186    0.298689
      2          6           0        8.316915   -2.897537   -1.136689
      3          6           0        9.113789    1.589753   -2.756222
      4          6           0        8.535188    3.227395    1.650820
      5          6           0        8.403491   -1.143737    3.426418
      6          7           0        8.629103   -0.626135   -1.625132
      7          6           0        8.581593   -1.882036   -2.058290
      8          6           0        8.765074   -2.011175   -3.600052
      9          6           0        9.554876   -0.653574   -3.874152
     10          6           0        9.043035    0.165969   -2.702704
     11          6           0       11.068710   -0.793927   -3.751228
     12          6           0        7.397009   -2.041746   -4.361100
     13          6           0        7.472624   -2.490732   -5.823306
     14          1           0        6.378160   -3.277241   -6.371849
     15          7           0        8.264747    2.180711   -0.509037
     16          6           0        8.647254    2.487676   -1.771870
     17          6           0        8.526533    3.956857   -1.888548
     18          6           0        8.224788    4.497611   -0.534063
     19          6           0        8.357116    3.310896    0.271898
     20          6           0        8.645437    4.691563   -3.188478
     21          6           0        7.883287    5.868672   -0.042430
     22          8           0        7.886738    6.165808    1.201062
     23          6           0        7.627477    6.891273   -1.072910
     24          7           0        8.655925    0.981909    2.243282
     25          6           0        8.683137    2.277070    2.576152
     26          6           0        8.753537    2.457171    4.063615
     27          6           0        8.522978    1.009025    4.695650
     28          6           0        8.436723    0.190118    3.384078
     29          6           0       10.062776    3.047742    4.605028
     30          6           0        7.378420    0.867413    5.730229
     31          6           0        6.043004    1.064378    5.048345
     32          7           0        8.158097   -1.654430    1.056399
     33          6           0        8.282893   -2.058341    2.393543
     34          6           0        8.308483   -3.532582    2.398896
     35          6           0        8.212854   -3.885887    1.054323
     36          6           0        8.159051   -2.706743    0.257444
     37          6           0        8.467673   -4.359147    3.546014
     38          6           0        8.168426   -4.985028    0.103653
     39          8           0        8.086564   -6.210530    0.198182
     40          6           0        8.356795   -4.388745   -1.360858
     41          6           0        7.296952   -4.996416   -2.238798
     42          8           0        6.090289   -4.732216   -2.061236
     43          8           0        7.879379   -5.597618   -3.287548
     44          6           0        6.881630   -6.196032   -4.214129
     45          1           0        9.624410    2.061580   -3.597998
     46          1           0        8.546255    4.189162    2.167848
     47          1           0        8.381731   -1.689230    4.371625
     48          1           0        9.367686   -2.862808   -3.916287
     49          1           0        9.258562   -0.193561   -4.816653
     50          1           0       11.348033   -1.775367   -3.368246
     51          1           0       11.378081   -0.012252   -3.057133
     52          1           0       11.557225   -0.564043   -4.698479
     53          1           0        7.039335   -1.021343   -4.498608
     54          1           0        6.674066   -2.662227   -3.830361
     55          1           0        8.430548   -2.961225   -6.046747
     56          1           0        7.453277   -1.602439   -6.454782
     57          1           0        9.032665    4.048626   -3.977928
     58          1           0        9.414928    5.451739   -3.055343
     59          1           0        7.707595    5.164858   -3.479642
     60          1           0        8.509366    6.992950   -1.705747
     61          1           0        7.311803    7.785745   -0.537073
     62          1           0        6.822679    6.544887   -1.721961
     63          1           0        7.970501    3.128512    4.413733
     64          1           0        9.405538    0.648319    5.224473
     65          1           0        9.923977    3.957425    5.189764
     66          1           0       10.727936    3.223646    3.760095
     67          1           0       10.657150    2.363491    5.209956
     68          1           0        7.463391    1.636385    6.497306
     69          1           0        7.368231   -0.100805    6.230928
     70          1           0        5.934579    2.148290    5.033893
     71          1           0        5.246417    0.600061    5.630643
     72          1           0        6.071206    0.725884    4.012434
     73          1           0        7.748111   -5.170826    3.439350
     74          1           0        8.298638   -3.798125    4.464863
     75          1           0        9.506603   -4.667457    3.430144
     76          1           0        9.361242   -4.661097   -1.683397
     77          1           0        7.134703   -7.250953   -4.320567
     78          1           0        6.886851   -5.581126   -5.114277
     79          1           0        5.859121   -6.266285   -3.841462
     80         12           0       -7.684091    0.800076    0.238535
     81          6           0      -10.084971   -1.865547    0.142233
     82          6           0       -9.528971    2.348645   -2.176608
     83          6           0       -5.358565    2.942548   -0.024424
     84          6           0       -5.478190   -1.428007    1.760173
     85          7           0       -9.546887    0.217259   -0.801922
     86          6           0      -10.403332   -0.789086   -0.711774
     87          6           0      -11.711043   -0.595598   -1.525396
     88          6           0      -11.162328    0.444845   -2.618680
     89          6           0      -10.028877    1.073395   -1.810660
     90          6           0      -10.561100   -0.228130   -3.841364
     91          6           0      -12.863654    0.030531   -0.664303
     92          6           0      -14.252913   -0.037870   -1.302305
     93          1           0      -15.408523   -0.242891   -0.433405
     94          7           0       -7.698800    2.621193   -0.550062
     95          6           0       -8.531134    3.088011   -1.504298
     96          6           0       -8.119139    4.478269   -1.752528
     97          6           0       -6.871316    4.741767   -0.985578
     98          6           0       -6.576593    3.410014   -0.496026
     99          6           0       -8.930075    5.431640   -2.581317
    100          6           0       -6.068259    5.984038   -0.744595
    101          8           0       -4.889018    5.937085   -0.244591
    102          6           0       -6.665505    7.248876   -1.197352
    103          7           0       -5.637381    0.710042    0.592417
    104          6           0       -4.862652    1.799797    0.450456
    105          6           0       -3.484342    1.567421    1.021980
    106          6           0       -3.570602    0.171517    1.797611
    107          6           0       -5.023059   -0.221907    1.449814
    108          6           0       -2.343172    1.515355    0.006395
    109          6           0       -3.141150    0.168127    3.290347
    110          6           0       -4.121649    0.974379    4.111294
    111          7           0       -7.796803   -1.211570    1.018685
    112          6           0       -6.747909   -1.964903    1.589986
    113          6           0       -7.281194   -3.314836    1.865170
    114          6           0       -8.607229   -3.259731    1.410105
    115          6           0       -8.875006   -1.972978    0.869685
    116          6           0       -6.547402   -4.402624    2.416887
    117          6           0       -9.838172   -4.000817    1.254307
    118          8           0      -10.234539   -5.110751    1.607410
    119          6           0      -10.811795   -3.170855    0.311130
    120          6           0      -12.169239   -3.138289    0.958296
    121          8           0      -12.340634   -2.545417    2.037978
    122          8           0      -13.080754   -3.621986    0.094845
    123          6           0      -14.444741   -3.599809    0.687185
    124          1           0       -9.905535    2.811126   -3.089403
    125          1           0       -4.551869    3.678511    0.008575
    126          1           0       -4.882444   -2.149740    2.323082
    127          1           0      -12.078233   -1.489838   -2.014559
    128          1           0      -11.913319    1.190614   -2.866063
    129          1           0      -10.494860   -1.299126   -3.720039
    130          1           0       -9.574624    0.201124   -3.958168
    131          1           0      -11.119907    0.052066   -4.738888
    132          1           0      -12.729124    1.119089   -0.623295
    133          1           0      -12.892520   -0.411424    0.312668
    134          1           0      -14.282796   -0.731300   -2.151545
    135          1           0      -14.480656    0.935710   -1.743098
    136          1           0       -9.708156    4.908275   -3.150603
    137          1           0       -8.260816    5.838795   -3.346951
    138          1           0       -9.339310    6.256829   -1.994591
    139          1           0       -6.858027    7.195120   -2.266231
    140          1           0       -5.984496    8.031680   -0.857743
    141          1           0       -7.638276    7.371319   -0.708118
    142          1           0       -3.222040    2.345985    1.727756
    143          1           0       -2.920920   -0.589355    1.340640
    144          1           0       -1.545262    2.254763    0.208143
    145          1           0       -2.758400    1.664007   -0.981542
    146          1           0       -1.855677    0.546838   -0.091234
    147          1           0       -2.168180    0.652074    3.405598
    148          1           0       -3.057859   -0.827331    3.713564
    149          1           0       -3.771466    2.001916    3.974825
    150          1           0       -4.079373    0.678658    5.157628
    151          1           0       -5.132015    0.911864    3.690697
    152          1           0       -7.188726   -4.869511    3.152567
    153          1           0       -5.611801   -4.067243    2.859530
    154          1           0       -6.384196   -5.003517    1.518247
    155          1           0      -10.832439   -3.669660   -0.658574
    156          1           0      -14.835450   -4.620356    0.627860
    157          1           0      -14.997257   -2.816055    0.135641
    158          1           0      -14.526553   -3.403462    1.749829
 ---------------------------------------------------------------------

 SCF Done:  E(RCAM-B3LYP) =  -4069.81182689     A.U. after   19 cycles

 Excitation energies and oscillator strengths:

 Excited State   1:      Singlet-A      1.6694 eV  742.68 nm  f=0.0194  <S**2>=0.000
     309 -> 315       -0.10200
     310 -> 316        0.13898
     311 -> 313       -0.40475
     312 -> 314        0.55434
 This state for optimization and/or second-order correction.
 Total Energy, E(TD-HF/TD-DFT) =  -4069.75047678
 Copying the excited state density for this state as the 1-particle RhoCI density.

 Excited State   2:      Singlet-A      1.6855 eV  735.59 nm  f=0.7363  <S**2>=0.000
     309 -> 315        0.14302
     310 -> 316        0.10387
     311 -> 313        0.55350
     312 -> 314        0.40421

 Excited State   3:      Singlet-A      2.1856 eV  567.29 nm  f=0.0981  <S**2>=0.000
     310 -> 314        0.63993
     312 -> 316       -0.27171

 Excited State   4:      Singlet-A      2.1932 eV  565.32 nm  f=0.1027  <S**2>=0.000
     309 -> 313        0.63804
     311 -> 315       -0.27736

 Excited State   5:      Singlet-A      2.7677 eV  447.97 nm  f=0.0000  <S**2>=0.000
     312 -> 313        0.70697

 The electronic state is 1-A.
 Alpha  occ. eigenvalues --  -46.87811 -46.87580 -19.26302 -19.26291 -19.19099
 Alpha  occ. eigenvalues --  -19.19042 -19.18806 -19.18651 -19.18182 -19.17976
 Alpha  occ. eigenvalues --  -14.42463 -14.42421 -14.41463 -14.41273 -14.39414
 Alpha  occ. eigenvalues --  -14.39274 -14.38602 -14.38519 -10.39100 -10.39028
 Alpha  occ. eigenvalues --  -10.35438 -10.35330 -10.34402 -10.34153 -10.31704
 Alpha  occ. eigenvalues --  -10.31695 -10.31420 -10.31232 -10.30954 -10.30919
 Alpha  occ. eigenvalues --  -10.30584 -10.30520 -10.30315 -10.30280 -10.30217
 Alpha  occ. eigenvalues --  -10.30051 -10.29935 -10.29801 -10.29640 -10.29357
 Alpha  occ. eigenvalues --  -10.29323 -10.29263 -10.28761 -10.28659 -10.28608
 Alpha  occ. eigenvalues --  -10.28553 -10.28376 -10.28330 -10.28128 -10.28079
 Alpha  occ. eigenvalues --  -10.27922 -10.27803 -10.27739 -10.27594 -10.27591
 Alpha  occ. eigenvalues --  -10.27516 -10.27478 -10.27461 -10.27416 -10.27413
 Alpha  occ. eigenvalues --  -10.27407 -10.27394 -10.27391 -10.27260 -10.27172
 Alpha  occ. eigenvalues --  -10.26979 -10.26721 -10.26639 -10.26383 -10.26370
 Alpha  occ. eigenvalues --  -10.26243 -10.26209 -10.26033 -10.26010 -10.25968
 Alpha  occ. eigenvalues --  -10.25858 -10.25841 -10.25740 -10.25440 -10.25266
 Alpha  occ. eigenvalues --  -10.24844 -10.24799 -10.24793 -10.24730 -10.24624
 Alpha  occ. eigenvalues --  -10.24606  -3.16554  -3.16330  -1.91436  -1.91213
 Alpha  occ. eigenvalues --   -1.91022  -1.90864  -1.90801  -1.90638  -1.16651
 Alpha  occ. eigenvalues --   -1.16584  -1.08640  -1.08583  -1.07206  -1.06905
 Alpha  occ. eigenvalues --   -1.06884  -1.06664  -1.04593  -1.04420  -1.03773
 Alpha  occ. eigenvalues --   -1.03583  -1.03246  -1.02954  -1.02424  -1.02029
 Alpha  occ. eigenvalues --   -0.91985  -0.91910  -0.89536  -0.89398  -0.89200
 Alpha  occ. eigenvalues --   -0.89086  -0.88301  -0.88117  -0.87883  -0.87705
 Alpha  occ. eigenvalues --   -0.87685  -0.87605  -0.87274  -0.87054  -0.84993
 Alpha  occ. eigenvalues --   -0.84932  -0.83954  -0.83773  -0.82964  -0.82862
 Alpha  occ. eigenvalues --   -0.82656  -0.82585  -0.81600  -0.81524  -0.80607
 Alpha  occ. eigenvalues --   -0.80370  -0.78802  -0.78561  -0.77231  -0.77068
 Alpha  occ. eigenvalues --   -0.76948  -0.76820  -0.75935  -0.75770  -0.74910
 Alpha  occ. eigenvalues --   -0.74705  -0.72787  -0.72615  -0.71683  -0.71498
 Alpha  occ. eigenvalues --   -0.69928  -0.69649  -0.68883  -0.68758  -0.67650
 Alpha  occ. eigenvalues --   -0.67524  -0.67227  -0.67139  -0.65300  -0.65203
 Alpha  occ. eigenvalues --   -0.64867  -0.64689  -0.64634  -0.64579  -0.64285
 Alpha  occ. eigenvalues --   -0.64106  -0.62313  -0.62205  -0.60446  -0.60263
 Alpha  occ. eigenvalues --   -0.59816  -0.59727  -0.59000  -0.58910  -0.58516
 Alpha  occ. eigenvalues --   -0.58345  -0.57599  -0.57481  -0.57320  -0.57151
 Alpha  occ. eigenvalues --   -0.56319  -0.56126  -0.55993  -0.55820  -0.55524
 Alpha  occ. eigenvalues --   -0.55385  -0.55355  -0.55155  -0.54541  -0.54399
 Alpha  occ. eigenvalues --   -0.53907  -0.53848  -0.53306  -0.53228  -0.53149
 Alpha  occ. eigenvalues --   -0.53072  -0.52928  -0.52831  -0.52756  -0.52610
 Alpha  occ. eigenvalues --   -0.52461  -0.52294  -0.51929  -0.51788  -0.51624
 Alpha  occ. eigenvalues --   -0.51596  -0.51210  -0.51120  -0.50565  -0.50413
 Alpha  occ. eigenvalues --   -0.50045  -0.49920  -0.49911  -0.49771  -0.49520
 Alpha  occ. eigenvalues --   -0.49422  -0.49223  -0.49133  -0.49106  -0.49032
 Alpha  occ. eigenvalues --   -0.48605  -0.48487  -0.48471  -0.48446  -0.48277
 Alpha  occ. eigenvalues --   -0.48273  -0.47703  -0.47521  -0.47304  -0.47040
 Alpha  occ. eigenvalues --   -0.46811  -0.46624  -0.46566  -0.46487  -0.46371
 Alpha  occ. eigenvalues --   -0.46187  -0.46176  -0.45994  -0.45836  -0.45741
 Alpha  occ. eigenvalues --   -0.45214  -0.45112  -0.44590  -0.44512  -0.44443
 Alpha  occ. eigenvalues --   -0.44400  -0.44157  -0.44098  -0.44057  -0.44025
 Alpha  occ. eigenvalues --   -0.43994  -0.43873  -0.43509  -0.43478  -0.43397
 Alpha  occ. eigenvalues --   -0.43309  -0.43039  -0.42861  -0.42820  -0.42715
 Alpha  occ. eigenvalues --   -0.42675  -0.42460  -0.42028  -0.41877  -0.41716
 Alpha  occ. eigenvalues --   -0.41590  -0.41545  -0.41385  -0.41151  -0.40911
 Alpha  occ. eigenvalues --   -0.40883  -0.40819  -0.40659  -0.40627  -0.40586
 Alpha  occ. eigenvalues --   -0.40395  -0.40245  -0.40170  -0.39465  -0.39318
 Alpha  occ. eigenvalues --   -0.38483  -0.38252  -0.37761  -0.37590  -0.37334
 Alpha  occ. eigenvalues --   -0.37276  -0.37174  -0.37129  -0.36731  -0.36700
 Alpha  occ. eigenvalues --   -0.36208  -0.36130  -0.34299  -0.34172  -0.33797
 Alpha  occ. eigenvalues --   -0.33791  -0.33199  -0.33095  -0.31337  -0.31209
 Alpha  occ. eigenvalues --   -0.31046  -0.30894  -0.30042  -0.29880  -0.29456
 Alpha  occ. eigenvalues --   -0.29334  -0.29253  -0.29131  -0.24094  -0.23955
 Alpha  occ. eigenvalues --   -0.21140  -0.21036
 Alpha virt. eigenvalues --   -0.08784  -0.08714  -0.01761  -0.01602  -0.00061
 Alpha virt. eigenvalues --    0.00039   0.02189   0.02288   0.03087   0.03303
 Alpha virt. eigenvalues --    0.04705   0.04803   0.05079   0.05229   0.06164

 Mulliken charges:
               1
     1  Mg   0.838342
     2  C   -0.003041
     3  C   -0.094060
     4  C   -0.045870
     5  C   -0.064062
     6  N   -0.256793
     7  C   -0.052557
     8  C   -0.013973
     9  C   -0.087016
    10  C    0.046316
    11  C    0.104791
    12  C    0.053452
    13  C   -0.071813
    14  H    0.036061
    15  N   -0.433217
    16  C    0.168452
    17  C   -0.177037
    18  C   -0.003851
    19  C    0.148710
    20  C    0.110154
    21  C    0.012456
    22  O   -0.249432
    23  C    0.062378
    24  N   -0.341113
    25  C    0.041230
    26  C   -0.028247
    27  C   -0.023943
    28  C    0.074704
    29  C    0.076132
    30  C    0.035153
    31  C   -0.004523
    32  N   -0.310399
    33  C    0.080176
    34  C   -0.169928
    35  C    0.008338
    36  C    0.082737
    37  C    0.127360
    38  C    0.045973
    39  O   -0.188450
    40  C   -0.005277
    41  C    0.212957
    42  O   -0.257435
    43  O   -0.304722
    44  C    0.157681
    45  H   -0.017504
    46  H   -0.016674
    47  H   -0.041551
    48  H    0.000972
    49  H   -0.003985
    50  H    0.025509
    51  H    0.016488
    52  H    0.016721
    53  H    0.011202
    54  H    0.043928
    55  H    0.017942
    56  H    0.018012
    57  H    0.005854
    58  H    0.026928
    59  H    0.039850
    60  H    0.037253
    61  H    0.036041
    62  H    0.031808
    63  H    0.016629
    64  H    0.009556
    65  H    0.023366
    66  H    0.012606
    67  H    0.004803
    68  H    0.006558
    69  H    0.004708
    70  H    0.009005
    71  H    0.017595
    72  H    0.028717
    73  H    0.047420
    74  H    0.009028
    75  H    0.046113
    76  H    0.035234
    77  H    0.043069
    78  H    0.046434
    79  H    0.053573
    80  Mg   0.837798
    81  C   -0.016944
    82  C   -0.088001
    83  C   -0.045586
    84  C   -0.064522
    85  N   -0.254582
    86  C   -0.049826
    87  C   -0.015083
    88  C   -0.090499
    89  C    0.045758
    90  C    0.114440
    91  C    0.062571
    92  C   -0.077808
    93  H    0.034753
    94  N   -0.423439
    95  C    0.162880
    96  C   -0.174878
    97  C   -0.007944
    98  C    0.152070
    99  C    0.099481
   100  C    0.015389
   101  O   -0.253226
   102  C    0.061235
   103  N   -0.350100
   104  C    0.037562
   105  C   -0.019937
   106  C   -0.035078
   107  C    0.088875
   108  C    0.073348
   109  C    0.034678
   110  C   -0.007697
   111  N   -0.324158
   112  C    0.078425
   113  C   -0.162893
   114  C    0.002234
   115  C    0.096277
   116  C    0.131509
   117  C    0.042464
   118  O   -0.187844
   119  C    0.000886
   120  C    0.211240
   121  O   -0.251052
   122  O   -0.305641
   123  C    0.152073
   124  H   -0.019979
   125  H   -0.015600
   126  H   -0.039712
   127  H   -0.000726
   128  H   -0.004517
   129  H    0.022474
   130  H    0.014418
   131  H    0.016015
   132  H    0.013880
   133  H    0.037675
   134  H    0.020727
   135  H    0.019479
   136  H    0.008597
   137  H    0.025780
   138  H    0.039582
   139  H    0.037992
   140  H    0.036191
   141  H    0.033867
   142  H    0.014331
   143  H    0.013712
   144  H    0.025080
   145  H    0.011165
   146  H    0.007069
   147  H    0.006656
   148  H    0.004132
   149  H    0.010817
   150  H    0.017765
   151  H    0.029803
   152  H    0.045921
   153  H    0.009040
   154  H    0.047397
   155  H    0.034985
   156  H    0.043854
   157  H    0.049387
   158  H    0.053537
 Sum of Mulliken charges =  -0.00000

 Dipole moment (field-independent basis, Debye):
    X=              1.4927    Y=              5.3694    Z=             -6.4951  Tot=              8.5584
 Quadrupole moment (field-independent basis, Debye-Ang):
   XX=           -449.1735   YY=           -557.1600   ZZ=           -464.8732
   XY=            -22.8366   XZ=             24.7057   YZ=             -8.3934

 Normal termination of Gaussian 16 at Sun Sep 12 07:53:23 2021.
