 Gaussian 16, Revision A.03,
 Gaussian 16:  ES64L-G16RevA.03 25-Dec-2016

 -----------------------------------
 #p cam-b3lyp/Def2SVP td=(nstates=5)
 -----------------------------------

 --------------------------------
 TDDFT excited states in gaussian
 --------------------------------
 Symbolic Z-matrix:
 Charge =  0 Multiplicity = 1

                         Standard orientation:
 ---------------------------------------------------------------------
 Center     Atomic      Atomic             Coordinates (Angstroms)
 Number     Number       Type             X           Y           Z
 ---------------------------------------------------------------------
      1         12           0       -7.753473   -0.970821   -0.071320
      2          6           0       -8.056902    2.574210    0.319700
      3          6           0       -8.584239   -0.530400   -3.351400
      4          6           0       -7.936668   -4.125670   -0.335881
      5          6           0       -8.067551   -1.231003    3.389795
      6          7           0       -8.234660    0.841053   -1.248698
      7          6           0       -8.257338    2.145652   -0.994380
      8          6           0       -8.439352    3.020785   -2.270463
      9          6           0       -9.147889    1.947489   -3.212804
     10          6           0       -8.596128    0.676639   -2.591173
     11          6           0      -10.667965    1.935782   -3.087370
     12          6           0       -7.071103    3.492933   -2.867709
     13          6           0       -7.164348    4.609739   -3.911455
     14          1           0       -6.114083    5.615864   -3.956238
     15          7           0       -7.715057   -2.126559   -1.673083
     16          6           0       -8.072136   -1.777421   -2.932402
     17          6           0       -7.866119   -2.983026   -3.763518
     18          6           0       -7.541224   -4.114519   -2.851236
     19          6           0       -7.746367   -3.498807   -1.565082
     20          6           0       -7.935128   -2.972544   -5.259806
     21          6           0       -7.123866   -5.529574   -3.099361
     22          8           0       -7.117101   -6.409332   -2.171701
     23          6           0       -6.803672   -5.885174   -4.493658
     24          7           0       -8.190190   -2.487438    1.294983
     25          6           0       -8.144421   -3.774781    0.934931
     26          6           0       -8.212614   -4.678744    2.129979
     27          6           0       -8.069607   -3.732855    3.408492
     28          6           0       -8.023459   -2.364151    2.685451
     29          6           0       -9.488568   -5.522093    2.259260
     30          6           0       -6.940938   -4.074617    4.413342
     31          6           0       -5.592585   -3.840305    3.769804
     32          7           0       -7.838818    0.408955    1.601994
     33          6           0       -7.994203    0.082444    2.956955
     34          6           0       -8.104918    1.352667    3.697456
     35          6           0       -8.022340    2.335946    2.713491
     36          6           0       -7.896077    1.718523    1.436331
     37          6           0       -8.317986    1.484986    5.098002
     38          6           0       -8.036149    3.764113    2.441449
     39          8           0       -8.025727    4.779772    3.138458
     40          6           0       -8.181580    3.973378    0.869544
     41          6           0       -7.153710    4.988285    0.449119
     42          8           0       -5.934814    4.727963    0.511502
     43          8           0       -7.764014    6.005649   -0.177811
     44          6           0       -6.797326    7.033986   -0.647056
     45          1           0       -9.062047   -0.540674   -4.332998
     46          1           0       -7.895063   -5.216350   -0.369387
     47          1           0       -8.082613   -1.231936    4.481228
     48          1           0       -9.088363    3.886755   -2.138918
     49          1           0       -8.820240    2.035952   -4.248441
     50          1           0      -11.005637    2.578995   -2.274859
     51          1           0      -10.935551    0.897987   -2.887692
     52          1           0      -11.137087    2.188477   -4.038605
     53          1           0       -6.654335    2.696800   -3.484586
     54          1           0       -6.388177    3.797483   -2.073865
     55          1           0       -8.146581    5.083066   -3.902058
     56          1           0       -7.090205    4.159217   -4.901269
     57          1           0       -8.354422   -2.039767   -5.634861
     58          1           0       -8.660167   -3.732519   -5.550438
     59          1           0       -6.969906   -3.191503   -5.716681
     60          1           0       -7.674666   -5.697713   -5.121970
     61          1           0       -6.439868   -6.911695   -4.466226
     62          1           0       -6.016607   -5.222757   -4.855157
     63          1           0       -7.394084   -5.397352    2.123949
     64          1           0       -8.974467   -3.727622    4.016666
     65          1           0       -9.300735   -6.594598    2.315443
     66          1           0      -10.137726   -5.282328    1.417597
     67          1           0      -10.124837   -5.261754    3.104720
     68          1           0       -6.985644   -5.127397    4.690110
     69          1           0       -6.989479   -3.488126    5.330906
     70          1           0       -5.421665   -4.764721    3.219284
     71          1           0       -4.827409   -3.693068    4.532718
     72          1           0       -5.634498   -3.030262    3.041409
     73          1           0       -7.645914    2.273858    5.435596
     74          1           0       -8.121971    0.547899    5.618625
     75          1           0       -9.372323    1.760447    5.116719
     76          1           0       -9.198261    4.322899    0.692580
     77          1           0       -7.110300    7.987068   -0.220539
     78          1           0       -6.761997    6.953142   -1.733620
     79          1           0       -5.782680    6.956308   -0.254884
     80         12           0        8.121896   -0.544514    0.197739
     81          6           0        6.917307    2.831600    0.370817
     82          6           0        8.216286   -0.178865   -3.192240
     83          6           0        8.750704   -3.646875   -0.019825
     84          6           0        6.865407   -1.010658    3.414825
     85          7           0        7.609200    1.154783   -1.122044
     86          6           0        7.220656    2.407849   -0.939848
     87          6           0        7.230527    3.277684   -2.225490
     88          6           0        7.091006    2.103067   -3.311623
     89          6           0        7.707954    0.956878   -2.512693
     90          6           0        5.648649    1.743285   -3.627060
     91          6           0        8.574888    4.067179   -2.402706
     92          6           0        8.538588    5.168812   -3.464238
     93          1           0        9.305041    6.389043   -3.227494
     94          7           0        8.898116   -1.595902   -1.295785
     95          6           0        8.864973   -1.289830   -2.609747
     96          6           0        9.556584   -2.391412   -3.297016
     97          6           0        9.855900   -3.453137   -2.298084
     98          6           0        9.145859   -2.937656   -1.144735
     99          6           0        9.939439   -2.332868   -4.747328
    100          6           0       10.639497   -4.728533   -2.372589
    101          8           0       10.569804   -5.616453   -1.450872
    102          6           0       11.418180   -4.948798   -3.600037
    103          7           0        7.664187   -2.164845    1.417314
    104          6           0        8.102817   -3.400360    1.118936
    105          6           0        7.888377   -4.349098    2.274058
    106          6           0        7.433200   -3.433178    3.503480
    107          6           0        7.374549   -2.064115    2.791000
    108          6           0        6.851319   -5.448972    2.047833
    109          6           0        8.260895   -3.550267    4.812637
    110          6           0        9.653629   -3.004816    4.593226
    111          7           0        7.245124    0.710719    1.722125
    112          6           0        6.764730    0.307052    2.987170
    113          6           0        6.155679    1.494504    3.620777
    114          6           0        6.304643    2.509209    2.663346
    115          6           0        6.942155    1.985874    1.506105
    116          6           0        5.523540    1.524898    4.895766
    117          6           0        6.058009    3.901484    2.364300
    118          8           0        5.626065    4.862986    2.998853
    119          6           0        6.330027    4.141860    0.816842
    120          6           0        7.182035    5.373978    0.680909
    121          8           0        8.345435    5.389548    1.120091
    122          8           0        6.563699    6.249784   -0.132099
    123          6           0        7.375119    7.483840   -0.306822
    124          1           0        8.068218   -0.247756   -4.270306
    125          1           0        9.043684   -4.699113    0.001161
    126          1           0        6.539573   -1.050195    4.456434
    127          1           0        6.399180    3.966739   -2.314134
    128          1           0        7.683970    2.312384   -4.198155
    129          1           0        4.954259    2.257356   -2.979218
    130          1           0        5.575132    0.672752   -3.487015
    131          1           0        5.437767    1.924029   -4.684973
    132          1           0        9.325040    3.401368   -2.848468
    133          1           0        8.901927    4.477516   -1.467131
    134          1           0        7.514046    5.411967   -3.771064
    135          1           0        9.008040    4.788840   -4.374867
    136          1           0        9.441981   -1.501224   -5.261424
    137          1           0        9.529282   -3.230405   -5.222798
    138          1           0       11.021084   -2.316509   -4.897100
    139          1           0       10.751079   -4.932944   -4.458632
    140          1           0       11.979593   -5.869305   -3.428721
    141          1           0       12.114746   -4.112592   -3.727231
    142          1           0        8.809745   -4.855122    2.535055
    143          1           0        6.407138   -3.664004    3.825585
    144          1           0        7.257998   -6.468114    2.189427
    145          1           0        6.446201   -5.336318    1.050981
    146          1           0        5.959956   -5.378034    2.668838
    147          1           0        8.379235   -4.599731    5.093286
    148          1           0        7.808667   -3.040219    5.656641
    149          1           0       10.181152   -3.849837    4.140738
    150          1           0       10.106403   -2.718239    5.540284
    151          1           0        9.646198   -2.190001    3.859954
    152          1           0        5.863974    2.424708    5.390684
    153          1           0        5.759565    0.636494    5.477838
    154          1           0        4.473513    1.549813    4.592303
    155          1           0        5.361871    4.257648    0.328141
    156          1           0        6.738829    8.327540   -0.022246
    157          1           0        7.738691    7.456935   -1.351261
    158          1           0        8.221756    7.624846    0.354811
 ---------------------------------------------------------------------

 SCF Done:  E(RCAM-B3LYP) =  -4069.81157620     A.U. after   19 cycles

 Excitation energies and oscillator strengths:

 Excited State   1:      Singlet-A      1.6698 eV  742.50 nm  f=0.0429  <S**2>=0.000
     309 -> 315       -0.10510
     310 -> 316        0.13673
     311 -> 313       -0.41687
     312 -> 314        0.54525
 This state for optimization and/or second-order correction.
 Total Energy, E(TD-HF/TD-DFT) =  -4069.75021146
 Copying the excited state density for this state as the 1-particle RhoCI density.

 Excited State   2:      Singlet-A      1.6854 eV  735.62 nm  f=0.7161  <S**2>=0.000
     309 -> 315        0.14054
     310 -> 316        0.10688
     311 -> 313        0.54443
     312 -> 314        0.41634

 Excited State   3:      Singlet-A      2.1856 eV  567.29 nm  f=0.0532  <S**2>=0.000
     309 -> 313        0.15463
     310 -> 314        0.62381
     312 -> 316       -0.26483

 Excited State   4:      Singlet-A      2.1928 eV  565.43 nm  f=0.1397  <S**2>=0.000
     309 -> 313        0.62187
     310 -> 314       -0.15352
     311 -> 315       -0.27038

 Excited State   5:      Singlet-A      2.7732 eV  447.07 nm  f=0.0000  <S**2>=0.000
     312 -> 313        0.70709

 The electronic state is 1-A.
 Alpha  occ. eigenvalues --  -46.87785 -46.87581 -19.26255 -19.26239 -19.19068
 Alpha  occ. eigenvalues --  -19.18974 -19.18814 -19.18648 -19.18139 -19.17944
 Alpha  occ. eigenvalues --  -14.42439 -14.42420 -14.41439 -14.41280 -14.39393
 Alpha  occ. eigenvalues --  -14.39273 -14.38572 -14.38516 -10.39036 -10.38997
 Alpha  occ. eigenvalues --  -10.35448 -10.35327 -10.34359 -10.34121 -10.31668
 Alpha  occ. eigenvalues --  -10.31628 -10.31391 -10.31226 -10.30949 -10.30900
 Alpha  occ. eigenvalues --  -10.30555 -10.30494 -10.30314 -10.30274 -10.30201
 Alpha  occ. eigenvalues --  -10.30069 -10.29907 -10.29811 -10.29618 -10.29360
 Alpha  occ. eigenvalues --  -10.29318 -10.29246 -10.28740 -10.28647 -10.28599
 Alpha  occ. eigenvalues --  -10.28538 -10.28352 -10.28323 -10.28109 -10.28070
 Alpha  occ. eigenvalues --  -10.27914 -10.27778 -10.27717 -10.27593 -10.27574
 Alpha  occ. eigenvalues --  -10.27494 -10.27486 -10.27446 -10.27442 -10.27410
 Alpha  occ. eigenvalues --  -10.27402 -10.27389 -10.27387 -10.27303 -10.27129
 Alpha  occ. eigenvalues --  -10.26947 -10.26699 -10.26629 -10.26421 -10.26365
 Alpha  occ. eigenvalues --  -10.26226 -10.26180 -10.26072 -10.26008 -10.25955
 Alpha  occ. eigenvalues --  -10.25854 -10.25813 -10.25733 -10.25429 -10.25326
 Alpha  occ. eigenvalues --  -10.24815 -10.24783 -10.24777 -10.24687 -10.24668
 Alpha  occ. eigenvalues --  -10.24610  -3.16528  -3.16331  -1.91410  -1.91213
 Alpha  occ. eigenvalues --   -1.90996  -1.90839  -1.90801  -1.90638  -1.16588
 Alpha  occ. eigenvalues --   -1.16549  -1.08594  -1.08548  -1.07216  -1.06902
 Alpha  occ. eigenvalues --   -1.06851  -1.06597  -1.04570  -1.04416  -1.03750
 Alpha  occ. eigenvalues --   -1.03584  -1.03222  -1.02958  -1.02399  -1.02030
 Alpha  occ. eigenvalues --   -0.91954  -0.91899  -0.89510  -0.89417  -0.89179
 Alpha  occ. eigenvalues --   -0.89079  -0.88278  -0.88146  -0.87851  -0.87698
 Alpha  occ. eigenvalues --   -0.87663  -0.87607  -0.87270  -0.87051  -0.84973
 Alpha  occ. eigenvalues --   -0.84927  -0.83926  -0.83802  -0.82967  -0.82867
 Alpha  occ. eigenvalues --   -0.82638  -0.82581  -0.81560  -0.81510  -0.80580
 Alpha  occ. eigenvalues --   -0.80362  -0.78788  -0.78558  -0.77208  -0.77069
 Alpha  occ. eigenvalues --   -0.76919  -0.76822  -0.75906  -0.75759  -0.74886
 Alpha  occ. eigenvalues --   -0.74726  -0.72761  -0.72615  -0.71659  -0.71502
 Alpha  occ. eigenvalues --   -0.69901  -0.69687  -0.68863  -0.68753  -0.67628
 Alpha  occ. eigenvalues --   -0.67522  -0.67214  -0.67132  -0.65274  -0.65195
 Alpha  occ. eigenvalues --   -0.64837  -0.64690  -0.64606  -0.64574  -0.64259
 Alpha  occ. eigenvalues --   -0.64128  -0.62268  -0.62192  -0.60436  -0.60267
 Alpha  occ. eigenvalues --   -0.59794  -0.59720  -0.58973  -0.58911  -0.58488
 Alpha  occ. eigenvalues --   -0.58343  -0.57556  -0.57458  -0.57294  -0.57157
 Alpha  occ. eigenvalues --   -0.56296  -0.56122  -0.55949  -0.55803  -0.55510
 Alpha  occ. eigenvalues --   -0.55375  -0.55322  -0.55166  -0.54500  -0.54407
 Alpha  occ. eigenvalues --   -0.53885  -0.53841  -0.53288  -0.53211  -0.53150
 Alpha  occ. eigenvalues --   -0.53065  -0.52894  -0.52823  -0.52753  -0.52604
 Alpha  occ. eigenvalues --   -0.52430  -0.52330  -0.51890  -0.51779  -0.51607
 Alpha  occ. eigenvalues --   -0.51587  -0.51178  -0.51115  -0.50576  -0.50414
 Alpha  occ. eigenvalues --   -0.50025  -0.49914  -0.49910  -0.49795  -0.49505
 Alpha  occ. eigenvalues --   -0.49416  -0.49198  -0.49121  -0.49083  -0.49021
 Alpha  occ. eigenvalues --   -0.48572  -0.48475  -0.48454  -0.48429  -0.48297
 Alpha  occ. eigenvalues --   -0.48265  -0.47684  -0.47521  -0.47286  -0.47045
 Alpha  occ. eigenvalues --   -0.46785  -0.46632  -0.46545  -0.46483  -0.46346
 Alpha  occ. eigenvalues --   -0.46192  -0.46144  -0.46000  -0.45796  -0.45730
 Alpha  occ. eigenvalues --   -0.45192  -0.45133  -0.44555  -0.44502  -0.44432
 Alpha  occ. eigenvalues --   -0.44400  -0.44135  -0.44079  -0.44049  -0.44003
 Alpha  occ. eigenvalues --   -0.44002  -0.43861  -0.43469  -0.43469  -0.43376
 Alpha  occ. eigenvalues --   -0.43307  -0.43012  -0.42846  -0.42812  -0.42678
 Alpha  occ. eigenvalues --   -0.42630  -0.42481  -0.41998  -0.41891  -0.41687
 Alpha  occ. eigenvalues --   -0.41581  -0.41525  -0.41387  -0.41129  -0.40912
 Alpha  occ. eigenvalues --   -0.40862  -0.40822  -0.40656  -0.40630  -0.40562
 Alpha  occ. eigenvalues --   -0.40419  -0.40229  -0.40162  -0.39436  -0.39356
 Alpha  occ. eigenvalues --   -0.38461  -0.38278  -0.37740  -0.37585  -0.37311
 Alpha  occ. eigenvalues --   -0.37253  -0.37190  -0.37124  -0.36683  -0.36681
 Alpha  occ. eigenvalues --   -0.36171  -0.36138  -0.34273  -0.34172  -0.33771
 Alpha  occ. eigenvalues --   -0.33730  -0.33171  -0.33094  -0.31343  -0.31207
 Alpha  occ. eigenvalues --   -0.31023  -0.30893  -0.29997  -0.29847  -0.29439
 Alpha  occ. eigenvalues --   -0.29304  -0.29248  -0.29121  -0.24068  -0.23955
 Alpha  occ. eigenvalues --   -0.21116  -0.21037
 Alpha virt. eigenvalues --   -0.08762  -0.08710  -0.01740  -0.01606  -0.00050
 Alpha virt. eigenvalues --    0.00046   0.02221   0.02301   0.03132   0.03297
 Alpha virt. eigenvalues --    0.04728   0.04805   0.05138   0.05259   0.06186

 Mulliken charges:
               1
     1  Mg   0.838732
     2  C   -0.002871
     3  C   -0.094253
     4  C   -0.045923
     5  C   -0.063956
     6  N   -0.256770
     7  C   -0.052464
     8  C   -0.013975
     9  C   -0.086969
    10  C    0.046259
    11  C    0.104827
    12  C    0.053514
    13  C   -0.071711
    14  H    0.036094
    15  N   -0.433112
    16  C    0.168318
    17  C   -0.177319
    18  C   -0.004116
    19  C    0.148646
    20  C    0.110232
    21  C    0.012183
    22  O   -0.249697
    23  C    0.062540
    24  N   -0.341146
    25  C    0.041194
    26  C   -0.028158
    27  C   -0.023968
    28  C    0.074850
    29  C    0.076183
    30  C    0.035123
    31  C   -0.004476
    32  N   -0.310555
    33  C    0.080524
    34  C   -0.169496
    35  C    0.008534
    36  C    0.083097
    37  C    0.127234
    38  C    0.046392
    39  O   -0.187920
    40  C   -0.005458
    41  C    0.212960
    42  O   -0.256768
    43  O   -0.304920
    44  C    0.157519
    45  H   -0.017736
    46  H   -0.016925
    47  H   -0.041397
    48  H    0.001027
    49  H   -0.004225
    50  H    0.025535
    51  H    0.016438
    52  H    0.016558
    53  H    0.010942
    54  H    0.044341
    55  H    0.017940
    56  H    0.017653
    57  H    0.005761
    58  H    0.026754
    59  H    0.039192
    60  H    0.037327
    61  H    0.035549
    62  H    0.031255
    63  H    0.016446
    64  H    0.009508
    65  H    0.023145
    66  H    0.012547
    67  H    0.004764
    68  H    0.006294
    69  H    0.004841
    70  H    0.008638
    71  H    0.018050
    72  H    0.029072
    73  H    0.048029
    74  H    0.009121
    75  H    0.046035
    76  H    0.035137
    77  H    0.043126
    78  H    0.046102
    79  H    0.054203
    80  Mg   0.837756
    81  C   -0.016751
    82  C   -0.087883
    83  C   -0.045577
    84  C   -0.064783
    85  N   -0.254510
    86  C   -0.049713
    87  C   -0.015107
    88  C   -0.090524
    89  C    0.045720
    90  C    0.114376
    91  C    0.062567
    92  C   -0.077751
    93  H    0.034759
    94  N   -0.423429
    95  C    0.162795
    96  C   -0.174843
    97  C   -0.007965
    98  C    0.152036
    99  C    0.099475
   100  C    0.015429
   101  O   -0.253346
   102  C    0.061260
   103  N   -0.350020
   104  C    0.037482
   105  C   -0.019790
   106  C   -0.034874
   107  C    0.089019
   108  C    0.073683
   109  C    0.034749
   110  C   -0.007651
   111  N   -0.324223
   112  C    0.078581
   113  C   -0.162885
   114  C    0.002635
   115  C    0.096167
   116  C    0.131431
   117  C    0.042846
   118  O   -0.187029
   119  C    0.000747
   120  C    0.211270
   121  O   -0.251225
   122  O   -0.305445
   123  C    0.152074
   124  H   -0.020022
   125  H   -0.015735
   126  H   -0.040325
   127  H   -0.000440
   128  H   -0.004630
   129  H    0.022993
   130  H    0.014378
   131  H    0.015748
   132  H    0.013801
   133  H    0.037730
   134  H    0.020753
   135  H    0.019346
   136  H    0.008521
   137  H    0.025826
   138  H    0.039556
   139  H    0.038089
   140  H    0.036197
   141  H    0.033809
   142  H    0.014241
   143  H    0.012547
   144  H    0.024950
   145  H    0.011677
   146  H    0.005741
   147  H    0.006128
   148  H    0.003707
   149  H    0.010830
   150  H    0.017853
   151  H    0.030158
   152  H    0.046119
   153  H    0.008304
   154  H    0.048034
   155  H    0.035794
   156  H    0.044115
   157  H    0.049197
   158  H    0.053472
 Sum of Mulliken charges =  -0.00000

 Dipole moment (field-independent basis, Debye):
    X=             -2.3664    Y=             -2.2494    Z=             -8.1290  Tot=              8.7602
 Quadrupole moment (field-independent basis, Debye-Ang):
   XX=           -494.8303   YY=           -545.0375   ZZ=           -453.9526
   XY=              6.7922   XZ=             -5.4051   YZ=            -53.2299

 Normal termination of Gaussian 16 at Sun Sep 12 05:15:49 2021.
