 Gaussian 16, Revision A.03,
 Gaussian 16:  ES64L-G16RevA.03 25-Dec-2016

 -----------------------------------
 #p cam-b3lyp/Def2SVP td=(nstates=5)
 -----------------------------------

 --------------------------------
 TDDFT excited states in gaussian
 --------------------------------
 Symbolic Z-matrix:
 Charge =  0 Multiplicity = 1

                         Standard orientation:
 ---------------------------------------------------------------------
 Center     Atomic      Atomic             Coordinates (Angstroms)
 Number     Number       Type             X           Y           Z
 ---------------------------------------------------------------------
      1         12           0        3.978320    1.122596    0.531016
      2          6           0        4.779016   -2.004971   -1.014758
      3          6           0        4.908783    2.631964   -2.384308
      4          6           0        3.713141    3.911509    2.017041
      5          6           0        4.204084   -0.506487    3.603601
      6          7           0        4.729371    0.309126   -1.385969
      7          6           0        4.934437   -0.911843   -1.870071
      8          6           0        5.257115   -0.925994   -3.394228
      9          6           0        5.818245    0.558571   -3.546532
     10          6           0        5.082242    1.216026   -2.392419
     11          6           0        7.319213    0.670903   -3.299593
     12          6           0        3.978639   -1.147931   -4.270570
     13          6           0        4.244730   -1.499360   -5.737215
     14          1           0        3.349491   -2.430014   -6.407869
     15          7           0        3.797584    2.950176   -0.197089
     16          6           0        4.218235    3.384164   -1.409522
     17          6           0        3.853839    4.815623   -1.478970
     18          6           0        3.358216    5.224687   -0.135423
     19          6           0        3.631277    4.036598    0.632210
     20          6           0        3.944358    5.627757   -2.734356
     21          6           0        2.746701    6.489844    0.377957
     22          8           0        2.601629    6.716867    1.627753
     23          6           0        2.398390    7.507384   -0.630176
     24          7           0        4.175203    1.690885    2.529996
     25          6           0        3.951211    2.952361    2.914039
     26          6           0        3.873164    3.062638    4.407922
     27          6           0        3.848887    1.564913    4.961080
     28          6           0        4.008524    0.813993    3.616125
     29          6           0        5.013816    3.837313    5.082312
     30          6           0        2.669192    1.176394    5.887251
     31          6           0        1.377113    1.179709    5.101363
     32          7           0        4.236475   -0.924974    1.203219
     33          6           0        4.324898   -1.372193    2.529436
     34          6           0        4.605452   -2.818873    2.479687
     35          6           0        4.677654   -3.111455    1.119162
     36          6           0        4.482292   -1.917969    0.367021
     37          6           0        4.815798   -3.666090    3.603258
     38          6           0        4.898866   -4.150186    0.126208
     39          8           0        5.023815   -5.375063    0.165674
     40          6           0        5.094428   -3.453748   -1.292438
     41          6           0        4.227809   -4.185064   -2.281102
     42          8           0        2.983495   -4.139321   -2.197700
     43          8           0        4.985656   -4.622186   -3.298518
     44          6           0        4.182179   -5.331274   -4.329913
     45          1           0        5.393787    3.227597   -3.160150
     46          1           0        3.516808    4.832397    2.570083
     47          1           0        4.203739   -1.097118    4.521538
     48          1           0        6.021161   -1.644986   -3.690385
     49          1           0        5.520949    1.010949   -4.492413
     50          1           0        7.733918   -0.267794   -2.932456
     51          1           0        7.433193    1.455812   -2.551650
     52          1           0        7.832722    1.030293   -4.191739
     53          1           0        3.461126   -0.197213   -4.398542
     54          1           0        3.335225   -1.909390   -3.828390
     55          1           0        5.284224   -1.787897   -5.895669
     56          1           0        4.120781   -0.595014   -6.333030
     57          1           0        4.497609    5.102676   -3.512013
     58          1           0        4.557498    6.499370   -2.506194
     59          1           0        2.964192    5.949757   -3.086382
     60          1           0        3.295840    7.790707   -1.180504
     61          1           0        1.891496    8.305589   -0.089086
     62          1           0        1.718978    7.064338   -1.358914
     63          1           0        2.960638    3.571788    4.715312
     64          1           0        4.736722    1.331717    5.549333
     65          1           0        4.674116    4.677917    5.687866
     66          1           0        5.702139    4.168142    4.305103
     67          1           0        5.668948    3.232773    5.709011
     68          1           0        2.559387    1.906842    6.688085
     69          1           0        2.788204    0.195320    6.347230
     70          1           0        1.083685    2.228705    5.119774
     71          1           0        0.630280    0.556688    5.594615
     72          1           0        1.544263    0.906349    4.059336
     73          1           0        4.258550   -4.581314    3.403734
     74          1           0        4.480888   -3.191445    4.525294
     75          1           0        5.898289   -3.786984    3.565153
     76          1           0        6.152931   -3.534148   -1.537856
     77          1           0        4.622002   -6.320774   -4.455126
     78          1           0        4.150731   -4.677534   -5.201715
     79          1           0        3.161497   -5.593742   -4.049453
     80         12           0       -4.882280   -0.168760   -0.276116
     81          6           0       -2.052742   -2.209314    0.565851
     82          6           0       -2.741617    2.483569   -0.407776
     83          6           0       -7.408340    1.727961   -0.574368
     84          6           0       -6.910121   -2.688484    1.021777
     85          7           0       -2.701124   -0.009863    0.054894
     86          6           0       -1.720247   -0.862840    0.309152
     87          6           0       -0.295983   -0.253918    0.207941
     88          6           0       -0.673076    1.284784    0.470734
     89          6           0       -2.118594    1.269797   -0.022146
     90          6           0       -0.674328    1.661113    1.943046
     91          6           0        0.340484   -0.454896   -1.212107
     92          6           0        1.840355   -0.162055   -1.291899
     93          1           0        2.662141   -0.976613   -2.182756
     94          7           0       -5.015850    1.697828   -0.936865
     95          6           0       -4.042823    2.632967   -0.935879
     96          6           0       -4.649336    3.845278   -1.507355
     97          6           0       -6.105100    3.598501   -1.693326
     98          6           0       -6.239558    2.311040   -1.041827
     99          6           0       -3.845450    5.052646   -1.893932
    100          6           0       -7.198078    4.395917   -2.338100
    101          8           0       -8.434203    4.098709   -2.175400
    102          6           0       -6.783024    5.589844   -3.088956
    103          7           0       -6.857334   -0.342093    0.349554
    104          6           0       -7.764793    0.601774    0.043675
    105          6           0       -9.165839    0.133279    0.356664
    106          6           0       -9.030021   -1.419952    0.712478
    107          6           0       -7.494866   -1.565942    0.626655
    108          6           0       -9.869008    0.858344    1.503927
    109          6           0       -9.912923   -2.407571   -0.098549
    110          6           0       -9.461432   -2.438369   -1.540977
    111          7           0       -4.586523   -2.177269    0.463109
    112          6           0       -5.569025   -3.048125    0.983090
    113          6           0       -4.868958   -4.257088    1.463449
    114          6           0       -3.514601   -3.993927    1.208566
    115          6           0       -3.378175   -2.703116    0.630033
    116          6           0       -5.481239   -5.379786    2.088583
    117          6           0       -2.168343   -4.510210    1.307144
    118          8           0       -1.672986   -5.587588    1.635194
    119          6           0       -1.150089   -3.326050    1.011647
    120          6           0       -0.123239   -3.829397    0.034545
    121          8           0       -0.451879   -4.139427   -1.124115
    122          8           0        1.104434   -3.656429    0.557306
    123          6           0        2.157591   -4.130605   -0.379637
    124          1           0       -2.199654    3.416952   -0.253021
    125          1           0       -8.323691    2.296315   -0.754808
    126          1           0       -7.480878   -3.559900    1.349734
    127          1           0        0.400674   -0.600035    0.962039
    128          1           0       -0.068583    1.949603   -0.140795
    129          1           0       -0.536387    0.799498    2.579239
    130          1           0       -1.637340    2.118392    2.128963
    131          1           0        0.070548    2.438964    2.133945
    132          1           0       -0.038921    0.322424   -1.887803
    133          1           0        0.145134   -1.443095   -1.580789
    134          1           0        2.300655   -0.095030   -0.298631
    135          1           0        1.977121    0.834608   -1.718477
    136          1           0       -2.827895    5.005621   -1.486793
    137          1           0       -4.299573    5.913492   -1.391346
    138          1           0       -3.845873    5.231700   -2.971247
    139          1           0       -6.243871    6.263384   -2.427053
    140          1           0       -7.693943    5.976260   -3.550244
    141          1           0       -6.077579    5.284361   -3.869758
    142          1           0       -9.811446    0.240957   -0.506290
    143          1           0       -9.307213   -1.624415    1.757090
    144          1           0      -10.832392    1.314141    1.206905
    145          1           0       -9.197008    1.610612    1.895134
    146          1           0      -10.068859    0.247603    2.382699
    147          1           0      -10.951782   -2.068645   -0.105671
    148          1           0       -9.906426   -3.417687    0.297201
    149          1           0       -9.967056   -1.571280   -1.976387
    150          1           0       -9.777413   -3.362036   -2.021641
    151          1           0       -8.381992   -2.264193   -1.619309
    152          1           0       -5.029646   -6.262191    1.655093
    153          1           0       -6.560042   -5.374135    1.947378
    154          1           0       -5.202648   -5.199008    3.130198
    155          1           0       -0.702139   -3.034282    1.962323
    156          1           0        2.763054   -4.862339    0.164109
    157          1           0        2.671115   -3.218712   -0.738115
    158          1           0        1.840586   -4.713375   -1.236569
 ---------------------------------------------------------------------

 SCF Done:  E(RCAM-B3LYP) =  -4069.71913707     A.U. after   19 cycles

 Excitation energies and oscillator strengths:

 Excited State   1:      Singlet-A      1.6097 eV  770.24 nm  f=0.0565  <S**2>=0.000
     309 -> 315        0.14610
     311 -> 313        0.60837
     312 -> 314       -0.32251
 This state for optimization and/or second-order correction.
 Total Energy, E(TD-HF/TD-DFT) =  -4069.65998246
 Copying the excited state density for this state as the 1-particle RhoCI density.

 Excited State   2:      Singlet-A      1.6953 eV  731.35 nm  f=0.6108  <S**2>=0.000
     310 -> 316        0.15640
     311 -> 313        0.31905
     312 -> 314        0.60510

 Excited State   3:      Singlet-A      2.0630 eV  600.99 nm  f=0.0002  <S**2>=0.000
     312 -> 313        0.70459

 Excited State   4:      Singlet-A      2.1451 eV  577.98 nm  f=0.0798  <S**2>=0.000
     309 -> 313        0.64313
     311 -> 315       -0.26930

 Excited State   5:      Singlet-A      2.1761 eV  569.75 nm  f=0.1210  <S**2>=0.000
     310 -> 314        0.64259
     312 -> 316       -0.26805

 The electronic state is 1-A.
 Alpha  occ. eigenvalues --  -46.88157 -46.87092 -19.27656 -19.22359 -19.20080
 Alpha  occ. eigenvalues --  -19.19386 -19.18990 -19.18261 -19.17143 -19.16625
 Alpha  occ. eigenvalues --  -14.42645 -14.41973 -14.41947 -14.40778 -14.39884
 Alpha  occ. eigenvalues --  -14.39030 -14.38789 -14.37999 -10.40810 -10.36601
 Alpha  occ. eigenvalues --  -10.36010 -10.35477 -10.34952 -10.33240 -10.32549
 Alpha  occ. eigenvalues --  -10.31976 -10.31560 -10.31168 -10.31022 -10.30692
 Alpha  occ. eigenvalues --  -10.30686 -10.30420 -10.30397 -10.30156 -10.29818
 Alpha  occ. eigenvalues --  -10.29738 -10.29733 -10.29658 -10.29477 -10.29326
 Alpha  occ. eigenvalues --  -10.29177 -10.28951 -10.28922 -10.28830 -10.28708
 Alpha  occ. eigenvalues --  -10.28435 -10.28400 -10.28237 -10.28206 -10.28167
 Alpha  occ. eigenvalues --  -10.28102 -10.28057 -10.27978 -10.27896 -10.27864
 Alpha  occ. eigenvalues --  -10.27735 -10.27600 -10.27568 -10.27397 -10.27125
 Alpha  occ. eigenvalues --  -10.27099 -10.27088 -10.26958 -10.26940 -10.26904
 Alpha  occ. eigenvalues --  -10.26767 -10.26738 -10.26535 -10.26502 -10.26133
 Alpha  occ. eigenvalues --  -10.26087 -10.25983 -10.25794 -10.25776 -10.25707
 Alpha  occ. eigenvalues --  -10.25647 -10.25439 -10.25388 -10.25365 -10.25346
 Alpha  occ. eigenvalues --  -10.25335 -10.25026 -10.25015 -10.24383 -10.24222
 Alpha  occ. eigenvalues --  -10.24107  -3.16910  -3.15843  -1.91795  -1.91378
 Alpha  occ. eigenvalues --   -1.91224  -1.90726  -1.90314  -1.90150  -1.18314
 Alpha  occ. eigenvalues --   -1.13255  -1.10071  -1.09329  -1.07785  -1.07640
 Alpha  occ. eigenvalues --   -1.06524  -1.05122  -1.04279  -1.04246  -1.03895
 Alpha  occ. eigenvalues --   -1.03757  -1.03090  -1.02930  -1.02470  -1.01523
 Alpha  occ. eigenvalues --   -0.92885  -0.91157  -0.90067  -0.89827  -0.88931
 Alpha  occ. eigenvalues --   -0.88777  -0.88597  -0.88366  -0.88244  -0.87814
 Alpha  occ. eigenvalues --   -0.87710  -0.87227  -0.87130  -0.86638  -0.85674
 Alpha  occ. eigenvalues --   -0.84505  -0.84449  -0.83510  -0.83349  -0.83317
 Alpha  occ. eigenvalues --   -0.82498  -0.82447  -0.82005  -0.81271  -0.80422
 Alpha  occ. eigenvalues --   -0.79367  -0.78944  -0.78095  -0.77769  -0.77645
 Alpha  occ. eigenvalues --   -0.76715  -0.76581  -0.76211  -0.75413  -0.74984
 Alpha  occ. eigenvalues --   -0.74139  -0.73294  -0.72279  -0.72137  -0.70996
 Alpha  occ. eigenvalues --   -0.70340  -0.69574  -0.69330  -0.68435  -0.68295
 Alpha  occ. eigenvalues --   -0.67933  -0.67146  -0.66920  -0.66067  -0.65704
 Alpha  occ. eigenvalues --   -0.65289  -0.64819  -0.64739  -0.64221  -0.64186
 Alpha  occ. eigenvalues --   -0.63717  -0.62963  -0.61421  -0.60972  -0.60388
 Alpha  occ. eigenvalues --   -0.59919  -0.59823  -0.59610  -0.59244  -0.58936
 Alpha  occ. eigenvalues --   -0.58312  -0.57931  -0.57711  -0.57282  -0.56770
 Alpha  occ. eigenvalues --   -0.56757  -0.56340  -0.56067  -0.55664  -0.55598
 Alpha  occ. eigenvalues --   -0.55145  -0.54934  -0.54667  -0.54633  -0.54289
 Alpha  occ. eigenvalues --   -0.53878  -0.53842  -0.53648  -0.53403  -0.53257
 Alpha  occ. eigenvalues --   -0.53017  -0.52874  -0.52669  -0.52511  -0.52350
 Alpha  occ. eigenvalues --   -0.52334  -0.52040  -0.51987  -0.51931  -0.51322
 Alpha  occ. eigenvalues --   -0.51249  -0.51066  -0.51051  -0.50680  -0.50447
 Alpha  occ. eigenvalues --   -0.50426  -0.50077  -0.50031  -0.49769  -0.49596
 Alpha  occ. eigenvalues --   -0.49497  -0.49373  -0.49169  -0.49032  -0.48964
 Alpha  occ. eigenvalues --   -0.48839  -0.48680  -0.48375  -0.48274  -0.47992
 Alpha  occ. eigenvalues --   -0.47920  -0.47745  -0.47636  -0.47553  -0.47212
 Alpha  occ. eigenvalues --   -0.46975  -0.46846  -0.46768  -0.46583  -0.46248
 Alpha  occ. eigenvalues --   -0.46147  -0.45863  -0.45763  -0.45633  -0.45413
 Alpha  occ. eigenvalues --   -0.45337  -0.45210  -0.45036  -0.44823  -0.44670
 Alpha  occ. eigenvalues --   -0.44562  -0.44518  -0.44302  -0.44187  -0.44134
 Alpha  occ. eigenvalues --   -0.43872  -0.43723  -0.43690  -0.43643  -0.43246
 Alpha  occ. eigenvalues --   -0.43200  -0.42963  -0.42911  -0.42590  -0.42452
 Alpha  occ. eigenvalues --   -0.42216  -0.42112  -0.42075  -0.41780  -0.41660
 Alpha  occ. eigenvalues --   -0.41493  -0.41390  -0.41306  -0.41154  -0.41031
 Alpha  occ. eigenvalues --   -0.40879  -0.40764  -0.40402  -0.40284  -0.40063
 Alpha  occ. eigenvalues --   -0.39879  -0.39858  -0.39705  -0.39429  -0.39005
 Alpha  occ. eigenvalues --   -0.38793  -0.38395  -0.38007  -0.37771  -0.37731
 Alpha  occ. eigenvalues --   -0.37164  -0.36778  -0.36705  -0.36151  -0.35857
 Alpha  occ. eigenvalues --   -0.35506  -0.34802  -0.34581  -0.33691  -0.33638
 Alpha  occ. eigenvalues --   -0.32692  -0.32076  -0.31853  -0.31573  -0.30977
 Alpha  occ. eigenvalues --   -0.30817  -0.30464  -0.29962  -0.29909  -0.29598
 Alpha  occ. eigenvalues --   -0.28976  -0.28780  -0.28561  -0.24585  -0.23395
 Alpha  occ. eigenvalues --   -0.21598  -0.20560
 Alpha virt. eigenvalues --   -0.09383  -0.08198  -0.02341  -0.01140  -0.00787
 Alpha virt. eigenvalues --    0.00489   0.01330   0.02713   0.02923   0.03410
 Alpha virt. eigenvalues --    0.03807   0.04583   0.05433   0.05670   0.06091

 Mulliken charges:
               1
     1  Mg   0.664697
     2  C    0.008323
     3  C   -0.096067
     4  C   -0.048121
     5  C   -0.062979
     6  N   -0.235815
     7  C   -0.109101
     8  C   -0.008446
     9  C   -0.080000
    10  C    0.051887
    11  C    0.105020
    12  C    0.019281
    13  C   -0.061630
    14  H    0.042140
    15  N   -0.426280
    16  C    0.169000
    17  C   -0.178741
    18  C   -0.004918
    19  C    0.149244
    20  C    0.110664
    21  C    0.009754
    22  O   -0.248426
    23  C    0.063172
    24  N   -0.321660
    25  C    0.041549
    26  C   -0.027235
    27  C   -0.024764
    28  C    0.073589
    29  C    0.076129
    30  C    0.040628
    31  C   -0.017038
    32  N   -0.306040
    33  C    0.081572
    34  C   -0.172367
    35  C    0.060150
    36  C    0.073459
    37  C    0.127557
    38  C   -0.024904
    39  O   -0.188576
    40  C   -0.003876
    41  C    0.259524
    42  O   -0.284620
    43  O   -0.297065
    44  C    0.151859
    45  H   -0.017838
    46  H   -0.017004
    47  H   -0.040318
    48  H   -0.002060
    49  H   -0.004127
    50  H    0.025750
    51  H    0.018756
    52  H    0.017818
    53  H    0.018142
    54  H    0.065137
    55  H    0.018924
    56  H    0.020208
    57  H    0.006749
    58  H    0.027968
    59  H    0.038801
    60  H    0.038987
    61  H    0.036628
    62  H    0.029281
    63  H    0.016310
    64  H    0.010631
    65  H    0.023999
    66  H    0.012989
    67  H    0.005919
    68  H    0.007075
    69  H    0.006014
    70  H    0.010249
    71  H    0.021413
    72  H    0.030532
    73  H    0.052595
    74  H    0.010889
    75  H    0.046503
    76  H    0.042931
    77  H    0.048851
    78  H    0.050539
    79  H    0.061663
    80  Mg   0.835384
    81  C   -0.014778
    82  C   -0.089433
    83  C   -0.046941
    84  C   -0.067269
    85  N   -0.253745
    86  C   -0.047975
    87  C   -0.023516
    88  C   -0.102463
    89  C    0.045677
    90  C    0.102992
    91  C    0.122253
    92  C   -0.165705
    93  H    0.096582
    94  N   -0.423280
    95  C    0.161682
    96  C   -0.175552
    97  C   -0.009432
    98  C    0.151777
    99  C    0.099933
   100  C    0.014491
   101  O   -0.254728
   102  C    0.061716
   103  N   -0.350632
   104  C    0.037066
   105  C   -0.019303
   106  C   -0.034774
   107  C    0.089848
   108  C    0.074196
   109  C    0.035095
   110  C   -0.007429
   111  N   -0.324211
   112  C    0.079411
   113  C   -0.164804
   114  C    0.003829
   115  C    0.094436
   116  C    0.131683
   117  C    0.038859
   118  O   -0.185561
   119  C    0.011786
   120  C    0.218807
   121  O   -0.263662
   122  O   -0.320465
   123  C    0.158988
   124  H   -0.019116
   125  H   -0.017361
   126  H   -0.041916
   127  H    0.005471
   128  H    0.003565
   129  H    0.030406
   130  H    0.012128
   131  H    0.025174
   132  H    0.002703
   133  H    0.038974
   134  H    0.083944
   135  H    0.066941
   136  H    0.006858
   137  H    0.025139
   138  H    0.036383
   139  H    0.037567
   140  H    0.034805
   141  H    0.032416
   142  H    0.013264
   143  H    0.011494
   144  H    0.023848
   145  H    0.011461
   146  H    0.004560
   147  H    0.005123
   148  H    0.003108
   149  H    0.010308
   150  H    0.016886
   151  H    0.030872
   152  H    0.046127
   153  H    0.007065
   154  H    0.045795
   155  H    0.029374
   156  H    0.050382
   157  H    0.054864
   158  H    0.059120
 Sum of Mulliken charges =  -0.00000

 Dipole moment (field-independent basis, Debye):
    X=              5.2003    Y=              6.3154    Z=             -2.7862  Tot=              8.6423
 Quadrupole moment (field-independent basis, Debye-Ang):
   XX=           -493.1438   YY=           -547.6565   ZZ=           -468.8671
   XY=             27.4358   XZ=            -29.9002   YZ=             -9.1437

 Normal termination of Gaussian 16 at Thu Sep  9 23:41:59 2021.
