 Gaussian 16, Revision A.03,
 Gaussian 16:  ES64L-G16RevA.03 25-Dec-2016

 -----------------------------------
 #p cam-b3lyp/Def2SVP td=(nstates=5)
 -----------------------------------

 --------------------------------
 TDDFT excited states in gaussian
 --------------------------------
 Symbolic Z-matrix:
 Charge =  0 Multiplicity = 1

                         Standard orientation:
 ---------------------------------------------------------------------
 Center     Atomic      Atomic             Coordinates (Angstroms)
 Number     Number       Type             X           Y           Z
 ---------------------------------------------------------------------
      1         12           0        3.885506    1.554483    0.797791
      2          6           0        4.955161   -1.780646    0.059569
      3          6           0        5.050972    2.450695   -2.281423
      4          6           0        3.366900    4.578010    1.601500
      5          6           0        3.857915    0.643275    4.161509
      6          7           0        4.857468    0.391753   -0.815899
      7          6           0        5.156020   -0.890776   -0.997990
      8          6           0        5.632414   -1.214727   -2.445567
      9          6           0        6.150496    0.232205   -2.869804
     10          6           0        5.276925    1.079052   -1.961152
     11          6           0        7.613321    0.482933   -2.517980
     12          6           0        4.458895   -1.695135   -3.364148
     13          6           0        4.885734   -2.338715   -4.686634
     14          1           0        4.098637   -3.443021   -5.214208
     15          7           0        3.711915    3.167962   -0.328886
     16          6           0        4.237310    3.353833   -1.563673
     17          6           0        3.828859    4.712673   -1.980087
     18          6           0        3.184221    5.372405   -0.810776
     19          6           0        3.421774    4.396152    0.221637
     20          6           0        4.016365    5.238493   -3.370089
     21          6           0        2.476988    6.680513   -0.647045
     22          8           0        2.197150    7.163112    0.503330
     23          6           0        2.195444    7.434207   -1.882245
     24          7           0        3.856679    2.551478    2.631586
     25          6           0        3.547986    3.850777    2.705848
     26          6           0        3.314287    4.276212    4.125119
     27          6           0        3.289599    2.934448    4.990458
     28          6           0        3.613094    1.921537    3.864566
     29          6           0        4.350775    5.243676    4.713096
     30          6           0        2.037065    2.686624    5.868045
     31          6           0        0.832435    2.444491    4.986377
     32          7           0        4.149936   -0.280946    1.925764
     33          6           0        4.119532   -0.425324    3.320362
     34          6           0        4.457331   -1.829646    3.616741
     35          6           0        4.678435   -2.404317    2.366657
     36          6           0        4.516343   -1.414908    1.355179
     37          6           0        4.583637   -2.400494    4.913897
     38          6           0        5.038034   -3.618142    1.651692
     39          8           0        5.203811   -4.796136    1.971598
     40          6           0        5.350882   -3.234179    0.138244
     41          6           0        4.617179   -4.211180   -0.739513
     42          8           0        3.370001   -4.221485   -0.782020
     43          8           0        5.490357   -4.812486   -1.562030
     44          6           0        4.822945   -5.773348   -2.480431
     45          1           0        5.589902    2.892143   -3.122029
     46          1           0        3.081180    5.583460    1.917528
     47          1           0        3.786146    0.265773    5.183171
     48          1           0        6.448853   -1.934678   -2.504929
     49          1           0        5.934364    0.451489   -3.915234
     50          1           0        8.023158   -0.328416   -1.916592
     51          1           0        7.621317    1.416107   -1.954406
     52          1           0        8.201214    0.670685   -3.416818
     53          1           0        3.922072   -0.826457   -3.745305
     54          1           0        3.802610   -2.379524   -2.825421
     55          1           0        5.945969   -2.593254   -4.682119
     56          1           0        4.789489   -1.593184   -5.476014
     57          1           0        4.665027    4.591236   -3.959021
     58          1           0        4.570245    6.173196   -3.284906
     59          1           0        3.065807    5.418911   -3.872304
     60          1           0        3.133066    7.644110   -2.397371
     61          1           0        1.606774    8.299308   -1.579066
     62          1           0        1.610671    6.805255   -2.554114
     63          1           0        2.356908    4.785366    4.228144
     64          1           0        4.121029    2.886175    5.694068
     65          1           0        3.920178    6.173813    5.084761
     66          1           0        5.101820    5.438646    3.948106
     67          1           0        4.960777    4.828139    5.514746
     68          1           0        1.819237    3.565026    6.474599
     69          1           0        2.145079    1.836694    6.541990
     70          1           0        0.499827    3.453688    4.746116
     71          1           0        0.062992    1.900000    5.534737
     72          1           0        1.114804    1.962880    4.049999
     73          1           0        4.084029   -3.368245    4.871239
     74          1           0        4.139215   -1.758432    5.674061
     75          1           0        5.668132   -2.463136    5.002221
     76          1           0        6.431118   -3.303517    0.014127
     77          1           0        5.309740   -6.739039   -2.343668
     78          1           0        4.856064   -5.326238   -3.474112
     79          1           0        3.789500   -6.028407   -2.243206
     80         12           0       -4.798165   -0.399608   -0.510943
     81          6           0       -2.266173   -2.933986   -0.298750
     82          6           0       -2.590765    1.441210   -2.347610
     83          6           0       -6.831982    2.029532   -0.336909
     84          6           0       -6.334377   -1.900513    2.233701
     85          7           0       -2.726291   -0.802284   -1.172349
     86          6           0       -1.889150   -1.824939   -1.084426
     87          6           0       -0.607658   -1.683262   -1.948862
     88          6           0       -0.569315   -0.081784   -2.061365
     89          6           0       -2.057895    0.211305   -1.885587
     90          6           0        0.186167    0.583570   -0.922984
     91          6           0       -0.760494   -2.354630   -3.358797
     92          6           0        0.547261   -2.525369   -4.134931
     93          1           0        0.709875   -3.710424   -4.972599
     94          7           0       -4.935177    1.242403   -1.617098
     95          6           0       -3.945276    1.839307   -2.313571
     96          6           0       -4.552150    3.023608   -2.940705
     97          6           0       -5.940401    3.168282   -2.424439
     98          6           0       -5.949485    2.141942   -1.401394
     99          6           0       -3.849912    3.840684   -3.986015
    100          6           0       -7.068438    4.087856   -2.782388
    101          8           0       -8.109019    4.196990   -2.042054
    102          6           0       -6.877904    4.925661   -3.975399
    103          7           0       -6.240311    0.134396    0.888125
    104          6           0       -7.024078    1.210074    0.696971
    105          6           0       -8.163134    1.238097    1.688001
    106          6           0       -8.119684   -0.176579    2.432589
    107          6           0       -6.852840   -0.768786    1.777012
    108          6           0       -8.115441    2.360258    2.724756
    109          6           0       -9.423555   -1.020571    2.416728
    110          6           0       -9.720685   -1.484935    1.009079
    111          7           0       -4.505590   -2.203796    0.641167
    112          6           0       -5.246762   -2.627067    1.766153
    113          6           0       -4.601490   -3.854290    2.276026
    114          6           0       -3.507469   -4.048552    1.419371
    115          6           0       -3.461574   -3.004115    0.456796
    116          6           0       -5.011390   -4.596073    3.419649
    117          6           0       -2.374822   -4.893776    1.117037
    118          8           0       -1.958549   -5.972083    1.538598
    119          6           0       -1.447298   -4.140103    0.069148
    120          6           0       -1.099190   -5.111089   -1.025622
    121          8           0       -1.981548   -5.553720   -1.782015
    122          8           0        0.239474   -5.188083   -1.137094
    123          6           0        0.633967   -6.130738   -2.217643
    124          1           0       -1.901830    2.192041   -2.735559
    125          1           0       -7.621862    2.783203   -0.297677
    126          1           0       -6.809828   -2.482503    3.026102
    127          1           0        0.299296   -2.044836   -1.479305
    128          1           0       -0.231321    0.237169   -3.043905
    129          1           0        0.472472   -0.125661   -0.160648
    130          1           0       -0.488756    1.324956   -0.515712
    131          1           0        1.043759    1.138893   -1.313479
    132          1           0       -1.287943   -1.663780   -4.029064
    133          1           0       -1.259009   -3.300995   -3.278142
    134          1           0        1.427339   -2.382555   -3.496170
    135          1           0        0.619459   -1.723615   -4.873847
    136          1           0       -2.782524    3.593369   -4.039934
    137          1           0       -3.870683    4.881601   -3.645536
    138          1           0       -4.332825    3.778918   -4.963592
    139          1           0       -5.991688    5.542345   -3.845829
    140          1           0       -7.825482    5.448265   -4.119849
    141          1           0       -6.684360    4.272980   -4.833984
    142          1           0       -9.114735    1.339113    1.180688
    143          1           0       -7.896832   -0.066409    3.504048
    144          1           0       -9.019787    2.997615    2.720001
    145          1           0       -7.230074    2.955061    2.543451
    146          1           0       -7.967672    2.033392    3.752626
    147          1           0      -10.274205   -0.409256    2.727936
    148          1           0       -9.388326   -1.882285    3.074914
    149          1           0      -10.229617   -0.623083    0.567168
    150          1           0      -10.366717   -2.360428    1.022854
    151          1           0       -8.795142   -1.646440    0.444324
    152          1           0       -4.963444   -5.641723    3.146126
    153          1           0       -6.012293   -4.313389    3.739113
    154          1           0       -4.248067   -4.284888    4.137834
    155          1           0       -0.562972   -3.792794    0.604779
    156          1           0        1.301922   -6.871484   -1.767289
    157          1           0        1.051681   -5.501105   -3.025614
    158          1           0       -0.137960   -6.767408   -2.633862
 ---------------------------------------------------------------------

 SCF Done:  E(RCAM-B3LYP) =  -4069.81304935     A.U. after   19 cycles

 Excitation energies and oscillator strengths:

 Excited State   1:      Singlet-A      1.6426 eV  754.78 nm  f=0.0012  <S**2>=0.000
     309 -> 315        0.11925
     310 -> 316       -0.11491
     311 -> 313        0.49241
     312 -> 314       -0.48049
 This state for optimization and/or second-order correction.
 Total Energy, E(TD-HF/TD-DFT) =  -4069.75268333
 Copying the excited state density for this state as the 1-particle RhoCI density.

 Excited State   2:      Singlet-A      1.7054 eV  727.02 nm  f=0.6849  <S**2>=0.000
     309 -> 315        0.12779
     310 -> 316        0.12933
     311 -> 313        0.47755
     312 -> 314        0.48949

 Excited State   3:      Singlet-A      2.1791 eV  568.96 nm  f=0.0561  <S**2>=0.000
     309 -> 313        0.26400
     310 -> 314        0.58713
     311 -> 315       -0.10944
     312 -> 316       -0.24458

 Excited State   4:      Singlet-A      2.1932 eV  565.31 nm  f=0.1307  <S**2>=0.000
     309 -> 313        0.57089
     310 -> 314       -0.26256
     311 -> 315       -0.25079
     312 -> 313       -0.12976
     312 -> 316        0.11631

 Excited State   5:      Singlet-A      2.2329 eV  555.26 nm  f=0.0036  <S**2>=0.000
     309 -> 313        0.12251
     312 -> 313        0.69314

 The electronic state is 1-A.
 Alpha  occ. eigenvalues --  -46.88168 -46.87362 -19.26665 -19.25297 -19.19444
 Alpha  occ. eigenvalues --  -19.19140 -19.18470 -19.18423 -19.18372 -19.17575
 Alpha  occ. eigenvalues --  -14.42805 -14.42201 -14.41774 -14.41060 -14.39759
 Alpha  occ. eigenvalues --  -14.39057 -14.38923 -14.38288 -10.39443 -10.38263
 Alpha  occ. eigenvalues --  -10.35775 -10.35155 -10.34653 -10.33722 -10.32092
 Alpha  occ. eigenvalues --  -10.31752 -10.31295 -10.30985 -10.30922 -10.30910
 Alpha  occ. eigenvalues --  -10.30823 -10.30675 -10.30528 -10.30208 -10.30086
 Alpha  occ. eigenvalues --  -10.30030 -10.29948 -10.29898 -10.29594 -10.29592
 Alpha  occ. eigenvalues --  -10.29179 -10.29172 -10.29097 -10.28978 -10.28719
 Alpha  occ. eigenvalues --  -10.28494 -10.28275 -10.28225 -10.28106 -10.28079
 Alpha  occ. eigenvalues --  -10.28067 -10.27918 -10.27900 -10.27856 -10.27755
 Alpha  occ. eigenvalues --  -10.27740 -10.27696 -10.27685 -10.27480 -10.27401
 Alpha  occ. eigenvalues --  -10.27303 -10.27301 -10.27279 -10.27168 -10.27147
 Alpha  occ. eigenvalues --  -10.27121 -10.26770 -10.26549 -10.26374 -10.26367
 Alpha  occ. eigenvalues --  -10.26329 -10.26292 -10.26240 -10.26018 -10.25994
 Alpha  occ. eigenvalues --  -10.25951 -10.25657 -10.25643 -10.25582 -10.25195
 Alpha  occ. eigenvalues --  -10.25142 -10.25102 -10.24864 -10.24547 -10.24542
 Alpha  occ. eigenvalues --  -10.24384  -3.16876  -3.16113  -1.91758  -1.91346
 Alpha  occ. eigenvalues --   -1.91188  -1.90995  -1.90584  -1.90420  -1.17012
 Alpha  occ. eigenvalues --   -1.15664  -1.08877  -1.08140  -1.07539  -1.07020
 Alpha  occ. eigenvalues --   -1.06728  -1.06128  -1.04940  -1.04180  -1.04090
 Alpha  occ. eigenvalues --   -1.03566  -1.03359  -1.02744  -1.02741  -1.01808
 Alpha  occ. eigenvalues --   -0.92305  -0.91577  -0.89799  -0.89583  -0.89207
 Alpha  occ. eigenvalues --   -0.88840  -0.88557  -0.88149  -0.88027  -0.87959
 Alpha  occ. eigenvalues --   -0.87619  -0.87494  -0.87372  -0.86872  -0.85365
 Alpha  occ. eigenvalues --   -0.84689  -0.84194  -0.83597  -0.83292  -0.83007
 Alpha  occ. eigenvalues --   -0.82702  -0.82331  -0.81934  -0.81062  -0.80941
 Alpha  occ. eigenvalues --   -0.79991  -0.79125  -0.78365  -0.77541  -0.77277
 Alpha  occ. eigenvalues --   -0.76861  -0.76525  -0.76266  -0.75472  -0.75173
 Alpha  occ. eigenvalues --   -0.74490  -0.73082  -0.72405  -0.71991  -0.71277
 Alpha  occ. eigenvalues --   -0.70147  -0.69528  -0.69237  -0.68528  -0.67970
 Alpha  occ. eigenvalues --   -0.67641  -0.67266  -0.66870  -0.65670  -0.65192
 Alpha  occ. eigenvalues --   -0.64969  -0.64869  -0.64551  -0.64449  -0.64205
 Alpha  occ. eigenvalues --   -0.63893  -0.62646  -0.61598  -0.60765  -0.60174
 Alpha  occ. eigenvalues --   -0.60075  -0.59451  -0.59307  -0.58824  -0.58642
 Alpha  occ. eigenvalues --   -0.58055  -0.57910  -0.57611  -0.57066  -0.56792
 Alpha  occ. eigenvalues --   -0.56623  -0.56353  -0.55907  -0.55851  -0.55620
 Alpha  occ. eigenvalues --   -0.55332  -0.55050  -0.54844  -0.54804  -0.54301
 Alpha  occ. eigenvalues --   -0.53978  -0.53641  -0.53602  -0.53573  -0.53247
 Alpha  occ. eigenvalues --   -0.53124  -0.52916  -0.52799  -0.52666  -0.52445
 Alpha  occ. eigenvalues --   -0.52415  -0.52171  -0.52102  -0.52006  -0.51577
 Alpha  occ. eigenvalues --   -0.51501  -0.51331  -0.50928  -0.50812  -0.50334
 Alpha  occ. eigenvalues --   -0.50270  -0.50232  -0.49878  -0.49741  -0.49631
 Alpha  occ. eigenvalues --   -0.49545  -0.49422  -0.49224  -0.48941  -0.48832
 Alpha  occ. eigenvalues --   -0.48788  -0.48761  -0.48720  -0.48181  -0.48107
 Alpha  occ. eigenvalues --   -0.48024  -0.47991  -0.47620  -0.47270  -0.47107
 Alpha  occ. eigenvalues --   -0.46936  -0.46828  -0.46661  -0.46481  -0.46414
 Alpha  occ. eigenvalues --   -0.46253  -0.46119  -0.45974  -0.45688  -0.45471
 Alpha  occ. eigenvalues --   -0.45379  -0.44925  -0.44893  -0.44827  -0.44462
 Alpha  occ. eigenvalues --   -0.44425  -0.44338  -0.44203  -0.44116  -0.43884
 Alpha  occ. eigenvalues --   -0.43854  -0.43776  -0.43723  -0.43539  -0.43356
 Alpha  occ. eigenvalues --   -0.43205  -0.43115  -0.42930  -0.42812  -0.42587
 Alpha  occ. eigenvalues --   -0.42309  -0.42299  -0.42021  -0.41965  -0.41886
 Alpha  occ. eigenvalues --   -0.41648  -0.41458  -0.41287  -0.41223  -0.41191
 Alpha  occ. eigenvalues --   -0.41127  -0.40842  -0.40750  -0.40688  -0.40421
 Alpha  occ. eigenvalues --   -0.40414  -0.40196  -0.39765  -0.39657  -0.39195
 Alpha  occ. eigenvalues --   -0.38756  -0.38171  -0.38075  -0.37643  -0.37617
 Alpha  occ. eigenvalues --   -0.37313  -0.37050  -0.36985  -0.36869  -0.36514
 Alpha  occ. eigenvalues --   -0.36187  -0.35636  -0.34615  -0.34147  -0.33940
 Alpha  occ. eigenvalues --   -0.33524  -0.33192  -0.32811  -0.31668  -0.31372
 Alpha  occ. eigenvalues --   -0.31027  -0.30642  -0.30285  -0.29786  -0.29630
 Alpha  occ. eigenvalues --   -0.29451  -0.29039  -0.28885  -0.24420  -0.23710
 Alpha  occ. eigenvalues --   -0.21462  -0.20826
 Alpha virt. eigenvalues --   -0.09106  -0.08485  -0.02089  -0.01399  -0.00402
 Alpha virt. eigenvalues --    0.00231   0.01916   0.02569   0.02990   0.03547
 Alpha virt. eigenvalues --    0.04195   0.04611   0.04874   0.05412   0.05927

 Mulliken charges:
               1
     1  Mg   0.820992
     2  C   -0.002690
     3  C   -0.093908
     4  C   -0.044387
     5  C   -0.062328
     6  N   -0.254032
     7  C   -0.058441
     8  C    0.001282
     9  C   -0.086301
    10  C    0.043088
    11  C    0.104704
    12  C    0.014340
    13  C   -0.072079
    14  H    0.038629
    15  N   -0.434680
    16  C    0.163694
    17  C   -0.178842
    18  C   -0.005583
    19  C    0.148706
    20  C    0.110526
    21  C    0.011787
    22  O   -0.248468
    23  C    0.063210
    24  N   -0.338565
    25  C    0.040439
    26  C   -0.028028
    27  C   -0.024460
    28  C    0.075134
    29  C    0.075899
    30  C    0.034859
    31  C   -0.004854
    32  N   -0.310254
    33  C    0.080492
    34  C   -0.168334
    35  C    0.009683
    36  C    0.080013
    37  C    0.126669
    38  C    0.048754
    39  O   -0.185179
    40  C   -0.008321
    41  C    0.214589
    42  O   -0.255286
    43  O   -0.304141
    44  C    0.160037
    45  H   -0.017851
    46  H   -0.016454
    47  H   -0.040378
    48  H    0.000743
    49  H   -0.004473
    50  H    0.026100
    51  H    0.017442
    52  H    0.017271
    53  H    0.011300
    54  H    0.068273
    55  H    0.019200
    56  H    0.018246
    57  H    0.005923
    58  H    0.027846
    59  H    0.037051
    60  H    0.038106
    61  H    0.036536
    62  H    0.028492
    63  H    0.017124
    64  H    0.010208
    65  H    0.023850
    66  H    0.012613
    67  H    0.005342
    68  H    0.007102
    69  H    0.005493
    70  H    0.009141
    71  H    0.019375
    72  H    0.028587
    73  H    0.050509
    74  H    0.009913
    75  H    0.046588
    76  H    0.036001
    77  H    0.043997
    78  H    0.046223
    79  H    0.044158
    80  Mg   0.836826
    81  C   -0.017830
    82  C   -0.087692
    83  C   -0.045919
    84  C   -0.066208
    85  N   -0.254037
    86  C   -0.050545
    87  C   -0.020973
    88  C   -0.092114
    89  C    0.044525
    90  C    0.081885
    91  C    0.064148
    92  C   -0.076774
    93  H    0.029280
    94  N   -0.423344
    95  C    0.162276
    96  C   -0.174987
    97  C   -0.008459
    98  C    0.151910
    99  C    0.100031
   100  C    0.015191
   101  O   -0.253907
   102  C    0.061372
   103  N   -0.350319
   104  C    0.037196
   105  C   -0.019555
   106  C   -0.034795
   107  C    0.089463
   108  C    0.073900
   109  C    0.034900
   110  C   -0.007557
   111  N   -0.324290
   112  C    0.079126
   113  C   -0.164023
   114  C    0.003287
   115  C    0.095512
   116  C    0.131632
   117  C    0.041647
   118  O   -0.185220
   119  C    0.003587
   120  C    0.206907
   121  O   -0.256527
   122  O   -0.288672
   123  C    0.157869
   124  H   -0.021135
   125  H   -0.016406
   126  H   -0.041194
   127  H    0.017332
   128  H   -0.005959
   129  H    0.037692
   130  H    0.016365
   131  H    0.039730
   132  H    0.010848
   133  H    0.037998
   134  H    0.025819
   135  H    0.013676
   136  H    0.006334
   137  H    0.025100
   138  H    0.038444
   139  H    0.037714
   140  H    0.035632
   141  H    0.033232
   142  H    0.013857
   143  H    0.011778
   144  H    0.024507
   145  H    0.011818
   146  H    0.004854
   147  H    0.005682
   148  H    0.003345
   149  H    0.010674
   150  H    0.017457
   151  H    0.030520
   152  H    0.046186
   153  H    0.007668
   154  H    0.046734
   155  H    0.046091
   156  H    0.048278
   157  H    0.046989
   158  H    0.045654
 Sum of Mulliken charges =  -0.00000

 Dipole moment (field-independent basis, Debye):
    X=              4.5902    Y=              5.7325    Z=             -3.8042  Tot=              8.2706
 Quadrupole moment (field-independent basis, Debye-Ang):
   XX=           -501.9777   YY=           -563.8721   ZZ=           -457.0164
   XY=             14.8617   XZ=            -37.5507   YZ=              0.7221

 Normal termination of Gaussian 16 at Fri Sep 10 02:11:35 2021.
