 Gaussian 16, Revision A.03,
 Gaussian 16:  ES64L-G16RevA.03 25-Dec-2016

 -----------------------------------
 #p cam-b3lyp/Def2SVP td=(nstates=5)
 -----------------------------------

 --------------------------------
 TDDFT excited states in gaussian
 --------------------------------
 Symbolic Z-matrix:
 Charge =  0 Multiplicity = 1

                         Standard orientation:
 ---------------------------------------------------------------------
 Center     Atomic      Atomic             Coordinates (Angstroms)
 Number     Number       Type             X           Y           Z
 ---------------------------------------------------------------------
      1         12           0       15.674148   -0.750206    0.193510
      2          6           0       15.925264    2.142725   -1.899359
      3          6           0       16.525345    1.257831    2.817688
      4          6           0       15.903161   -3.362242    1.977170
      5          6           0       15.963679   -2.681588   -2.692941
      6          7           0       16.139740    1.410481    0.317198
      7          6           0       16.142282    2.419910   -0.547798
      8          6           0       16.322515    3.812129    0.127937
      9          6           0       17.053479    3.349211    1.467115
     10          6           0       16.514341    1.932718    1.560931
     11          6           0       18.572502    3.289366    1.342664
     12          6           0       14.952754    4.506456    0.433544
     13          6           0       15.038996    5.993536    0.789227
     14          1           0       13.975296    6.882296    0.346514
     15          7           0       15.664752   -0.965498    2.157285
     16          6           0       16.027176   -0.037644    3.075448
     17          6           0       15.844633   -0.677870    4.395853
     18          6           0       15.528042   -2.114727    4.164978
     19          6           0       15.714186   -2.212089    2.739759
     20          6           0       15.925640    0.070024    5.691169
     21          6           0       15.132351   -3.226457    5.084553
     22          8           0       15.130238   -4.449388    4.711716
     23          6           0       14.828447   -2.850424    6.477135
     24          7           0       16.120717   -2.739914   -0.252891
     25          6           0       16.095707   -3.682353    0.695881
     26          6           0       16.166705   -5.057655    0.101371
     27          6           0       16.000233   -4.866865   -1.475220
     28          6           0       15.941008   -3.320034   -1.520788
     29          6           0       17.453125   -5.844711    0.387166
     30          6           0       14.868282   -5.668960   -2.164965
     31          6           0       13.522084   -5.158499   -1.702061
     32          7           0       15.726782   -0.374974   -1.943655
     33          6           0       15.875665   -1.326214   -2.963288
     34          6           0       15.962760   -0.585844   -4.235426
     35          6           0       15.874565    0.754189   -3.863435
     36          6           0       15.767242    0.846259   -2.446291
     37          6           0       16.162593   -1.160027   -5.521822
     38          6           0       15.870802    2.130712   -4.331437
     39          8           0       15.840655    2.670150   -5.438501
     40          6           0       16.026082    3.089426   -3.069461
     41          6           0       14.987703    4.171334   -3.190090
     42          8           0       13.772063    3.904332   -3.099010
     43          8           0       15.588930    5.370435   -3.155083
     44          6           0       14.611935    6.488603   -3.240724
     45          1           0       17.011206    1.737027    3.669893
     46          1           0       15.876939   -4.294702    2.544858
     47          1           0       15.969888   -3.220757   -3.641999
     48          1           0       16.958381    4.505653   -0.422628
     49          1           0       16.733058    3.934471    2.328813
     50          1           0       18.894624    3.450670    0.314005
     51          1           0       18.852806    2.290346    1.677150
     52          1           0       19.045789    3.982237    2.038873
     53          1           0       14.552076    4.114989    1.368568
     54          1           0       14.259251    4.374200   -0.397653
     55          1           0       16.014471    6.408489    0.533940
     56          1           0       14.979141    6.089425    1.873396
     57          1           0       16.335007    1.069749    5.551476
     58          1           0       16.663471   -0.441772    6.308729
     59          1           0       14.967285    0.097224    6.209964
     60          1           0       15.701835   -2.370382    6.919062
     61          1           0       14.478684   -3.759734    6.964651
     62          1           0       14.035245   -2.102241    6.475767
     63          1           0       15.358282   -5.686295    0.472437
     64          1           0       16.899964   -5.155092   -2.019354
     65          1           0       17.279714   -6.806787    0.869912
     66          1           0       18.105714   -5.215697    0.991948
     67          1           0       18.078840   -6.030279   -0.485452
     68          1           0       14.925315   -6.720840   -1.887042
     69          1           0       14.901242   -5.611146   -3.253001
     70          1           0       13.368460   -5.692306   -0.764894
     71          1           0       12.748772   -5.412985   -2.427620
     72          1           0       13.558689   -4.094233   -1.468643
     73          1           0       15.476941   -0.645841   -6.195218
     74          1           0       15.975354   -2.233525   -5.509719
     75          1           0       17.212827   -0.921193   -5.688622
     76          1           0       17.039229    3.488916   -3.102067
     77          1           0       14.908205    7.109665   -4.086148
     78          1           0       14.586554    6.954078   -2.255283
     79          1           0       13.595311    6.219397   -3.529414
     80         12           0      -16.070906   -0.534998   -0.263777
     81          6           0      -14.239108    1.792652    1.762469
     82          6           0      -18.421773    1.902068   -0.674539
     83          6           0      -17.919426   -2.694259   -1.673741
     84          6           0      -14.204744   -3.078953    1.216601
     85          7           0      -16.200873    1.538481    0.495203
     86          6           0      -15.416054    2.334767    1.205377
     87          6           0      -15.880337    3.815040    1.258265
     88          6           0      -17.442753    3.587639    0.965018
     89          6           0      -17.356528    2.279373    0.181620
     90          6           0      -18.260921    3.339066    2.221255
     91          6           0      -15.208537    4.692336    0.144244
     92          6           0      -15.375608    6.202458    0.326948
     93          1           0      -14.277439    7.077721   -0.073588
     94          7           0      -17.640844   -0.300353   -1.454909
     95          6           0      -18.472109    0.761577   -1.505850
     96          6           0      -19.476781    0.437265   -2.530348
     97          6           0      -19.267608   -0.971141   -2.963206
     98          6           0      -18.259015   -1.392322   -2.011658
     99          6           0      -20.454297    1.446146   -3.059541
    100          6           0      -19.883769   -1.805252   -4.045240
    101          8           0      -19.723506   -3.076154   -4.089451
    102          6           0      -20.756553   -1.103157   -4.997509
    103          7           0      -16.215288   -2.601139   -0.083272
    104          6           0      -17.065893   -3.304424   -0.851250
    105          6           0      -16.799764   -4.786969   -0.743390
    106          6           0      -15.431182   -4.919484    0.073316
    107          6           0      -15.178357   -3.428512    0.387118
    108          6           0      -17.886670   -5.609337   -0.051486
    109          6           0      -14.291188   -5.738474   -0.591790
    110          6           0      -13.784258   -5.015291   -1.818738
    111          7           0      -14.381773   -0.645376    1.078885
    112          6           0      -13.775242   -1.812606    1.592477
    113          6           0      -12.739837   -1.378755    2.552758
    114          6           0      -12.832198    0.021229    2.548372
    115          6           0      -13.866714    0.430164    1.664033
    116          6           0      -11.906423   -2.238542    3.322366
    117          6           0      -12.296923    1.245662    3.098776
    118          8           0      -11.350201    1.527377    3.832333
    119          6           0      -13.268749    2.441792    2.709903
    120          6           0      -12.426872    3.572344    2.184925
    121          8           0      -11.788655    3.445858    1.125078
    122          8           0      -12.684637    4.682580    2.899978
    123          6           0      -11.881512    5.834298    2.409741
    124          1           0      -19.324138    2.514101   -0.680692
    125          1           0      -18.453834   -3.477053   -2.216970
    126          1           0      -13.514033   -3.807702    1.646139
    127          1           0      -15.748823    4.298315    2.218954
    128          1           0      -17.846848    4.380118    0.340479
    129          1           0      -17.635675    3.238725    3.095976
    130          1           0      -18.807563    2.422930    2.039821
    131          1           0      -19.015601    4.121720    2.340611
    132          1           0      -15.755279    4.555413   -0.797604
    133          1           0      -14.167411    4.453099    0.047037
    134          1           0      -15.724143    6.459684    1.334573
    135          1           0      -16.178892    6.544723   -0.330016
    136          1           0      -20.479274    2.347885   -2.435329
    137          1           0      -21.453697    1.011548   -2.949058
    138          1           0      -20.286459    1.683305   -4.112274
    139          1           0      -21.571683   -0.627561   -4.457299
    140          1           0      -21.030235   -1.848174   -5.747121
    141          1           0      -20.182087   -0.299565   -5.471677
    142          1           0      -16.668239   -5.228575   -1.723580
    143          1           0      -15.580510   -5.423088    1.039717
    144          1           0      -18.280591   -6.429530   -0.680925
    145          1           0      -18.684032   -4.940720    0.244676
    146          1           0      -17.594512   -6.055218    0.897737
    147          1           0      -14.669485   -6.704504   -0.935070
    148          1           0      -13.457328   -5.937034    0.073228
    149          1           0      -14.498580   -5.311719   -2.592656
    150          1           0      -12.776088   -5.341347   -2.066370
    151          1           0      -13.863272   -3.928860   -1.695930
    152          1           0      -10.908387   -1.822891    3.281768
    153          1           0      -11.929051   -3.258085    2.943182
    154          1           0      -12.388297   -2.153403    4.300031
    155          1           0      -13.817690    2.723512    3.609283
    156          1           0      -11.323749    6.222978    3.267367
    157          1           0      -12.604287    6.518575    1.926917
    158          1           0      -11.078634    5.624881    1.712614
 ---------------------------------------------------------------------

 SCF Done:  E(RCAM-B3LYP) =  -4069.81176077     A.U. after   19 cycles

 Excitation energies and oscillator strengths:

 Excited State   1:      Singlet-A      1.6755 eV  739.98 nm  f=0.3255  <S**2>=0.000
     309 -> 315        0.17172
     311 -> 313        0.67864
     312 -> 314       -0.10055
     309 <- 315        0.10351
 This state for optimization and/or second-order correction.
 Total Energy, E(TD-HF/TD-DFT) =  -4069.75018735
 Copying the excited state density for this state as the 1-particle RhoCI density.

 Excited State   2:      Singlet-A      1.6800 eV  738.01 nm  f=0.4549  <S**2>=0.000
     310 -> 316        0.17369
     311 -> 313        0.10052
     312 -> 314        0.67828
     310 <- 316        0.10400

 Excited State   3:      Singlet-A      2.1861 eV  567.15 nm  f=0.0949  <S**2>=0.000
     309 -> 313        0.64206
     311 -> 315       -0.27295

 Excited State   4:      Singlet-A      2.1925 eV  565.48 nm  f=0.1052  <S**2>=0.000
     310 -> 314        0.64029
     312 -> 316       -0.27813

 Excited State   5:      Singlet-A      3.0476 eV  406.82 nm  f=0.0000  <S**2>=0.000
     312 -> 313        0.70709

 The electronic state is 1-A.
 Alpha  occ. eigenvalues --  -46.87725 -46.87661 -19.26349 -19.26213 -19.19159
 Alpha  occ. eigenvalues --  -19.18947 -19.18743 -19.18714 -19.18100 -19.18052
 Alpha  occ. eigenvalues --  -14.42499 -14.42379 -14.41379 -14.41360 -14.39353
 Alpha  occ. eigenvalues --  -14.39332 -14.38601 -14.38516 -10.39090 -10.39007
 Alpha  occ. eigenvalues --  -10.35391 -10.35376 -10.34320 -10.34230 -10.31755
 Alpha  occ. eigenvalues --  -10.31608 -10.31335 -10.31310 -10.31024 -10.30838
 Alpha  occ. eigenvalues --  -10.30499 -10.30437 -10.30399 -10.30362 -10.30142
 Alpha  occ. eigenvalues --  -10.30137 -10.29896 -10.29851 -10.29560 -10.29438
 Alpha  occ. eigenvalues --  -10.29402 -10.29184 -10.28720 -10.28678 -10.28653
 Alpha  occ. eigenvalues --  -10.28464 -10.28406 -10.28294 -10.28142 -10.28047
 Alpha  occ. eigenvalues --  -10.28002 -10.27723 -10.27671 -10.27657 -10.27519
 Alpha  occ. eigenvalues --  -10.27513 -10.27485 -10.27468 -10.27465 -10.27432
 Alpha  occ. eigenvalues --  -10.27409 -10.27382 -10.27377 -10.27333 -10.27088
 Alpha  occ. eigenvalues --  -10.27052 -10.26692 -10.26630 -10.26414 -10.26336
 Alpha  occ. eigenvalues --  -10.26169 -10.26136 -10.26114 -10.26029 -10.25949
 Alpha  occ. eigenvalues --  -10.25935 -10.25852 -10.25776 -10.25401 -10.25371
 Alpha  occ. eigenvalues --  -10.24874 -10.24763 -10.24726 -10.24717 -10.24691
 Alpha  occ. eigenvalues --  -10.24613  -3.16468  -3.16411  -1.91350  -1.91293
 Alpha  occ. eigenvalues --   -1.90936  -1.90882  -1.90778  -1.90719  -1.16643
 Alpha  occ. eigenvalues --   -1.16561  -1.08659  -1.08558  -1.07144  -1.06966
 Alpha  occ. eigenvalues --   -1.06944  -1.06570  -1.04510  -1.04496  -1.03690
 Alpha  occ. eigenvalues --   -1.03664  -1.03163  -1.03040  -1.02341  -1.02112
 Alpha  occ. eigenvalues --   -0.91988  -0.91902  -0.89495  -0.89449  -0.89153
 Alpha  occ. eigenvalues --   -0.89117  -0.88221  -0.88217  -0.87801  -0.87795
 Alpha  occ. eigenvalues --   -0.87685  -0.87602  -0.87202  -0.87120  -0.85001
 Alpha  occ. eigenvalues --   -0.84911  -0.83876  -0.83867  -0.82931  -0.82895
 Alpha  occ. eigenvalues --   -0.82653  -0.82577  -0.81597  -0.81515  -0.80525
 Alpha  occ. eigenvalues --   -0.80443  -0.78726  -0.78636  -0.77148  -0.77145
 Alpha  occ. eigenvalues --   -0.76899  -0.76864  -0.75853  -0.75840  -0.74829
 Alpha  occ. eigenvalues --   -0.74804  -0.72704  -0.72700  -0.71603  -0.71582
 Alpha  occ. eigenvalues --   -0.69837  -0.69757  -0.68828  -0.68802  -0.67602
 Alpha  occ. eigenvalues --   -0.67570  -0.67200  -0.67147  -0.65273  -0.65215
 Alpha  occ. eigenvalues --   -0.64783  -0.64771  -0.64654  -0.64550  -0.64204
 Alpha  occ. eigenvalues --   -0.64199  -0.62279  -0.62227  -0.60371  -0.60340
 Alpha  occ. eigenvalues --   -0.59798  -0.59734  -0.58994  -0.58917  -0.58433
 Alpha  occ. eigenvalues --   -0.58426  -0.57555  -0.57514  -0.57238  -0.57237
 Alpha  occ. eigenvalues --   -0.56239  -0.56205  -0.55907  -0.55887  -0.55452
 Alpha  occ. eigenvalues --   -0.55449  -0.55270  -0.55248  -0.54488  -0.54453
 Alpha  occ. eigenvalues --   -0.53914  -0.53824  -0.53228  -0.53228  -0.53151
 Alpha  occ. eigenvalues --   -0.53142  -0.52902  -0.52843  -0.52684  -0.52668
 Alpha  occ. eigenvalues --   -0.52400  -0.52367  -0.51886  -0.51846  -0.51659
 Alpha  occ. eigenvalues --   -0.51545  -0.51202  -0.51126  -0.50500  -0.50475
 Alpha  occ. eigenvalues --   -0.49981  -0.49962  -0.49868  -0.49847  -0.49488
 Alpha  occ. eigenvalues --   -0.49443  -0.49203  -0.49144  -0.49106  -0.49026
 Alpha  occ. eigenvalues --   -0.48559  -0.48523  -0.48392  -0.48377  -0.48374
 Alpha  occ. eigenvalues --   -0.48339  -0.47624  -0.47595  -0.47227  -0.47119
 Alpha  occ. eigenvalues --   -0.46727  -0.46710  -0.46555  -0.46484  -0.46289
 Alpha  occ. eigenvalues --   -0.46271  -0.46093  -0.46087  -0.45823  -0.45752
 Alpha  occ. eigenvalues --   -0.45210  -0.45133  -0.44515  -0.44508  -0.44477
 Alpha  occ. eigenvalues --   -0.44435  -0.44128  -0.44078  -0.44074  -0.44018
 Alpha  occ. eigenvalues --   -0.43949  -0.43939  -0.43553  -0.43424  -0.43387
 Alpha  occ. eigenvalues --   -0.43315  -0.42957  -0.42930  -0.42902  -0.42628
 Alpha  occ. eigenvalues --   -0.42584  -0.42553  -0.41964  -0.41939  -0.41670
 Alpha  occ. eigenvalues --   -0.41634  -0.41462  -0.41459  -0.41071  -0.40991
 Alpha  occ. eigenvalues --   -0.40798  -0.40751  -0.40722  -0.40698  -0.40502
 Alpha  occ. eigenvalues --   -0.40494  -0.40227  -0.40161  -0.39425  -0.39370
 Alpha  occ. eigenvalues --   -0.38399  -0.38351  -0.37676  -0.37654  -0.37267
 Alpha  occ. eigenvalues --   -0.37250  -0.37200  -0.37192  -0.36771  -0.36642
 Alpha  occ. eigenvalues --   -0.36218  -0.36122  -0.34254  -0.34215  -0.33861
 Alpha  occ. eigenvalues --   -0.33697  -0.33176  -0.33115  -0.31273  -0.31273
 Alpha  occ. eigenvalues --   -0.30974  -0.30965  -0.29959  -0.29957  -0.29378
 Alpha  occ. eigenvalues --   -0.29328  -0.29251  -0.29212  -0.24037  -0.24010
 Alpha  occ. eigenvalues --   -0.21118  -0.21057
 Alpha virt. eigenvalues --   -0.08793  -0.08703  -0.01685  -0.01679  -0.00029
 Alpha virt. eigenvalues --    0.00013   0.02206   0.02270   0.03198   0.03229
 Alpha virt. eigenvalues --    0.04729   0.04789   0.05166   0.05170   0.06182

 Mulliken charges:
               1
     1  Mg   0.838759
     2  C   -0.002948
     3  C   -0.094096
     4  C   -0.045852
     5  C   -0.063962
     6  N   -0.256786
     7  C   -0.052431
     8  C   -0.014041
     9  C   -0.086973
    10  C    0.046340
    11  C    0.104826
    12  C    0.053445
    13  C   -0.071829
    14  H    0.036232
    15  N   -0.433111
    16  C    0.168454
    17  C   -0.177152
    18  C   -0.003979
    19  C    0.148740
    20  C    0.110196
    21  C    0.012331
    22  O   -0.249639
    23  C    0.062446
    24  N   -0.341133
    25  C    0.041245
    26  C   -0.028177
    27  C   -0.023972
    28  C    0.074858
    29  C    0.076210
    30  C    0.035133
    31  C   -0.004508
    32  N   -0.310452
    33  C    0.080406
    34  C   -0.169716
    35  C    0.008347
    36  C    0.083005
    37  C    0.127308
    38  C    0.046119
    39  O   -0.188497
    40  C   -0.005332
    41  C    0.212873
    42  O   -0.256996
    43  O   -0.304851
    44  C    0.157685
    45  H   -0.017639
    46  H   -0.016859
    47  H   -0.041538
    48  H    0.000877
    49  H   -0.004008
    50  H    0.025426
    51  H    0.016410
    52  H    0.016605
    53  H    0.011290
    54  H    0.044192
    55  H    0.017776
    56  H    0.017971
    57  H    0.005860
    58  H    0.026761
    59  H    0.039664
    60  H    0.037285
    61  H    0.035670
    62  H    0.031630
    63  H    0.016591
    64  H    0.009380
    65  H    0.023177
    66  H    0.012504
    67  H    0.004678
    68  H    0.006310
    69  H    0.004692
    70  H    0.008809
    71  H    0.018199
    72  H    0.029050
    73  H    0.047579
    74  H    0.009095
    75  H    0.045918
    76  H    0.035072
    77  H    0.042870
    78  H    0.046409
    79  H    0.053771
    80  Mg   0.837906
    81  C   -0.016842
    82  C   -0.087788
    83  C   -0.045494
    84  C   -0.064864
    85  N   -0.254579
    86  C   -0.049829
    87  C   -0.015094
    88  C   -0.090510
    89  C    0.045767
    90  C    0.114392
    91  C    0.062520
    92  C   -0.077922
    93  H    0.034970
    94  N   -0.423512
    95  C    0.162949
    96  C   -0.174616
    97  C   -0.007793
    98  C    0.152120
    99  C    0.099365
   100  C    0.015588
   101  O   -0.253165
   102  C    0.061188
   103  N   -0.350066
   104  C    0.037521
   105  C   -0.019848
   106  C   -0.034801
   107  C    0.088918
   108  C    0.073666
   109  C    0.034720
   110  C   -0.007695
   111  N   -0.324122
   112  C    0.078438
   113  C   -0.163111
   114  C    0.002244
   115  C    0.096234
   116  C    0.131483
   117  C    0.042392
   118  O   -0.187883
   119  C    0.000938
   120  C    0.211228
   121  O   -0.250924
   122  O   -0.305663
   123  C    0.152006
   124  H   -0.019665
   125  H   -0.015565
   126  H   -0.040445
   127  H   -0.000675
   128  H   -0.004303
   129  H    0.022426
   130  H    0.014407
   131  H    0.016268
   132  H    0.013952
   133  H    0.037725
   134  H    0.020743
   135  H    0.019604
   136  H    0.008759
   137  H    0.026137
   138  H    0.039844
   139  H    0.038236
   140  H    0.036427
   141  H    0.033938
   142  H    0.014442
   143  H    0.012389
   144  H    0.025156
   145  H    0.011608
   146  H    0.005648
   147  H    0.006271
   148  H    0.003667
   149  H    0.010948
   150  H    0.018021
   151  H    0.030112
   152  H    0.046062
   153  H    0.008542
   154  H    0.046881
   155  H    0.034978
   156  H    0.043877
   157  H    0.049493
   158  H    0.053659
 Sum of Mulliken charges =  -0.00000

 Dipole moment (field-independent basis, Debye):
    X=             -2.1267    Y=              2.7064    Z=              3.5610  Tot=              4.9526
 Quadrupole moment (field-independent basis, Debye-Ang):
   XX=           -335.6833   YY=           -464.6076   ZZ=           -527.1482
   XY=            -32.9187   XZ=             61.4568   YZ=             21.8519

 Normal termination of Gaussian 16 at Sun Sep 12 14:52:36 2021.
