 Gaussian 16, Revision A.03,
 Gaussian 16:  ES64L-G16RevA.03 25-Dec-2016

 -----------------------------------
 #p cam-b3lyp/Def2SVP td=(nstates=5)
 -----------------------------------

 --------------------------------
 TDDFT excited states in gaussian
 --------------------------------
 Symbolic Z-matrix:
 Charge =  0 Multiplicity = 1

                         Standard orientation:
 ---------------------------------------------------------------------
 Center     Atomic      Atomic             Coordinates (Angstroms)
 Number     Number       Type             X           Y           Z
 ---------------------------------------------------------------------
      1         12           0       -4.325636   -0.981872    0.275101
      2          6           0       -4.690465    2.573837    0.464966
      3          6           0       -5.357667   -0.765197   -2.970054
      4          6           0       -4.448385   -4.150170    0.216453
      5          6           0       -4.429849   -1.030537    3.758265
      6          7           0       -4.918326    0.742377   -0.980419
      7          6           0       -4.957302    2.059642   -0.805879
      8          6           0       -5.234763    2.849057   -2.120113
      9          6           0       -5.971429    1.704572   -2.950459
     10          6           0       -5.353865    0.486705   -2.286125
     11          6           0       -7.480813    1.669959   -2.733522
     12          6           0       -3.915606    3.310408   -2.826308
     13          6           0       -4.096641    4.357356   -3.929250
     14          1           0       -3.075221    5.379762   -4.098763
     15          7           0       -4.353550   -2.234884   -1.251998
     16          6           0       -4.792138   -1.972813   -2.506688
     17          6           0       -4.606393   -3.223800   -3.272986
     18          6           0       -4.201532   -4.288963   -2.314023
     19          6           0       -4.345581   -3.597995   -1.058161
     20          6           0       -4.763274   -3.308688   -4.760242
     21          6           0       -3.765659   -5.708055   -2.499297
     22          8           0       -3.683419   -6.527514   -1.521392
     23          6           0       -3.519365   -6.143936   -3.885799
     24          7           0       -4.645000   -2.418248    1.755798
     25          6           0       -4.589593   -3.724465    1.473466
     26          6           0       -4.565898   -4.552806    2.723757
     27          6           0       -4.370857   -3.525805    3.930812
     28          6           0       -4.400005   -2.204546    3.123536
     29          6           0       -5.811498   -5.412061    2.980997
     30          6           0       -3.177330   -3.780855    4.885203
     31          6           0       -1.875045   -3.560133    4.148702
     32          7           0       -4.345728    0.498232    1.862531
     33          6           0       -4.413507    0.254358    3.241881
     34          6           0       -4.511004    1.566064    3.908206
     35          6           0       -4.509863    2.487093    2.862477
     36          6           0       -4.443967    1.793384    1.620415
     37          6           0       -4.644670    1.781713    5.308228
     38          6           0       -4.573822    3.894787    2.504476
     39          8           0       -4.546877    4.952208    3.135846
     40          6           0       -4.816169    4.001953    0.934250
     41          6           0       -3.839341    5.009083    0.391289
     42          8           0       -2.612998    4.777949    0.396277
     43          8           0       -4.509567    5.972498   -0.259227
     44          6           0       -3.596983    6.988723   -0.847980
     45          1           0       -5.891841   -0.846764   -3.918709
     46          1           0       -4.382695   -5.239735    0.247620
     47          1           0       -4.380844   -0.963245    4.846623
     48          1           0       -5.895505    3.708246   -2.003330
     49          1           0       -5.707300    1.734457   -4.007372
     50          1           0       -7.785564    2.355943   -1.943285
     51          1           0       -7.711284    0.641539   -2.454723
     52          1           0       -8.010839    1.852870   -3.668612
     53          1           0       -3.516779    2.485723   -3.416981
     54          1           0       -3.194790    3.677978   -2.095116
     55          1           0       -5.087691    4.810334   -3.890023
     56          1           0       -4.069905    3.847169   -4.892160
     57          1           0       -5.226073   -2.409991   -5.166082
     58          1           0       -5.485692   -4.099949   -4.959558
     59          1           0       -3.821541   -3.536293   -5.259908
     60          1           0       -4.429953   -6.013986   -4.471027
     61          1           0       -3.130087   -7.159124   -3.817204
     62          1           0       -2.770956   -5.489708   -4.333927
     63          1           0       -3.732147   -5.253638    2.712791
     64          1           0       -5.238353   -3.500737    4.590732
     65          1           0       -5.595049   -6.474895    3.091627
     66          1           0       -6.514462   -5.238821    2.166675
     67          1           0       -6.403139   -5.112099    3.845520
     68          1           0       -3.180487   -4.814870    5.228349
     69          1           0       -3.186010   -3.139014    5.766234
     70          1           0       -1.714607   -4.513637    3.646784
     71          1           0       -1.070188   -3.349807    4.853812
     72          1           0       -1.979005   -2.798439    3.375721
     73          1           0       -3.973051    2.603684    5.555736
     74          1           0       -4.396060    0.883329    5.872765
     75          1           0       -5.702392    2.036381    5.373232
     76          1           0       -5.849562    4.318996    0.797484
     77          1           0       -3.907149    7.960165   -0.462842
     78          1           0       -3.623516    6.840548   -1.927677
     79          1           0       -2.559513    6.956401   -0.513391
     80         12           0        4.656965   -0.548090   -0.132891
     81          6           0        3.967616    2.966029    0.101246
     82          6           0        3.340225   -0.444891   -3.277752
     83          6           0        4.834994   -3.715213   -0.204058
     84          6           0        4.844147   -0.601896    3.346728
     85          7           0        3.798077    1.106058   -1.323831
     86          6           0        3.644942    2.410759   -1.154544
     87          6           0        3.192001    3.175667   -2.427072
     88          6           0        2.493908    1.956390   -3.204823
     89          6           0        3.278781    0.796452   -2.595564
     90          6           0        1.026736    1.778249   -2.851262
     91          6           0        4.403144    3.756240   -3.238304
     92          6           0        4.025732    4.772678   -4.318184
     93          1           0        4.932908    5.888725   -4.571078
     94          7           0        4.622803   -1.802066   -1.670736
     95          6           0        4.065316   -1.590069   -2.881325
     96          6           0        4.291829   -2.823652   -3.650166
     97          6           0        4.883424   -3.841665   -2.740019
     98          6           0        4.781870   -3.150766   -1.470209
     99          6           0        4.027613   -2.923677   -5.124483
    100          6           0        5.435892   -5.215416   -2.971964
    101          8           0        5.678987   -6.016181   -2.001130
    102          6           0        5.596046   -5.629604   -4.373500
    103          7           0        4.606894   -1.996942    1.357298
    104          6           0        4.757574   -3.299631    1.060308
    105          6           0        4.963403   -4.123532    2.308991
    106          6           0        5.161877   -3.066955    3.492981
    107          6           0        4.937800   -1.758064    2.704320
    108          6           0        3.828449   -5.082420    2.667884
    109          6           0        6.451034   -3.202809    4.348724
    110          6           0        7.664577   -2.873038    3.509700
    111          7           0        4.633107    0.923386    1.448955
    112          6           0        4.698015    0.682674    2.838889
    113          6           0        4.531308    1.985741    3.514659
    114          6           0        4.356579    2.898149    2.463246
    115          6           0        4.390400    2.209259    1.220753
    116          6           0        4.505168    2.195508    4.922293
    117          6           0        4.140603    4.285902    2.122392
    118          8           0        4.112257    5.341312    2.754083
    119          6           0        3.752750    4.373831    0.583477
    120          6           0        4.580177    5.462841   -0.042582
    121          8           0        5.815668    5.348611   -0.126948
    122          8           0        3.762276    6.354896   -0.630507
    123          6           0        4.536883    7.448634   -1.275127
    124          1           0        2.743394   -0.570273   -4.181613
    125          1           0        5.007334   -4.793621   -0.175428
    126          1           0        4.988322   -0.520528    4.426209
    127          1           0        2.471414    3.965118   -2.250178
    128          1           0        2.672269    2.016871   -4.275288
    129          1           0        0.724918    2.429084   -2.044134
    130          1           0        0.917675    0.741191   -2.562002
    131          1           0        0.405700    1.909600   -3.741983
    132          1           0        4.826347    2.962403   -3.867155
    133          1           0        5.133379    4.183758   -2.579050
    134          1           0        2.996096    5.132753   -4.203532
    135          1           0        4.026378    4.266507   -5.286594
    136          1           0        3.441069   -2.070410   -5.486829
    137          1           0        3.371006   -3.787640   -5.273775
    138          1           0        4.939958   -3.068317   -5.707043
    139          1           0        4.632819   -5.583470   -4.876015
    140          1           0        6.086449   -6.604272   -4.335971
    141          1           0        6.249376   -4.909466   -4.878654
    142          1           0        5.855596   -4.732245    2.227976
    143          1           0        4.352165   -3.129407    4.234809
    144          1           0        4.157460   -6.135190    2.754492
    145          1           0        3.051838   -4.986975    1.920685
    146          1           0        3.295541   -4.843903    3.586757
    147          1           0        6.576379   -4.235512    4.683344
    148          1           0        6.450087   -2.575377    5.233778
    149          1           0        7.867293   -3.813509    2.988617
    150          1           0        8.501108   -2.584372    4.142877
    151          1           0        7.424901   -2.120186    2.749819
    152          1           0        5.107444    3.072795    5.117570
    153          1           0        4.879637    1.327355    5.460662
    154          1           0        3.433166    2.343801    5.077513
    155          1           0        2.684654    4.587145    0.526502
    156          1           0        4.164921    8.390744   -0.860697
    157          1           0        4.419163    7.296203   -2.364463
    158          1           0        5.593333    7.518297   -1.043764
 ---------------------------------------------------------------------

 SCF Done:  E(RCAM-B3LYP) =  -4069.81132592     A.U. after   19 cycles

 Excitation energies and oscillator strengths:

 Excited State   1:      Singlet-A      1.6471 eV  752.72 nm  f=0.0011  <S**2>=0.000
     309 -> 315       -0.11463
     310 -> 316        0.12090
     311 -> 313       -0.47066
     312 -> 314        0.50146
 This state for optimization and/or second-order correction.
 Total Energy, E(TD-HF/TD-DFT) =  -4069.75079431
 Copying the excited state density for this state as the 1-particle RhoCI density.

 Excited State   2:      Singlet-A      1.7046 eV  727.36 nm  f=0.6980  <S**2>=0.000
     309 -> 315        0.13275
     310 -> 316        0.12336
     311 -> 313        0.49881
     312 -> 314        0.46825

 Excited State   3:      Singlet-A      2.1800 eV  568.72 nm  f=0.0155  <S**2>=0.000
     309 -> 313       -0.31345
     310 -> 314        0.56397
     311 -> 315        0.12941
     312 -> 316       -0.23436

 Excited State   4:      Singlet-A      2.1962 eV  564.53 nm  f=0.1589  <S**2>=0.000
     309 -> 313        0.55893
     310 -> 314        0.30879
     311 -> 315       -0.24669
     312 -> 316       -0.13752

 Excited State   5:      Singlet-A      2.3347 eV  531.04 nm  f=0.0000  <S**2>=0.000
     312 -> 313        0.70706

 The electronic state is 1-A.
 Alpha  occ. eigenvalues --  -46.87926 -46.87420 -19.26398 -19.26053 -19.19144
 Alpha  occ. eigenvalues --  -19.18921 -19.18870 -19.18519 -19.18251 -19.17720
 Alpha  occ. eigenvalues --  -14.42592 -14.42256 -14.41574 -14.41122 -14.39531
 Alpha  occ. eigenvalues --  -14.39116 -14.38708 -14.38345 -10.39204 -10.38787
 Alpha  occ. eigenvalues --  -10.35557 -10.35203 -10.34475 -10.33888 -10.31780
 Alpha  occ. eigenvalues --  -10.31544 -10.31521 -10.31063 -10.31048 -10.30778
 Alpha  occ. eigenvalues --  -10.30696 -10.30621 -10.30333 -10.30147 -10.30104
 Alpha  occ. eigenvalues --  -10.30029 -10.29940 -10.29749 -10.29648 -10.29381
 Alpha  occ. eigenvalues --  -10.29219 -10.29159 -10.28949 -10.28839 -10.28509
 Alpha  occ. eigenvalues --  -10.28493 -10.28446 -10.28296 -10.28146 -10.27907
 Alpha  occ. eigenvalues --  -10.27884 -10.27867 -10.27750 -10.27708 -10.27656
 Alpha  occ. eigenvalues --  -10.27607 -10.27545 -10.27535 -10.27445 -10.27346
 Alpha  occ. eigenvalues --  -10.27343 -10.27269 -10.27235 -10.27221 -10.27183
 Alpha  occ. eigenvalues --  -10.26994 -10.26659 -10.26540 -10.26492 -10.26385
 Alpha  occ. eigenvalues --  -10.26293 -10.26281 -10.26142 -10.25989 -10.25909
 Alpha  occ. eigenvalues --  -10.25711 -10.25695 -10.25581 -10.25519 -10.25211
 Alpha  occ. eigenvalues --  -10.24943 -10.24905 -10.24805 -10.24606 -10.24584
 Alpha  occ. eigenvalues --  -10.24447  -3.16669  -3.16171  -1.91551  -1.91138
 Alpha  occ. eigenvalues --   -1.91053  -1.90979  -1.90641  -1.90478  -1.16748
 Alpha  occ. eigenvalues --   -1.16348  -1.08706  -1.08315  -1.07320  -1.06774
 Alpha  occ. eigenvalues --   -1.06763  -1.06653  -1.04722  -1.04246  -1.03887
 Alpha  occ. eigenvalues --   -1.03422  -1.03356  -1.02801  -1.02535  -1.01866
 Alpha  occ. eigenvalues --   -0.92095  -0.91701  -0.89635  -0.89375  -0.89276
 Alpha  occ. eigenvalues --   -0.88899  -0.88400  -0.88015  -0.87975  -0.87822
 Alpha  occ. eigenvalues --   -0.87536  -0.87454  -0.87408  -0.86927  -0.85159
 Alpha  occ. eigenvalues --   -0.84766  -0.84045  -0.83672  -0.83093  -0.82802
 Alpha  occ. eigenvalues --   -0.82757  -0.82423  -0.81707  -0.81338  -0.80725
 Alpha  occ. eigenvalues --   -0.80200  -0.78926  -0.78419  -0.77363  -0.77084
 Alpha  occ. eigenvalues --   -0.76924  -0.76663  -0.76061  -0.75579  -0.75009
 Alpha  occ. eigenvalues --   -0.74585  -0.72895  -0.72459  -0.71799  -0.71333
 Alpha  occ. eigenvalues --   -0.70020  -0.69573  -0.69035  -0.68597  -0.67766
 Alpha  occ. eigenvalues --   -0.67412  -0.67365  -0.66998  -0.65455  -0.65021
 Alpha  occ. eigenvalues --   -0.64978  -0.64756  -0.64531  -0.64411  -0.64386
 Alpha  occ. eigenvalues --   -0.63990  -0.62412  -0.62017  -0.60567  -0.60133
 Alpha  occ. eigenvalues --   -0.59967  -0.59544  -0.59111  -0.58749  -0.58625
 Alpha  occ. eigenvalues --   -0.58174  -0.57697  -0.57424  -0.57242  -0.56997
 Alpha  occ. eigenvalues --   -0.56432  -0.56111  -0.55971  -0.55646  -0.55633
 Alpha  occ. eigenvalues --   -0.55448  -0.55227  -0.55017  -0.54637  -0.54253
 Alpha  occ. eigenvalues --   -0.54081  -0.53671  -0.53423  -0.53375  -0.53045
 Alpha  occ. eigenvalues --   -0.53008  -0.52911  -0.52907  -0.52665  -0.52551
 Alpha  occ. eigenvalues --   -0.52477  -0.52219  -0.52005  -0.51790  -0.51616
 Alpha  occ. eigenvalues --   -0.51436  -0.51315  -0.50948  -0.50719  -0.50314
 Alpha  occ. eigenvalues --   -0.50158  -0.50055  -0.49765  -0.49666  -0.49662
 Alpha  occ. eigenvalues --   -0.49342  -0.49267  -0.49244  -0.48947  -0.48831
 Alpha  occ. eigenvalues --   -0.48716  -0.48574  -0.48552  -0.48306  -0.48168
 Alpha  occ. eigenvalues --   -0.48113  -0.47833  -0.47424  -0.47373  -0.46930
 Alpha  occ. eigenvalues --   -0.46915  -0.46732  -0.46486  -0.46480  -0.46330
 Alpha  occ. eigenvalues --   -0.46273  -0.46054  -0.45932  -0.45842  -0.45556
 Alpha  occ. eigenvalues --   -0.45312  -0.44990  -0.44695  -0.44654  -0.44268
 Alpha  occ. eigenvalues --   -0.44265  -0.44250  -0.44249  -0.44137  -0.43882
 Alpha  occ. eigenvalues --   -0.43872  -0.43699  -0.43609  -0.43533  -0.43306
 Alpha  occ. eigenvalues --   -0.43150  -0.43144  -0.42812  -0.42768  -0.42678
 Alpha  occ. eigenvalues --   -0.42627  -0.42355  -0.42144  -0.41826  -0.41752
 Alpha  occ. eigenvalues --   -0.41706  -0.41393  -0.41273  -0.41236  -0.41035
 Alpha  occ. eigenvalues --   -0.40966  -0.40745  -0.40691  -0.40528  -0.40486
 Alpha  occ. eigenvalues --   -0.40462  -0.40275  -0.40020  -0.39558  -0.39248
 Alpha  occ. eigenvalues --   -0.38599  -0.38148  -0.37961  -0.37448  -0.37445
 Alpha  occ. eigenvalues --   -0.37430  -0.37050  -0.36963  -0.36831  -0.36508
 Alpha  occ. eigenvalues --   -0.36320  -0.35983  -0.34412  -0.34008  -0.33895
 Alpha  occ. eigenvalues --   -0.33577  -0.33311  -0.32933  -0.31451  -0.31163
 Alpha  occ. eigenvalues --   -0.31077  -0.30723  -0.30111  -0.29617  -0.29571
 Alpha  occ. eigenvalues --   -0.29431  -0.29099  -0.28942  -0.24209  -0.23784
 Alpha  occ. eigenvalues --   -0.21255  -0.20878
 Alpha virt. eigenvalues --   -0.08898  -0.08547  -0.01876  -0.01450  -0.00184
 Alpha virt. eigenvalues --    0.00198   0.02098   0.02480   0.02786   0.03500
 Alpha virt. eigenvalues --    0.04550   0.04922   0.04991   0.05466   0.05922

 Mulliken charges:
               1
     1  Mg   0.838149
     2  C   -0.003584
     3  C   -0.095354
     4  C   -0.045294
     5  C   -0.063676
     6  N   -0.256665
     7  C   -0.053026
     8  C   -0.013755
     9  C   -0.086814
    10  C    0.045817
    11  C    0.104778
    12  C    0.053251
    13  C   -0.071358
    14  H    0.034489
    15  N   -0.433179
    16  C    0.168081
    17  C   -0.177979
    18  C   -0.003910
    19  C    0.148791
    20  C    0.110333
    21  C    0.012741
    22  O   -0.248744
    23  C    0.062648
    24  N   -0.341070
    25  C    0.041093
    26  C   -0.028312
    27  C   -0.024021
    28  C    0.074929
    29  C    0.076040
    30  C    0.035063
    31  C   -0.004641
    32  N   -0.310667
    33  C    0.080702
    34  C   -0.169109
    35  C    0.008948
    36  C    0.083091
    37  C    0.127081
    38  C    0.046780
    39  O   -0.186797
    40  C   -0.005670
    41  C    0.213692
    42  O   -0.257994
    43  O   -0.304752
    44  C    0.156965
    45  H   -0.017820
    46  H   -0.016381
    47  H   -0.041099
    48  H    0.001537
    49  H   -0.004932
    50  H    0.025836
    51  H    0.016833
    52  H    0.016681
    53  H    0.009480
    54  H    0.043313
    55  H    0.019250
    56  H    0.017113
    57  H    0.005376
    58  H    0.027259
    59  H    0.037834
    60  H    0.037252
    61  H    0.036415
    62  H    0.030063
    63  H    0.016943
    64  H    0.009763
    65  H    0.023554
    66  H    0.012586
    67  H    0.004920
    68  H    0.006544
    69  H    0.004813
    70  H    0.009184
    71  H    0.017032
    72  H    0.029602
    73  H    0.048775
    74  H    0.009143
    75  H    0.046295
    76  H    0.035402
    77  H    0.044091
    78  H    0.045275
    79  H    0.054801
    80  Mg   0.837548
    81  C   -0.015800
    82  C   -0.088084
    83  C   -0.045459
    84  C   -0.065429
    85  N   -0.254588
    86  C   -0.048147
    87  C   -0.015309
    88  C   -0.091378
    89  C    0.045924
    90  C    0.111772
    91  C    0.062655
    92  C   -0.077053
    93  H    0.033901
    94  N   -0.423379
    95  C    0.162732
    96  C   -0.175585
    97  C   -0.008071
    98  C    0.151771
    99  C    0.099963
   100  C    0.015286
   101  O   -0.253442
   102  C    0.061446
   103  N   -0.350065
   104  C    0.037252
   105  C   -0.019646
   106  C   -0.034666
   107  C    0.089299
   108  C    0.073665
   109  C    0.034827
   110  C   -0.007556
   111  N   -0.324542
   112  C    0.079238
   113  C   -0.162805
   114  C    0.003994
   115  C    0.095812
   116  C    0.131022
   117  C    0.044555
   118  O   -0.186402
   119  C   -0.000649
   120  C    0.210437
   121  O   -0.252179
   122  O   -0.304264
   123  C    0.152419
   124  H   -0.021638
   125  H   -0.015928
   126  H   -0.040994
   127  H    0.002300
   128  H   -0.006328
   129  H    0.032908
   130  H    0.013006
   131  H    0.012501
   132  H    0.013208
   133  H    0.037638
   134  H    0.020387
   135  H    0.018445
   136  H    0.007376
   137  H    0.024241
   138  H    0.039051
   139  H    0.037388
   140  H    0.035907
   141  H    0.033474
   142  H    0.013946
   143  H    0.011583
   144  H    0.024700
   145  H    0.012854
   146  H    0.004535
   147  H    0.005711
   148  H    0.003324
   149  H    0.010768
   150  H    0.017527
   151  H    0.030438
   152  H    0.045821
   153  H    0.007416
   154  H    0.049109
   155  H    0.043556
   156  H    0.043613
   157  H    0.048364
   158  H    0.052947
 Sum of Mulliken charges =  -0.00000

 Dipole moment (field-independent basis, Debye):
    X=             -4.6066    Y=             -2.5097    Z=             -6.8153  Tot=              8.6004
 Quadrupole moment (field-independent basis, Debye-Ang):
   XX=           -517.7335   YY=           -553.4030   ZZ=           -448.7986
   XY=             -5.7169   XZ=             11.5432   YZ=            -45.7834

 Normal termination of Gaussian 16 at Fri Sep 10 04:12:38 2021.
