 Gaussian 16, Revision A.03,
 Gaussian 16:  ES64L-G16RevA.03 25-Dec-2016

 -----------------------------------
 #p cam-b3lyp/Def2SVP td=(nstates=5)
 -----------------------------------

 --------------------------------
 TDDFT excited states in gaussian
 --------------------------------
 Symbolic Z-matrix:
 Charge =  0 Multiplicity = 1

                         Standard orientation:
 ---------------------------------------------------------------------
 Center     Atomic      Atomic             Coordinates (Angstroms)
 Number     Number       Type             X           Y           Z
 ---------------------------------------------------------------------
      1         12           0       -6.286070    0.720063   -0.099275
      2          6           0       -6.642924   -2.369494    1.672591
      3          6           0       -7.145993    2.307977    2.795915
      4          6           0       -6.421084    3.424300   -1.750182
      5          6           0       -6.572443   -1.110156   -3.051216
      6          7           0       -6.803880   -0.043225    1.913164
      7          6           0       -6.845481   -1.246163    2.477416
      8          6           0       -7.050003   -1.197712    4.021177
      9          6           0       -7.747849    0.231056    4.137932
     10          6           0       -7.171821    0.885070    2.894396
     11          6           0       -9.266661    0.179792    4.007225
     12          6           0       -5.693495   -1.238272    4.802184
     13          6           0       -5.811507   -1.522809    6.302340
     14          1           0       -4.777633   -2.317686    6.947803
     15          7           0       -6.240254    2.598059    0.512182
     16          6           0       -6.611372    3.062713    1.729414
     17          6           0       -6.391949    4.524604    1.691880
     18          6           0       -6.042982    4.896563    0.292608
     19          6           0       -6.249097    3.642209   -0.385249
     20          6           0       -6.471290    5.399957    2.904816
     21          6           0       -5.604968    6.181540   -0.335970
     22          8           0       -5.577966    6.344021   -1.603820
     23          6           0       -5.288674    7.288767    0.584382
     24          7           0       -6.689417    1.141562   -2.103592
     25          6           0       -6.625720    2.392780   -2.571971
     26          6           0       -6.671462    2.417624   -4.071047
     27          6           0       -6.534759    0.898223   -4.542728
     28          6           0       -6.515206    0.219841   -3.150721
     29          6           0       -7.932995    3.033219   -4.692006
     30          6           0       -5.394012    0.571055   -5.538759
     31          6           0       -4.053946    0.749965   -4.861033
     32          7           0       -6.381869   -1.380591   -0.636974
     33          6           0       -6.522846   -1.915471   -1.925657
     34          6           0       -6.648620   -3.376868   -1.775434
     35          6           0       -6.588314   -3.590454   -0.399720
     36          6           0       -6.460981   -2.339336    0.268698
     37          6           0       -6.854227   -4.308497   -2.831003
     38          6           0       -6.626585   -4.582515    0.662451
     39          8           0       -6.627506   -5.813828    0.699354
     40          6           0       -6.785998   -3.822309    2.052595
     41          6           0       -5.777209   -4.402350    3.006118
     42          8           0       -4.553948   -4.239737    2.820225
     43          8           0       -6.407795   -4.848120    4.103475
     44          6           0       -5.460723   -5.409649    5.103423
     45          1           0       -7.630243    2.899863    3.575090
     46          1           0       -6.362444    4.324067   -2.366151
     47          1           0       -6.580065   -1.753507   -3.932972
     48          1           0       -7.711735   -1.968645    4.416394
     49          1           0       -7.428693    0.768081    5.030941
     50          1           0       -9.608942   -0.816023    3.725945
     51          1           0       -9.516418    0.901942    3.229656
     52          1           0       -9.746184    0.541421    4.917203
     53          1           0       -5.268378   -0.235197    4.836484
     54          1           0       -5.010094   -1.958659    4.351261
     55          1           0       -6.801025   -1.901795    6.559503
     56          1           0       -5.736973   -0.575560    6.836535
     57          1           0       -6.907841    4.872115    3.751781
     58          1           0       -7.186164    6.191286    2.680175
     59          1           0       -5.505851    5.837908    3.158703
     60          1           0       -6.166780    7.515964    1.189246
     61          1           0       -4.908485    8.097953   -0.038133
     62          1           0       -4.514673    6.960570    1.278758
     63          1           0       -5.841717    2.994040   -4.478102
     64          1           0       -7.435431    0.542947   -5.043970
     65          1           0       -7.727827    3.864094   -5.367476
     66          1           0       -8.591577    3.342187   -3.880773
     67          1           0       -8.567541    2.329615   -5.230252
     68          1           0       -5.420160    1.257843   -6.384090
     69          1           0       -5.445592   -0.443519   -5.934018
     70          1           0       -3.872159    1.819573   -4.959645
     71          1           0       -3.286026    0.174091   -5.378603
     72          1           0       -4.113632    0.526446   -3.795687
     73          1           0       -6.192449   -5.150406   -2.628002
     74          1           0       -6.639863   -3.861142   -3.801325
     75          1           0       -7.912642   -4.532643   -2.699197
     76          1           0       -7.809266   -3.991059    2.386613
     77          1           0       -5.785841   -6.427954    5.316936
     78          1           0       -5.431509   -4.703342    5.933292
     79          1           0       -4.442331   -5.587331    4.756083
     80         12           0        6.921239    0.189359    0.123506
     81          6           0        4.751995   -1.712955   -2.010644
     82          6           0        5.446081    2.997579   -1.130464
     83          6           0        9.114565    1.902018    1.647838
     84          6           0        8.954939   -2.632580    0.339062
     85          7           0        5.317149    0.476092   -1.372127
     86          6           0        4.524477   -0.322268   -2.071151
     87          6           0        3.374880    0.405934   -2.817954
     88          6           0        4.043834    1.861701   -2.928027
     89          6           0        4.970906    1.796959   -1.715992
     90          6           0        4.896981    2.039398   -4.172970
     91          6           0        2.048559    0.445099   -1.980479
     92          6           0        0.804040    0.864174   -2.766166
     93          1           0       -0.473599    0.242043   -2.429888
     94          7           0        6.932475    2.110178    0.622421
     95          6           0        6.257380    3.111378    0.019824
     96          6           0        6.617729    4.336363    0.750400
     97          6           0        7.687773    4.001336    1.728918
     98          6           0        7.973965    2.632660    1.348239
     99          6           0        5.910013    5.644184    0.545103
    100          6           0        8.353396    4.787353    2.817636
    101          8           0        9.423960    4.374000    3.388465
    102          6           0        7.767887    6.098999    3.131116
    103          7           0        8.872363   -0.221342    0.712409
    104          6           0        9.588823    0.679465    1.407497
    105          6           0       10.853770    0.063945    1.956535
    106          6           0       10.718611   -1.506883    1.688542
    107          6           0        9.380567   -1.517798    0.917237
    108          6           0       12.160024    0.573281    1.347720
    109          6           0       10.871752   -2.446014    2.916250
    110          6           0        9.710095   -2.250456    3.863719
    111          7           0        6.798608   -1.869142   -0.521158
    112          6           0        7.773482   -2.876242   -0.349540
    113          6           0        7.286645   -4.078470   -1.056681
    114          6           0        6.063374   -3.677208   -1.614453
    115          6           0        5.815649   -2.314690   -1.295599
    116          6           0        7.977071   -5.318839   -1.161141
    117          6           0        4.930420   -4.093333   -2.409407
    118          8           0        4.548646   -5.161735   -2.885317
    119          6           0        4.091455   -2.803404   -2.807667
    120          6           0        2.640452   -3.090360   -2.534241
    121          8           0        2.240069   -3.270112   -1.370634
    122          8           0        1.931963   -2.890776   -3.660550
    123          6           0        0.485057   -3.152115   -3.436942
    124          1           0        5.211192    3.942518   -1.621163
    125          1           0        9.853500    2.414633    2.268048
    126          1           0        9.484497   -3.582191    0.441400
    127          1           0        3.159555    0.019921   -3.807092
    128          1           0        3.303574    2.647239   -2.800330
    129          1           0        5.008530    1.115172   -4.720237
    130          1           0        5.858939    2.390190   -3.822766
    131          1           0        4.492082    2.842024   -4.796024
    132          1           0        2.103754    1.272055   -1.260869
    133          1           0        1.872621   -0.498261   -1.501165
    134          1           0        0.971786    0.836082   -3.849684
    135          1           0        0.597669    1.916055   -2.554090
    136          1           0        5.282095    5.624939   -0.354208
    137          1           0        6.678744    6.392434    0.323664
    138          1           0        5.350057    5.963048    1.426823
    139          1           0        7.774683    6.720126    2.238584
    140          1           0        8.325284    6.469205    3.993749
    141          1           0        6.717165    5.956139    3.407121
    142          1           0       10.934538    0.232768    3.023340
    143          1           0       11.487129   -1.868610    0.989718
    144          1           0       12.859745    0.986227    2.098688
    145          1           0       11.920728    1.318435    0.600720
    146          1           0       12.717928   -0.161883    0.770252
    147          1           0       11.775195   -2.192752    3.476433
    148          1           0       10.940892   -3.495734    2.651110
    149          1           0       10.012813   -1.376496    4.448218
    150          1           0        9.582181   -3.124875    4.498593
    151          1           0        8.797997   -1.982235    3.318021
    152          1           0        7.244967   -6.097706   -0.994164
    153          1           0        8.794403   -5.380390   -0.445620
    154          1           0        8.337353   -5.255353   -2.191400
    155          1           0        4.277538   -2.604796   -3.863842
    156          1           0        0.177350   -3.898664   -4.175624
    157          1           0       -0.008062   -2.163027   -3.484874
    158          1           0        0.200998   -3.640192   -2.511996
 ---------------------------------------------------------------------

 SCF Done:  E(RCAM-B3LYP) =  -4069.81140724     A.U. after   19 cycles

 Excitation energies and oscillator strengths:

 Excited State   1:      Singlet-A      1.6642 eV  745.01 nm  f=0.0078  <S**2>=0.000
     309 -> 315       -0.11191
     310 -> 316        0.12881
     311 -> 313       -0.44921
     312 -> 314        0.51940
 This state for optimization and/or second-order correction.
 Total Energy, E(TD-HF/TD-DFT) =  -4069.75024882
 Copying the excited state density for this state as the 1-particle RhoCI density.

 Excited State   2:      Singlet-A      1.6901 eV  733.58 nm  f=0.7312  <S**2>=0.000
     309 -> 315        0.13435
     310 -> 316        0.11577
     311 -> 313        0.51807
     312 -> 314        0.44818

 Excited State   3:      Singlet-A      2.1845 eV  567.56 nm  f=0.0815  <S**2>=0.000
     309 -> 313        0.16956
     310 -> 314        0.62025
     312 -> 316       -0.26225

 Excited State   4:      Singlet-A      2.1921 eV  565.59 nm  f=0.1168  <S**2>=0.000
     309 -> 313        0.61813
     310 -> 314       -0.16824
     311 -> 315       -0.26801

 Excited State   5:      Singlet-A      2.6404 eV  469.57 nm  f=0.0000  <S**2>=0.000
     312 -> 313        0.70689

 The electronic state is 1-A.
 Alpha  occ. eigenvalues --  -46.87877 -46.87533 -19.26193 -19.26066 -19.18938
 Alpha  occ. eigenvalues --  -19.18930 -19.18871 -19.18622 -19.18186 -19.17886
 Alpha  occ. eigenvalues --  -14.42518 -14.42368 -14.41537 -14.41235 -14.39485
 Alpha  occ. eigenvalues --  -14.39228 -14.38662 -14.38468 -10.39001 -10.38817
 Alpha  occ. eigenvalues --  -10.35574 -10.35303 -10.34403 -10.34059 -10.31556
 Alpha  occ. eigenvalues --  -10.31458 -10.31425 -10.31167 -10.30964 -10.30888
 Alpha  occ. eigenvalues --  -10.30637 -10.30592 -10.30313 -10.30271 -10.30225
 Alpha  occ. eigenvalues --  -10.30033 -10.30012 -10.29771 -10.29712 -10.29344
 Alpha  occ. eigenvalues --  -10.29322 -10.29276 -10.28758 -10.28558 -10.28486
 Alpha  occ. eigenvalues --  -10.28441 -10.28429 -10.28271 -10.28141 -10.27992
 Alpha  occ. eigenvalues --  -10.27873 -10.27862 -10.27797 -10.27670 -10.27639
 Alpha  occ. eigenvalues --  -10.27579 -10.27568 -10.27542 -10.27462 -10.27422
 Alpha  occ. eigenvalues --  -10.27373 -10.27346 -10.27345 -10.27280 -10.27156
 Alpha  occ. eigenvalues --  -10.26864 -10.26675 -10.26556 -10.26493 -10.26374
 Alpha  occ. eigenvalues --  -10.26354 -10.26258 -10.26116 -10.26049 -10.25910
 Alpha  occ. eigenvalues --  -10.25896 -10.25815 -10.25722 -10.25551 -10.25315
 Alpha  occ. eigenvalues --  -10.24943 -10.24896 -10.24875 -10.24739 -10.24642
 Alpha  occ. eigenvalues --  -10.24567  -3.16620  -3.16283  -1.91502  -1.91165
 Alpha  occ. eigenvalues --   -1.91088  -1.90930  -1.90754  -1.90591  -1.16544
 Alpha  occ. eigenvalues --   -1.16361  -1.08633  -1.08482  -1.07343  -1.06877
 Alpha  occ. eigenvalues --   -1.06663  -1.06556  -1.04645  -1.04362  -1.03844
 Alpha  occ. eigenvalues --   -1.03537  -1.03315  -1.02915  -1.02491  -1.01984
 Alpha  occ. eigenvalues --   -0.92020  -0.91839  -0.89636  -0.89377  -0.89211
 Alpha  occ. eigenvalues --   -0.88999  -0.88402  -0.88111  -0.87938  -0.87736
 Alpha  occ. eigenvalues --   -0.87662  -0.87550  -0.87369  -0.87015  -0.85018
 Alpha  occ. eigenvalues --   -0.84849  -0.84060  -0.83762  -0.83086  -0.82838
 Alpha  occ. eigenvalues --   -0.82694  -0.82508  -0.81591  -0.81402  -0.80639
 Alpha  occ. eigenvalues --   -0.80279  -0.78880  -0.78519  -0.77299  -0.77011
 Alpha  occ. eigenvalues --   -0.76963  -0.76736  -0.75946  -0.75673  -0.74988
 Alpha  occ. eigenvalues --   -0.74678  -0.72851  -0.72572  -0.71735  -0.71446
 Alpha  occ. eigenvalues --   -0.70057  -0.69655  -0.68920  -0.68681  -0.67710
 Alpha  occ. eigenvalues --   -0.67465  -0.67252  -0.67048  -0.65319  -0.65112
 Alpha  occ. eigenvalues --   -0.64911  -0.64669  -0.64630  -0.64485  -0.64372
 Alpha  occ. eigenvalues --   -0.64082  -0.62289  -0.62069  -0.60540  -0.60230
 Alpha  occ. eigenvalues --   -0.59844  -0.59652  -0.59055  -0.58856  -0.58566
 Alpha  occ. eigenvalues --   -0.58280  -0.57599  -0.57373  -0.57363  -0.57105
 Alpha  occ. eigenvalues --   -0.56378  -0.56072  -0.55951  -0.55680  -0.55596
 Alpha  occ. eigenvalues --   -0.55414  -0.55306  -0.55101  -0.54560  -0.54317
 Alpha  occ. eigenvalues --   -0.53918  -0.53755  -0.53382  -0.53271  -0.53101
 Alpha  occ. eigenvalues --   -0.52992  -0.52952  -0.52832  -0.52727  -0.52580
 Alpha  occ. eigenvalues --   -0.52556  -0.52293  -0.51977  -0.51747  -0.51649
 Alpha  occ. eigenvalues --   -0.51505  -0.51251  -0.51049  -0.50684  -0.50384
 Alpha  occ. eigenvalues --   -0.50157  -0.50002  -0.49858  -0.49762  -0.49566
 Alpha  occ. eigenvalues --   -0.49360  -0.49264  -0.49124  -0.49051  -0.48955
 Alpha  occ. eigenvalues --   -0.48628  -0.48559  -0.48501  -0.48390  -0.48262
 Alpha  occ. eigenvalues --   -0.48210  -0.47758  -0.47456  -0.47366  -0.46991
 Alpha  occ. eigenvalues --   -0.46877  -0.46579  -0.46576  -0.46439  -0.46400
 Alpha  occ. eigenvalues --   -0.46218  -0.46141  -0.45936  -0.45842  -0.45649
 Alpha  occ. eigenvalues --   -0.45305  -0.45093  -0.44613  -0.44600  -0.44359
 Alpha  occ. eigenvalues --   -0.44339  -0.44248  -0.44125  -0.44058  -0.43991
 Alpha  occ. eigenvalues --   -0.43952  -0.43797  -0.43511  -0.43450  -0.43362
 Alpha  occ. eigenvalues --   -0.43232  -0.43087  -0.42817  -0.42776  -0.42670
 Alpha  occ. eigenvalues --   -0.42620  -0.42445  -0.42101  -0.41832  -0.41758
 Alpha  occ. eigenvalues --   -0.41570  -0.41522  -0.41311  -0.41201  -0.40943
 Alpha  occ. eigenvalues --   -0.40923  -0.40856  -0.40661  -0.40607  -0.40562
 Alpha  occ. eigenvalues --   -0.40371  -0.40237  -0.40063  -0.39604  -0.39324
 Alpha  occ. eigenvalues --   -0.38572  -0.38235  -0.37767  -0.37484  -0.37419
 Alpha  occ. eigenvalues --   -0.37292  -0.37144  -0.37046  -0.36709  -0.36542
 Alpha  occ. eigenvalues --   -0.36207  -0.36048  -0.34358  -0.34120  -0.33714
 Alpha  occ. eigenvalues --   -0.33600  -0.33248  -0.33037  -0.31467  -0.31180
 Alpha  occ. eigenvalues --   -0.31104  -0.30840  -0.30041  -0.29786  -0.29534
 Alpha  occ. eigenvalues --   -0.29389  -0.29208  -0.29078  -0.24153  -0.23905
 Alpha  occ. eigenvalues --   -0.21207  -0.20992
 Alpha virt. eigenvalues --   -0.08852  -0.08666  -0.01837  -0.01562  -0.00141
 Alpha virt. eigenvalues --    0.00089   0.02143   0.02344   0.02821   0.03367
 Alpha virt. eigenvalues --    0.04666   0.04881   0.05160   0.05421   0.06148

 Mulliken charges:
               1
     1  Mg   0.838069
     2  C   -0.002159
     3  C   -0.093716
     4  C   -0.046523
     5  C   -0.064927
     6  N   -0.256746
     7  C   -0.052109
     8  C   -0.014047
     9  C   -0.087025
    10  C    0.046348
    11  C    0.104779
    12  C    0.053360
    13  C   -0.072157
    14  H    0.037456
    15  N   -0.433111
    16  C    0.168234
    17  C   -0.177104
    18  C   -0.004429
    19  C    0.148569
    20  C    0.110121
    21  C    0.011576
    22  O   -0.250351
    23  C    0.062725
    24  N   -0.341095
    25  C    0.041197
    26  C   -0.028113
    27  C   -0.023904
    28  C    0.074703
    29  C    0.076141
    30  C    0.035318
    31  C   -0.004890
    32  N   -0.310535
    33  C    0.080047
    34  C   -0.170427
    35  C    0.008931
    36  C    0.083072
    37  C    0.127166
    38  C    0.046807
    39  O   -0.187112
    40  C   -0.005547
    41  C    0.212859
    42  O   -0.255441
    43  O   -0.305215
    44  C    0.157198
    45  H   -0.017393
    46  H   -0.017367
    47  H   -0.041804
    48  H    0.001288
    49  H   -0.003816
    50  H    0.025639
    51  H    0.016216
    52  H    0.016836
    53  H    0.011083
    54  H    0.045198
    55  H    0.017736
    56  H    0.017731
    57  H    0.006236
    58  H    0.026824
    59  H    0.039170
    60  H    0.037818
    61  H    0.034949
    62  H    0.030941
    63  H    0.015645
    64  H    0.009881
    65  H    0.022961
    66  H    0.012902
    67  H    0.004987
    68  H    0.006488
    69  H    0.004845
    70  H    0.008471
    71  H    0.016913
    72  H    0.028407
    73  H    0.048049
    74  H    0.008494
    75  H    0.046517
    76  H    0.035298
    77  H    0.043118
    78  H    0.046190
    79  H    0.055251
    80  Mg   0.837906
    81  C   -0.016218
    82  C   -0.087783
    83  C   -0.045742
    84  C   -0.065183
    85  N   -0.254508
    86  C   -0.049689
    87  C   -0.014962
    88  C   -0.090525
    89  C    0.045702
    90  C    0.114397
    91  C    0.062494
    92  C   -0.079070
    93  H    0.036933
    94  N   -0.423390
    95  C    0.162707
    96  C   -0.174875
    97  C   -0.008176
    98  C    0.152037
    99  C    0.099442
   100  C    0.015301
   101  O   -0.253558
   102  C    0.061359
   103  N   -0.350126
   104  C    0.037403
   105  C   -0.019713
   106  C   -0.034816
   107  C    0.089086
   108  C    0.073779
   109  C    0.034801
   110  C   -0.007660
   111  N   -0.324241
   112  C    0.078735
   113  C   -0.163031
   114  C    0.002486
   115  C    0.096456
   116  C    0.131394
   117  C    0.042881
   118  O   -0.187054
   119  C    0.000783
   120  C    0.211255
   121  O   -0.248975
   122  O   -0.306664
   123  C    0.150794
   124  H   -0.019777
   125  H   -0.015982
   126  H   -0.040608
   127  H   -0.000823
   128  H   -0.004038
   129  H    0.022245
   130  H    0.014139
   131  H    0.016155
   132  H    0.013600
   133  H    0.039105
   134  H    0.020054
   135  H    0.020038
   136  H    0.008891
   137  H    0.025808
   138  H    0.039082
   139  H    0.038162
   140  H    0.035908
   141  H    0.033486
   142  H    0.014135
   143  H    0.012241
   144  H    0.024815
   145  H    0.011566
   146  H    0.005471
   147  H    0.005955
   148  H    0.003646
   149  H    0.010668
   150  H    0.017863
   151  H    0.030434
   152  H    0.046544
   153  H    0.008314
   154  H    0.046732
   155  H    0.034525
   156  H    0.043059
   157  H    0.048777
   158  H    0.057940
 Sum of Mulliken charges =  -0.00000

 Dipole moment (field-independent basis, Debye):
    X=             -2.3769    Y=              7.1489    Z=              1.2739  Tot=              7.6406
 Quadrupole moment (field-independent basis, Debye-Ang):
   XX=           -479.7345   YY=           -541.7257   ZZ=           -472.3142
   XY=            -22.6205   XZ=            -23.5563   YZ=             -2.9300

 Normal termination of Gaussian 16 at Sat Sep 11 09:41:36 2021.
