 Gaussian 16, Revision A.03,
 Gaussian 16:  ES64L-G16RevA.03 25-Dec-2016

 -----------------------------------
 #p cam-b3lyp/Def2SVP td=(nstates=5)
 -----------------------------------

 --------------------------------
 TDDFT excited states in gaussian
 --------------------------------
 Symbolic Z-matrix:
 Charge =  0 Multiplicity = 1

                         Standard orientation:
 ---------------------------------------------------------------------
 Center     Atomic      Atomic             Coordinates (Angstroms)
 Number     Number       Type             X           Y           Z
 ---------------------------------------------------------------------
      1         12           0        4.518583   -0.536589    1.037942
      2          6           0        5.114083    2.402031   -0.917079
      3          6           0        4.715306    1.446755    3.807547
      4          6           0        4.448505   -3.173654    2.797941
      5          6           0        5.488958   -2.402781   -1.740792
      6          7           0        4.871744    1.634820    1.284730
      7          6           0        5.025486    2.660101    0.452664
      8          6           0        5.007901    4.044162    1.167812
      9          6           0        5.449124    3.578880    2.627549
     10          6           0        4.951681    2.144741    2.586083
     11          6           0        6.960483    3.568795    2.832966
     12          6           0        3.581323    4.689516    1.178986
     13          6           0        3.537597    6.171531    1.562490
     14          1           0        2.564028    7.034956    0.911330
     15          7           0        4.094291   -0.789364    2.950775
     16          6           0        4.218390    0.131713    3.936423
     17          6           0        3.778227   -0.538879    5.178697
     18          6           0        3.568550   -1.980259    4.867964
     19          6           0        4.060257   -2.044657    3.515390
     20          6           0        3.552735    0.186414    6.469763
     21          6           0        3.022897   -3.121065    5.667312
     22          8           0        3.143298   -4.336159    5.288334
     23          6           0        2.413659   -2.781232    6.965920
     24          7           0        5.119194   -2.502562    0.674829
     25          6           0        4.923182   -3.463189    1.584641
     26          6           0        5.167899   -4.824059    1.003188
     27          6           0        5.338084   -4.608611   -0.569826
     28          6           0        5.236662   -3.063792   -0.608768
     29          6           0        6.389086   -5.575920    1.550378
     30          6           0        4.409460   -5.432345   -1.496940
     31          6           0        2.978383   -4.972992   -1.329278
     32          7           0        5.016860   -0.119335   -1.032967
     33          6           0        5.414419   -1.045914   -2.007684
     34          6           0        5.747584   -0.279137   -3.222230
     35          6           0        5.535183    1.050181   -2.862169
     36          6           0        5.122324    1.111901   -1.500541
     37          6           0        6.239247   -0.822251   -4.441955
     38          6           0        5.584671    2.434566   -3.303626
     39          8           0        5.774831    2.993751   -4.384664
     40          6           0        5.431559    3.373488   -2.026594
     41          6           0        4.406727    4.424599   -2.355526
     42          8           0        3.209930    4.118148   -2.531961
     43          8           0        4.944556    5.640977   -2.177462
     44          6           0        3.970852    6.729571   -2.458561
     45          1           0        4.989564    1.924575    4.750103
     46          1           0        4.332966   -4.117102    3.335523
     47          1           0        5.717855   -2.923353   -2.672492
     48          1           0        5.722999    4.767514    0.775612
     49          1           0        4.930774    4.137379    3.406725
     50          1           0        7.490634    3.759589    1.899982
     51          1           0        7.196580    2.572819    3.208178
     52          1           0        7.248656    4.262722    3.623028
     53          1           0        3.002600    4.268043    2.000875
     54          1           0        3.087911    4.551532    0.216266
     55          1           0        4.530225    6.621470    1.528546
     56          1           0        3.242580    6.244879    2.609288
     57          1           0        3.947792    1.200890    6.433508
     58          1           0        4.157623   -0.313780    7.225821
     59          1           0        2.504843    0.173858    6.769924
     60          1           0        3.154383   -2.282685    7.591482
     61          1           0        1.998807   -3.710108    7.355714
     62          1           0        1.613975   -2.058249    6.802364
     63          1           0        4.320774   -5.484536    1.183676
     64          1           0        6.343229   -4.858253   -0.910466
     65          1           0        6.149196   -6.551939    1.972925
     66          1           0        6.874130   -4.938481    2.289089
     67          1           0        7.193937   -5.725269    0.831124
     68          1           0        4.441650   -6.487030   -1.225738
     69          1           0        4.673751   -5.352857   -2.551493
     70          1           0        2.645232   -5.529049   -0.453696
     71          1           0        2.388570   -5.237621   -2.207516
     72          1           0        2.927123   -3.912732   -1.080867
     73          1           0        5.697215   -0.316980   -5.241249
     74          1           0        6.090981   -1.901101   -4.483241
     75          1           0        7.291881   -0.547666   -4.375463
     76          1           0        6.413572    3.804916   -1.835173
     77          1           0        4.420466    7.375527   -3.212765
     78          1           0        3.717961    7.175210   -1.496347
     79          1           0        3.050080    6.434341   -2.962900
     80         12           0       -4.227724   -0.749167   -1.021677
     81          6           0       -6.432957    1.485203    0.717173
     82          6           0       -3.119059    1.953950   -2.781963
     83          6           0       -2.604937   -2.747507   -2.876571
     84          6           0       -6.275013   -3.366051    0.030114
     85          7           0       -4.780807    1.391216   -0.950341
     86          6           0       -5.587196    2.133633   -0.206765
     87          6           0       -5.423660    3.663651   -0.411344
     88          6           0       -4.805445    3.643378   -1.893326
     89          6           0       -4.161531    2.258628   -1.870633
     90          6           0       -5.861268    3.661317   -2.986141
     91          6           0       -4.426136    4.301148    0.618495
     92          6           0       -4.453140    5.830027    0.678053
     93          1           0       -4.244645    6.480082    1.968959
     94          7           0       -2.700786   -0.413592   -2.244138
     95          6           0       -2.385408    0.749295   -2.852007
     96          6           0       -1.188973    0.468958   -3.660774
     97          6           0       -0.920730   -0.993983   -3.610091
     98          6           0       -2.102979   -1.454648   -2.909975
     99          6           0       -0.380070    1.548952   -4.318589
    100          6           0        0.206343   -1.840054   -4.120067
    101          8           0        0.118205   -3.117607   -4.174158
    102          6           0        1.379865   -1.123975   -4.641171
    103          7           0       -4.525432   -2.737199   -1.552210
    104          6           0       -3.641170   -3.384711   -2.331134
    105          6           0       -3.916635   -4.869335   -2.351308
    106          6           0       -5.026962   -5.115598   -1.226984
    107          6           0       -5.276920   -3.654329   -0.793821
    108          6           0       -4.406815   -5.436932   -3.683211
    109          6           0       -4.697610   -6.165475   -0.130649
    110          6           0       -3.564946   -5.666995    0.737671
    111          7           0       -5.919299   -0.963883    0.305177
    112          6           0       -6.641714   -2.145230    0.581950
    113          6           0       -7.774442   -1.769013    1.452478
    114          6           0       -7.644662   -0.380260    1.604198
    115          6           0       -6.522818    0.079708    0.862979
    116          6           0       -8.773479   -2.654254    1.946847
    117          6           0       -8.207808    0.802717    2.214223
    118          8           0       -9.111732    1.017805    3.020690
    119          6           0       -7.522504    2.081297    1.564619
    120          6           0       -7.116509    3.007027    2.678493
    121          8           0       -6.239249    2.669476    3.492794
    122          8           0       -7.670386    4.215564    2.471006
    123          6           0       -7.287867    5.171763    3.543939
    124          1           0       -2.864945    2.690546   -3.544678
    125          1           0       -2.015883   -3.495972   -3.411635
    126          1           0       -6.901809   -4.138626    0.480587
    127          1           0       -6.350427    4.224726   -0.402721
    128          1           0       -4.048671    4.413813   -2.016176
    129          1           0       -6.858894    3.565127   -2.584119
    130          1           0       -5.630998    2.823677   -3.631423
    131          1           0       -5.749435    4.557122   -3.603677
    132          1           0       -3.398651    4.144996    0.265449
    133          1           0       -4.583024    3.898448    1.600240
    134          1           0       -5.334806    6.246587    0.175961
    135          1           0       -3.609073    6.214774    0.100533
    136          1           0       -0.913488    2.507533   -4.318663
    137          1           0       -0.295902    1.284871   -5.378325
    138          1           0        0.622954    1.640325   -3.896394
    139          1           0        1.073337   -0.474199   -5.457440
    140          1           0        2.113822   -1.897422   -4.875615
    141          1           0        1.771967   -0.473523   -3.851384
    142          1           0       -3.026772   -5.431287   -2.095471
    143          1           0       -5.970199   -5.481034   -1.658944
    144          1           0       -3.768307   -6.252823   -4.071402
    145          1           0       -4.465755   -4.627178   -4.398315
    146          1           0       -5.428022   -5.814127   -3.676627
    147          1           0       -4.351569   -7.095383   -0.588553
    148          1           0       -5.545603   -6.412767    0.499244
    149          1           0       -2.674996   -5.936034    0.160866
    150          1           0       -3.574769   -6.166647    1.704254
    151          1           0       -3.585213   -4.574230    0.821975
    152          1           0       -8.926677   -2.400861    2.987427
    153          1           0       -8.476306   -3.694326    1.829705
    154          1           0       -9.609020   -2.389968    1.293168
    155          1           0       -8.252234    2.540166    0.896401
    156          1           0       -8.217142    5.564259    3.968304
    157          1           0       -6.605448    5.899582    3.066103
    158          1           0       -6.806179    4.767988    4.426771
 ---------------------------------------------------------------------

 SCF Done:  E(RCAM-B3LYP) =  -4069.81500321     A.U. after   17 cycles

 Excitation energies and oscillator strengths:

 Excited State   1:      Singlet-A      1.6418 eV  755.19 nm  f=0.1058  <S**2>=0.000
     309 -> 315        0.11650
     310 -> 316        0.11814
     311 -> 313       -0.48107
     312 -> 314        0.49145
 This state for optimization and/or second-order correction.
 Total Energy, E(TD-HF/TD-DFT) =  -4069.75466982
 Copying the excited state density for this state as the 1-particle RhoCI density.

 Excited State   2:      Singlet-A      1.7061 eV  726.73 nm  f=0.6219  <S**2>=0.000
     309 -> 315       -0.13061
     310 -> 316        0.12643
     311 -> 313        0.48884
     312 -> 314        0.47875

 Excited State   3:      Singlet-A      2.1860 eV  567.16 nm  f=0.0032  <S**2>=0.000
     309 -> 313       -0.42038
     310 -> 314        0.48811
     311 -> 315       -0.17622
     312 -> 316       -0.20575

 Excited State   4:      Singlet-A      2.1982 eV  564.03 nm  f=0.1712  <S**2>=0.000
     309 -> 313        0.48466
     310 -> 314        0.41621
     311 -> 315        0.21380
     312 -> 316       -0.18313

 Excited State   5:      Singlet-A      2.3505 eV  527.49 nm  f=0.0000  <S**2>=0.000
     312 -> 313        0.70668

 The electronic state is 1-A.
 Alpha  occ. eigenvalues --  -46.87884 -46.87373 -19.26691 -19.26232 -19.19514
 Alpha  occ. eigenvalues --  -19.19028 -19.18833 -19.18400 -19.18389 -19.17797
 Alpha  occ. eigenvalues --  -14.42545 -14.42214 -14.41500 -14.41073 -14.39483
 Alpha  occ. eigenvalues --  -14.39049 -14.38722 -14.38313 -10.39517 -10.38948
 Alpha  occ. eigenvalues --  -10.35459 -10.35025 -10.34629 -10.33984 -10.32082
 Alpha  occ. eigenvalues --  -10.31687 -10.31541 -10.31036 -10.31013 -10.30705
 Alpha  occ. eigenvalues --  -10.30698 -10.30605 -10.30193 -10.30130 -10.30053
 Alpha  occ. eigenvalues --  -10.29985 -10.29822 -10.29736 -10.29661 -10.29327
 Alpha  occ. eigenvalues --  -10.29090 -10.29055 -10.28900 -10.28746 -10.28531
 Alpha  occ. eigenvalues --  -10.28497 -10.28482 -10.28244 -10.28086 -10.27927
 Alpha  occ. eigenvalues --  -10.27881 -10.27815 -10.27673 -10.27671 -10.27530
 Alpha  occ. eigenvalues --  -10.27490 -10.27410 -10.27367 -10.27353 -10.27347
 Alpha  occ. eigenvalues --  -10.27284 -10.27204 -10.27169 -10.27092 -10.26900
 Alpha  occ. eigenvalues --  -10.26832 -10.26533 -10.26502 -10.26353 -10.26346
 Alpha  occ. eigenvalues --  -10.26051 -10.25989 -10.25928 -10.25828 -10.25788
 Alpha  occ. eigenvalues --  -10.25785 -10.25638 -10.25614 -10.25380 -10.25223
 Alpha  occ. eigenvalues --  -10.24999 -10.24857 -10.24567 -10.24513 -10.24417
 Alpha  occ. eigenvalues --  -10.24073  -3.16627  -3.16124  -1.91508  -1.91094
 Alpha  occ. eigenvalues --   -1.91007  -1.90938  -1.90595  -1.90432  -1.17045
 Alpha  occ. eigenvalues --   -1.16521  -1.08884  -1.08423  -1.07228  -1.07097
 Alpha  occ. eigenvalues --   -1.06809  -1.06629  -1.04688  -1.04206  -1.03825
 Alpha  occ. eigenvalues --   -1.03376  -1.03330  -1.02747  -1.02502  -1.01817
 Alpha  occ. eigenvalues --   -0.92129  -0.91715  -0.89485  -0.89310  -0.89231
 Alpha  occ. eigenvalues --   -0.88906  -0.88221  -0.88007  -0.87976  -0.87761
 Alpha  occ. eigenvalues --   -0.87515  -0.87391  -0.87321  -0.86609  -0.85104
 Alpha  occ. eigenvalues --   -0.84743  -0.83862  -0.83647  -0.82922  -0.82740
 Alpha  occ. eigenvalues --   -0.82551  -0.82260  -0.81792  -0.81385  -0.80720
 Alpha  occ. eigenvalues --   -0.80171  -0.78869  -0.78210  -0.77276  -0.77039
 Alpha  occ. eigenvalues --   -0.76831  -0.76680  -0.76060  -0.75553  -0.74882
 Alpha  occ. eigenvalues --   -0.74547  -0.72857  -0.72396  -0.71763  -0.71318
 Alpha  occ. eigenvalues --   -0.69704  -0.69518  -0.68978  -0.68551  -0.67750
 Alpha  occ. eigenvalues --   -0.67336  -0.67320  -0.66897  -0.65427  -0.65024
 Alpha  occ. eigenvalues --   -0.64995  -0.64704  -0.64510  -0.64407  -0.64210
 Alpha  occ. eigenvalues --   -0.63953  -0.62511  -0.62077  -0.60475  -0.59931
 Alpha  occ. eigenvalues --   -0.59930  -0.59527  -0.59084  -0.58723  -0.58612
 Alpha  occ. eigenvalues --   -0.58148  -0.57843  -0.57348  -0.57337  -0.56930
 Alpha  occ. eigenvalues --   -0.56454  -0.56210  -0.55893  -0.55652  -0.55616
 Alpha  occ. eigenvalues --   -0.55408  -0.55119  -0.55010  -0.54583  -0.54283
 Alpha  occ. eigenvalues --   -0.54035  -0.53667  -0.53364  -0.53338  -0.53084
 Alpha  occ. eigenvalues --   -0.52948  -0.52830  -0.52808  -0.52648  -0.52235
 Alpha  occ. eigenvalues --   -0.52177  -0.52134  -0.52033  -0.51743  -0.51632
 Alpha  occ. eigenvalues --   -0.51336  -0.51282  -0.50944  -0.50554  -0.50027
 Alpha  occ. eigenvalues --   -0.49967  -0.49862  -0.49624  -0.49590  -0.49496
 Alpha  occ. eigenvalues --   -0.49348  -0.49229  -0.49144  -0.48867  -0.48829
 Alpha  occ. eigenvalues --   -0.48779  -0.48547  -0.48451  -0.48301  -0.48148
 Alpha  occ. eigenvalues --   -0.47942  -0.47756  -0.47366  -0.47255  -0.46850
 Alpha  occ. eigenvalues --   -0.46732  -0.46685  -0.46463  -0.46439  -0.46277
 Alpha  occ. eigenvalues --   -0.46228  -0.46014  -0.45938  -0.45815  -0.45607
 Alpha  occ. eigenvalues --   -0.45164  -0.44959  -0.44749  -0.44543  -0.44274
 Alpha  occ. eigenvalues --   -0.44271  -0.44205  -0.44129  -0.44040  -0.43868
 Alpha  occ. eigenvalues --   -0.43790  -0.43678  -0.43517  -0.43438  -0.43352
 Alpha  occ. eigenvalues --   -0.43130  -0.43124  -0.43006  -0.42737  -0.42630
 Alpha  occ. eigenvalues --   -0.42558  -0.42250  -0.41955  -0.41792  -0.41726
 Alpha  occ. eigenvalues --   -0.41591  -0.41408  -0.41234  -0.41210  -0.40938
 Alpha  occ. eigenvalues --   -0.40852  -0.40726  -0.40471  -0.40465  -0.40370
 Alpha  occ. eigenvalues --   -0.40368  -0.40260  -0.39965  -0.39197  -0.39189
 Alpha  occ. eigenvalues --   -0.38426  -0.38121  -0.37896  -0.37442  -0.37410
 Alpha  occ. eigenvalues --   -0.37303  -0.37023  -0.37007  -0.36917  -0.36616
 Alpha  occ. eigenvalues --   -0.36267  -0.35989  -0.34400  -0.34182  -0.33976
 Alpha  occ. eigenvalues --   -0.33700  -0.33294  -0.32888  -0.31366  -0.31130
 Alpha  occ. eigenvalues --   -0.30935  -0.30690  -0.30268  -0.29714  -0.29568
 Alpha  occ. eigenvalues --   -0.29447  -0.28988  -0.28887  -0.24177  -0.23753
 Alpha  occ. eigenvalues --   -0.21217  -0.20809
 Alpha virt. eigenvalues --   -0.08871  -0.08468  -0.01815  -0.01400  -0.00143
 Alpha virt. eigenvalues --    0.00320   0.02047   0.02470   0.02739   0.03678
 Alpha virt. eigenvalues --    0.04611   0.04709   0.04979   0.05322   0.05999

 Mulliken charges:
               1
     1  Mg   0.838389
     2  C   -0.004890
     3  C   -0.093942
     4  C   -0.045087
     5  C   -0.062315
     6  N   -0.257167
     7  C   -0.052609
     8  C   -0.014144
     9  C   -0.087164
    10  C    0.046824
    11  C    0.104687
    12  C    0.053363
    13  C   -0.071521
    14  H    0.034009
    15  N   -0.433478
    16  C    0.169360
    17  C   -0.176240
    18  C   -0.003056
    19  C    0.149283
    20  C    0.109897
    21  C    0.013147
    22  O   -0.248770
    23  C    0.061936
    24  N   -0.341633
    25  C    0.042418
    26  C   -0.028216
    27  C   -0.023822
    28  C    0.075767
    29  C    0.076205
    30  C    0.034177
    31  C   -0.005405
    32  N   -0.309076
    33  C    0.077481
    34  C   -0.173280
    35  C    0.005941
    36  C    0.079655
    37  C    0.127586
    38  C    0.041933
    39  O   -0.190081
    40  C   -0.004441
    41  C    0.214502
    42  O   -0.262563
    43  O   -0.303321
    44  C    0.158136
    45  H   -0.017119
    46  H   -0.015888
    47  H   -0.040164
    48  H    0.000567
    49  H   -0.003520
    50  H    0.025406
    51  H    0.016906
    52  H    0.017076
    53  H    0.012474
    54  H    0.041749
    55  H    0.018257
    56  H    0.019176
    57  H    0.006072
    58  H    0.027287
    59  H    0.041800
    60  H    0.037239
    61  H    0.036437
    62  H    0.033303
    63  H    0.017776
    64  H    0.008788
    65  H    0.023438
    66  H    0.011850
    67  H    0.004929
    68  H    0.005157
    69  H    0.005629
    70  H    0.004855
    71  H    0.031693
    72  H    0.026398
    73  H    0.044901
    74  H    0.011115
    75  H    0.046378
    76  H    0.035920
    77  H    0.043657
    78  H    0.047457
    79  H    0.050956
    80  Mg   0.836281
    81  C   -0.017083
    82  C   -0.084481
    83  C   -0.046154
    84  C   -0.065117
    85  N   -0.254401
    86  C   -0.051057
    87  C   -0.015010
    88  C   -0.090590
    89  C    0.045024
    90  C    0.114393
    91  C    0.062131
    92  C   -0.077071
    93  H    0.032092
    94  N   -0.423832
    95  C    0.162390
    96  C   -0.171735
    97  C   -0.009072
    98  C    0.152123
    99  C    0.096646
   100  C    0.015187
   101  O   -0.257834
   102  C    0.059696
   103  N   -0.350142
   104  C    0.038211
   105  C   -0.019793
   106  C   -0.034341
   107  C    0.088239
   108  C    0.073985
   109  C    0.034933
   110  C   -0.007279
   111  N   -0.323687
   112  C    0.077229
   113  C   -0.164253
   114  C    0.001696
   115  C    0.095185
   116  C    0.131743
   117  C    0.041405
   118  O   -0.189767
   119  C    0.001162
   120  C    0.211194
   121  O   -0.252069
   122  O   -0.305431
   123  C    0.152466
   124  H   -0.018140
   125  H   -0.016648
   126  H   -0.041481
   127  H   -0.001456
   128  H   -0.003312
   129  H    0.021907
   130  H    0.014694
   131  H    0.016129
   132  H    0.015304
   133  H    0.036537
   134  H    0.020622
   135  H    0.019894
   136  H    0.009309
   137  H    0.024364
   138  H    0.060015
   139  H    0.040231
   140  H    0.030235
   141  H    0.046011
   142  H    0.013525
   143  H    0.011716
   144  H    0.024056
   145  H    0.011806
   146  H    0.005344
   147  H    0.005274
   148  H    0.003194
   149  H    0.010481
   150  H    0.017978
   151  H    0.030308
   152  H    0.044821
   153  H    0.007860
   154  H    0.046105
   155  H    0.034505
   156  H    0.043405
   157  H    0.049242
   158  H    0.052526
 Sum of Mulliken charges =  -0.00000

 Dipole moment (field-independent basis, Debye):
    X=              3.1709    Y=              3.1220    Z=              0.9056  Tot=              4.5411
 Quadrupole moment (field-independent basis, Debye-Ang):
   XX=           -533.5566   YY=           -463.7049   ZZ=           -517.4755
   XY=              5.4989   XZ=             46.9389   YZ=             19.5487

 Normal termination of Gaussian 16 at Thu Sep  9 15:05:29 2021.
