 Gaussian 16, Revision A.03,
 Gaussian 16:  ES64L-G16RevA.03 25-Dec-2016

 -----------------------------------
 #p cam-b3lyp/Def2SVP td=(nstates=5)
 -----------------------------------

 --------------------------------
 TDDFT excited states in gaussian
 --------------------------------
 Symbolic Z-matrix:
 Charge =  0 Multiplicity = 1

                         Standard orientation:
 ---------------------------------------------------------------------
 Center     Atomic      Atomic             Coordinates (Angstroms)
 Number     Number       Type             X           Y           Z
 ---------------------------------------------------------------------
      1         12           0       -4.135178    0.831666    0.126330
      2          6           0       -4.564794   -2.271959    1.856982
      3          6           0       -4.795432    2.400976    3.083423
      4          6           0       -4.209805    3.571269   -1.469172
      5          6           0       -4.632887   -0.924497   -2.842481
      6          7           0       -4.603828    0.054117    2.145347
      7          6           0       -4.679243   -1.156410    2.689506
      8          6           0       -4.816066   -1.128806    4.241244
      9          6           0       -5.439114    0.328680    4.413124
     10          6           0       -4.885247    0.979202    3.157745
     11          6           0       -6.962791    0.351629    4.346914
     12          6           0       -3.431398   -1.248627    4.962403
     13          6           0       -3.499678   -1.556793    6.460977
     14          1           0       -2.478837   -2.412072    7.047262
     15          7           0       -3.973735    2.693003    0.768368
     16          6           0       -4.270611    3.150551    2.008448
     17          6           0       -3.983163    4.600934    1.987377
     18          6           0       -3.675964    4.983537    0.581199
     19          6           0       -3.970290    3.753891   -0.109250
     20          6           0       -3.969356    5.454980    3.217891
     21          6           0       -3.203718    6.258584   -0.042798
     22          8           0       -3.222336    6.444565   -1.307566
     23          6           0       -2.796282    7.331324    0.882549
     24          7           0       -4.601848    1.311120   -1.851037
     25          6           0       -4.498033    2.566933   -2.299521
     26          6           0       -4.605573    2.623442   -3.794574
     27          6           0       -4.561803    1.108877   -4.298488
     28          6           0       -4.516223    0.403028   -2.920820
     29          6           0       -5.861169    3.309917   -4.349769
     30          6           0       -3.480969    0.748009   -5.348245
     31          6           0       -2.106539    0.850184   -4.725669
     32          7           0       -4.354069   -1.251136   -0.443819
     33          6           0       -4.574617   -1.753278   -1.734510
     34          6           0       -4.763842   -3.209801   -1.604887
     35          6           0       -4.656004   -3.453061   -0.237028
     36          6           0       -4.440851   -2.222748    0.447320
     37          6           0       -5.058090   -4.109725   -2.666956
     38          6           0       -4.697039   -4.462956    0.808097
     39          8           0       -4.755407   -5.693345    0.823226
     40          6           0       -4.761202   -3.723624    2.217033
     41          6           0       -3.742137   -4.369235    3.115922
     42          8           0       -2.521397   -4.260815    2.880543
     43          8           0       -4.346624   -4.806334    4.231307
     44          6           0       -3.386310   -5.431464    5.179550
     45          1           0       -5.217546    2.999554    3.893030
     46          1           0       -4.134089    4.479238   -2.071084
     47          1           0       -4.708426   -1.549273   -3.734334
     48          1           0       -5.496762   -1.875339    4.650836
     49          1           0       -5.057297    0.832367    5.300951
     50          1           0       -7.363929   -0.621214    4.063036
     51          1           0       -7.210156    1.099929    3.593687
     52          1           0       -7.385718    0.717450    5.282909
     53          1           0       -2.957637   -0.267569    4.996136
     54          1           0       -2.802883   -1.991391    4.469863
     55          1           0       -4.494521   -1.893724    6.753679
     56          1           0       -3.357426   -0.624821    7.008144
     57          1           0       -4.394672    4.931708    4.073366
     58          1           0       -4.654309    6.283389    3.038204
     59          1           0       -2.974213    5.841862    3.437765
     60          1           0       -3.636262    7.587683    1.528508
     61          1           0       -2.404287    8.133805    0.258679
     62          1           0       -2.010364    6.953399    1.537113
     63          1           0       -3.767024    3.168027   -4.226649
     64          1           0       -5.498758    0.806385   -4.766769
     65          1           0       -5.645028    4.143350   -5.018632
     66          1           0       -6.469469    3.633529   -3.505650
     67          1           0       -6.550789    2.647739   -4.872610
     68          1           0       -3.509725    1.451792   -6.179394
     69          1           0       -3.597693   -0.255021   -5.758802
     70          1           0       -1.878017    1.911772   -4.813071
     71          1           0       -1.389557    0.249073   -5.285860
     72          1           0       -2.131985    0.608774   -3.662861
     73          1           0       -4.429461   -4.985720   -2.507499
     74          1           0       -4.863557   -3.653933   -3.637530
     75          1           0       -6.119545   -4.286300   -2.493778
     76          1           0       -5.776418   -3.850517    2.591675
     77          1           0       -3.750577   -6.437326    5.388796
     78          1           0       -3.288389   -4.743809    6.019757
     79          1           0       -2.393121   -5.650059    4.785683
     80         12           0        4.813653    0.046158   -0.113340
     81          6           0        2.467863   -1.709396   -2.185614
     82          6           0        3.423296    2.944937   -1.252909
     83          6           0        7.148725    1.623187    1.345386
     84          6           0        6.717062   -2.872169   -0.035300
     85          7           0        3.163631    0.437580   -1.533360
     86          6           0        2.304892   -0.308609   -2.211685
     87          6           0        1.161116    0.487535   -2.895396
     88          6           0        1.893833    1.912039   -3.008356
     89          6           0        2.866919    1.779824   -1.838615
     90          6           0        2.701372    2.073839   -4.285479
     91          6           0       -0.125390    0.572639   -2.001155
     92          6           0       -1.380354    1.065304   -2.725103
     93          1           0       -2.671053    0.497565   -2.345291
     94          7           0        4.937902    1.954109    0.418520
     95          6           0        4.286802    2.997694   -0.136700
     96          6           0        4.735857    4.189697    0.599252
     97          6           0        5.828845    3.785401    1.524810
     98          6           0        6.032852    2.412524    1.108051
     99          6           0        4.083612    5.533206    0.447713
    100          6           0        6.576593    4.517581    2.597654
    101          8           0        7.649189    4.043061    3.114552
    102          6           0        6.068317    5.848919    2.959145
    103          7           0        6.765897   -0.467556    0.383837
    104          6           0        7.553321    0.384618    1.063308
    105          6           0        8.809302   -0.300526    1.546514
    106          6           0        8.587872   -1.857645    1.256845
    107          6           0        7.219570   -1.790302    0.543671
    108          6           0       10.111687    0.158594    0.891249
    109          6           0        8.747359   -2.826968    2.460035
    110          6           0        7.637306   -2.595597    3.459855
    111          7           0        4.565503   -1.991173   -0.788439
    112          6           0        5.497358   -3.046271   -0.676701
    113          6           0        4.924145   -4.210061   -1.383423
    114          6           0        3.699123   -3.740679   -1.880930
    115          6           0        3.530610   -2.374553   -1.527673
    116          6           0        5.549335   -5.479283   -1.539358
    117          6           0        2.515083   -4.087207   -2.633702
    118          8           0        2.062862   -5.126855   -3.111590
    119          6           0        1.722878   -2.751580   -2.972672
    120          6           0        0.272583   -2.975183   -2.642271
    121          8           0       -0.086632   -3.158759   -1.465883
    122          8           0       -0.472296   -2.720278   -3.733391
    123          6           0       -1.919369   -2.917492   -3.452469
    124          1           0        3.213517    3.909381   -1.716277
    125          1           0        7.936819    2.088086    1.942249
    126          1           0        7.204345   -3.847516    0.027390
    127          1           0        0.886109    0.131669   -3.881049
    128          1           0        1.198095    2.728922   -2.835105
    129          1           0        2.745377    1.156348   -4.853292
    130          1           0        3.692907    2.371943   -3.970784
    131          1           0        2.309541    2.906780   -4.876256
    132          1           0       -0.000400    1.381734   -1.270071
    133          1           0       -0.326015   -0.370643   -1.531479
    134          1           0       -1.259891    1.050688   -3.815159
    135          1           0       -1.526978    2.121349   -2.485791
    136          1           0        3.418208    5.561294   -0.423976
    137          1           0        4.877317    6.248628    0.206717
    138          1           0        3.577180    5.860674    1.358185
    139          1           0        6.067305    6.486504    2.078269
    140          1           0        6.678619    6.175376    3.803442
    141          1           0        5.024493    5.750316    3.277485
    142          1           0        8.942887   -0.156756    2.611691
    143          1           0        9.308084   -2.241351    0.519353
    144          1           0       10.861370    0.523224    1.618628
    145          1           0        9.877142    0.928777    0.168506
    146          1           0       10.608928   -0.590521    0.277431
    147          1           0        9.684671   -2.627649    2.985272
    148          1           0        8.754901   -3.873351    2.173648
    149          1           0        8.005883   -1.748564    4.046178
    150          1           0        7.494467   -3.475358    4.084077
    151          1           0        6.716957   -2.273983    2.958685
    152          1           0        4.788426   -6.225925   -1.354876
    153          1           0        6.392161   -5.593374   -0.860832
    154          1           0        5.868561   -5.412562   -2.582865
    155          1           0        1.873654   -2.541196   -4.032194
    156          1           0       -2.293307   -3.634019   -4.190337
    157          1           0       -2.366106   -1.905523   -3.461674
    158          1           0       -2.187316   -3.409786   -2.524943
 ---------------------------------------------------------------------

 SCF Done:  E(RCAM-B3LYP) =  -4069.54255657     A.U. after   19 cycles

 Excitation energies and oscillator strengths:

 Excited State   1:      Singlet-A      1.6197 eV  765.46 nm  f=0.0295  <S**2>=0.000
     308 -> 315        0.12920
     311 -> 313        0.57733
     312 -> 314       -0.37434
 This state for optimization and/or second-order correction.
 Total Energy, E(TD-HF/TD-DFT) =  -4069.48303218
 Copying the excited state density for this state as the 1-particle RhoCI density.

 Excited State   2:      Singlet-A      1.6912 eV  733.11 nm  f=0.6383  <S**2>=0.000
     309 -> 316        0.14752
     311 -> 313        0.37125
     312 -> 314        0.57487

 Excited State   3:      Singlet-A      2.0581 eV  602.41 nm  f=0.0427  <S**2>=0.000
     308 -> 313       -0.20683
     310 -> 313        0.63563
     311 -> 315        0.15146
     312 -> 313       -0.14024

 Excited State   4:      Singlet-A      2.1677 eV  571.95 nm  f=0.0064  <S**2>=0.000
     308 -> 313       -0.12236
     309 -> 314       -0.17450
     312 -> 313        0.66080

 Excited State   5:      Singlet-A      2.1832 eV  567.91 nm  f=0.1051  <S**2>=0.000
     309 -> 314        0.61832
     312 -> 313        0.18259
     312 -> 316       -0.25796

 The electronic state is 1-A.
 Alpha  occ. eigenvalues --  -46.88273 -46.87259 -19.26182 -19.25827 -19.19393
 Alpha  occ. eigenvalues --  -19.18860 -19.18539 -19.18442 -19.18349 -19.17621
 Alpha  occ. eigenvalues --  -14.42962 -14.42048 -14.41843 -14.40978 -14.39913
 Alpha  occ. eigenvalues --  -14.39101 -14.38967 -14.38196 -10.38978 -10.38486
 Alpha  occ. eigenvalues --  -10.36019 -10.35128 -10.34566 -10.33790 -10.31926
 Alpha  occ. eigenvalues --  -10.31548 -10.31282 -10.31174 -10.31133 -10.31122
 Alpha  occ. eigenvalues --  -10.30843 -10.30831 -10.30568 -10.30475 -10.30275
 Alpha  occ. eigenvalues --  -10.30011 -10.29941 -10.29807 -10.29710 -10.29517
 Alpha  occ. eigenvalues --  -10.29084 -10.29019 -10.29003 -10.28727 -10.28602
 Alpha  occ. eigenvalues --  -10.28445 -10.28282 -10.28182 -10.28175 -10.28010
 Alpha  occ. eigenvalues --  -10.28004 -10.27977 -10.27865 -10.27784 -10.27625
 Alpha  occ. eigenvalues --  -10.27597 -10.27567 -10.27326 -10.27243 -10.27232
 Alpha  occ. eigenvalues --  -10.27192 -10.27103 -10.27086 -10.27053 -10.26941
 Alpha  occ. eigenvalues --  -10.26820 -10.26709 -10.26592 -10.26539 -10.26307
 Alpha  occ. eigenvalues --  -10.26245 -10.25887 -10.25723 -10.25584 -10.25569
 Alpha  occ. eigenvalues --  -10.25495 -10.25332 -10.25284 -10.25234 -10.25219
 Alpha  occ. eigenvalues --  -10.25145 -10.24485 -10.24484 -10.24314 -10.23740
 Alpha  occ. eigenvalues --  -10.20963  -3.17003  -3.16009  -1.91881  -1.91473
 Alpha  occ. eigenvalues --   -1.91316  -1.90891  -1.90479  -1.90317  -1.16529
 Alpha  occ. eigenvalues --   -1.16092  -1.08765  -1.08211  -1.07793  -1.06702
 Alpha  occ. eigenvalues --   -1.06499  -1.06335  -1.05069  -1.04358  -1.04048
 Alpha  occ. eigenvalues --   -1.03796  -1.03256  -1.02920  -1.02661  -1.01720
 Alpha  occ. eigenvalues --   -0.92829  -0.92290  -0.91561  -0.89586  -0.89455
 Alpha  occ. eigenvalues --   -0.89150  -0.88434  -0.88361  -0.88180  -0.87921
 Alpha  occ. eigenvalues --   -0.87842  -0.87671  -0.87387  -0.86815  -0.86695
 Alpha  occ. eigenvalues --   -0.85319  -0.84029  -0.83669  -0.83536  -0.83141
 Alpha  occ. eigenvalues --   -0.82664  -0.82264  -0.81841  -0.81344  -0.80860
 Alpha  occ. eigenvalues --   -0.80349  -0.79525  -0.79227  -0.78281  -0.77387
 Alpha  occ. eigenvalues --   -0.76778  -0.76635  -0.76170  -0.75709  -0.74956
 Alpha  occ. eigenvalues --   -0.74470  -0.73529  -0.72743  -0.72154  -0.72093
 Alpha  occ. eigenvalues --   -0.71119  -0.69453  -0.69319  -0.68183  -0.68083
 Alpha  occ. eigenvalues --   -0.67595  -0.67221  -0.67127  -0.65578  -0.65406
 Alpha  occ. eigenvalues --   -0.65176  -0.64952  -0.64402  -0.64348  -0.63856
 Alpha  occ. eigenvalues --   -0.63308  -0.62330  -0.61868  -0.60927  -0.60160
 Alpha  occ. eigenvalues --   -0.60012  -0.59481  -0.59319  -0.58897  -0.58598
 Alpha  occ. eigenvalues --   -0.58098  -0.57869  -0.57556  -0.57138  -0.56950
 Alpha  occ. eigenvalues --   -0.56825  -0.56556  -0.56160  -0.55924  -0.55821
 Alpha  occ. eigenvalues --   -0.55718  -0.55111  -0.55066  -0.54846  -0.54776
 Alpha  occ. eigenvalues --   -0.54207  -0.54106  -0.53769  -0.53581  -0.53452
 Alpha  occ. eigenvalues --   -0.53226  -0.52997  -0.52878  -0.52821  -0.52510
 Alpha  occ. eigenvalues --   -0.52216  -0.52209  -0.52010  -0.51929  -0.51821
 Alpha  occ. eigenvalues --   -0.51495  -0.51309  -0.51039  -0.50827  -0.50435
 Alpha  occ. eigenvalues --   -0.50373  -0.50229  -0.50095  -0.49883  -0.49596
 Alpha  occ. eigenvalues --   -0.49543  -0.49468  -0.49315  -0.49080  -0.48916
 Alpha  occ. eigenvalues --   -0.48907  -0.48793  -0.48726  -0.48197  -0.48064
 Alpha  occ. eigenvalues --   -0.48055  -0.47931  -0.47700  -0.47519  -0.47070
 Alpha  occ. eigenvalues --   -0.46979  -0.46838  -0.46728  -0.46519  -0.46363
 Alpha  occ. eigenvalues --   -0.46278  -0.46017  -0.45907  -0.45742  -0.45682
 Alpha  occ. eigenvalues --   -0.45551  -0.45100  -0.44921  -0.44885  -0.44707
 Alpha  occ. eigenvalues --   -0.44617  -0.44406  -0.44197  -0.44046  -0.43905
 Alpha  occ. eigenvalues --   -0.43789  -0.43726  -0.43628  -0.43489  -0.43431
 Alpha  occ. eigenvalues --   -0.43343  -0.43033  -0.42690  -0.42636  -0.42553
 Alpha  occ. eigenvalues --   -0.42425  -0.42300  -0.42168  -0.42021  -0.41871
 Alpha  occ. eigenvalues --   -0.41628  -0.41498  -0.41413  -0.41293  -0.41242
 Alpha  occ. eigenvalues --   -0.41134  -0.40846  -0.40677  -0.40451  -0.40427
 Alpha  occ. eigenvalues --   -0.40275  -0.40093  -0.39387  -0.39148  -0.38840
 Alpha  occ. eigenvalues --   -0.38463  -0.38049  -0.37851  -0.37551  -0.36968
 Alpha  occ. eigenvalues --   -0.36914  -0.36803  -0.36338  -0.36312  -0.35925
 Alpha  occ. eigenvalues --   -0.35075  -0.34718  -0.33869  -0.33813  -0.33388
 Alpha  occ. eigenvalues --   -0.33239  -0.32755  -0.31897  -0.31053  -0.30996
 Alpha  occ. eigenvalues --   -0.30553  -0.30206  -0.29982  -0.29704  -0.29517
 Alpha  occ. eigenvalues --   -0.28972  -0.28818  -0.24734  -0.23630  -0.23382
 Alpha  occ. eigenvalues --   -0.21617  -0.20714
 Alpha virt. eigenvalues --   -0.09332  -0.08408  -0.02550  -0.01302  -0.00541
 Alpha virt. eigenvalues --    0.00334   0.01587   0.02609   0.02959   0.03740
 Alpha virt. eigenvalues --    0.04194   0.05115   0.05355   0.05725   0.05849

 Mulliken charges:
               1
     1  Mg   0.810385
     2  C    0.001937
     3  C   -0.091932
     4  C   -0.046530
     5  C   -0.050369
     6  N   -0.249366
     7  C   -0.053274
     8  C   -0.014104
     9  C   -0.087530
    10  C    0.046519
    11  C    0.104480
    12  C    0.053236
    13  C   -0.072564
    14  H    0.038838
    15  N   -0.433206
    16  C    0.170915
    17  C   -0.176491
    18  C   -0.002663
    19  C    0.152559
    20  C    0.109798
    21  C    0.011206
    22  O   -0.249440
    23  C    0.062450
    24  N   -0.328396
    25  C    0.039386
    26  C   -0.027279
    27  C   -0.003218
    28  C    0.003960
    29  C    0.079228
    30  C    0.172482
    31  C    0.098524
    32  N   -0.305303
    33  C    0.065775
    34  C   -0.190490
    35  C    0.022019
    36  C    0.094017
    37  C    0.117285
    38  C    0.048241
    39  O   -0.182420
    40  C   -0.009319
    41  C    0.212023
    42  O   -0.248233
    43  O   -0.306271
    44  C    0.157130
    45  H   -0.015713
    46  H   -0.017118
    47  H   -0.037771
    48  H    0.002271
    49  H   -0.002784
    50  H    0.026662
    51  H    0.016062
    52  H    0.017964
    53  H    0.011127
    54  H    0.047884
    55  H    0.017718
    56  H    0.017661
    57  H    0.007589
    58  H    0.028329
    59  H    0.040660
    60  H    0.038793
    61  H    0.035921
    62  H    0.031071
    63  H    0.012330
    64  H    0.008650
    65  H    0.023356
    66  H    0.011883
    67  H    0.006319
    68  H   -0.017308
    69  H   -0.012364
    70  H    0.016833
    71  H    0.022844
    72  H   -0.078255
    73  H    0.052655
    74  H    0.010118
    75  H    0.049432
    76  H    0.035861
    77  H    0.043114
    78  H    0.045461
    79  H    0.056520
    80  Mg   0.837055
    81  C   -0.015652
    82  C   -0.088188
    83  C   -0.046394
    84  C   -0.065939
    85  N   -0.255613
    86  C   -0.040805
    87  C   -0.012785
    88  C   -0.091638
    89  C    0.047690
    90  C    0.114764
    91  C    0.125616
    92  C   -0.039580
    93  H    0.120889
    94  N   -0.423125
    95  C    0.162119
    96  C   -0.175593
    97  C   -0.009014
    98  C    0.151847
    99  C    0.099459
   100  C    0.014560
   101  O   -0.254298
   102  C    0.061872
   103  N   -0.350210
   104  C    0.037142
   105  C   -0.019458
   106  C   -0.034782
   107  C    0.089297
   108  C    0.074031
   109  C    0.034971
   110  C   -0.007552
   111  N   -0.324393
   112  C    0.079322
   113  C   -0.162811
   114  C    0.002763
   115  C    0.097280
   116  C    0.131172
   117  C    0.044520
   118  O   -0.186914
   119  C    0.000976
   120  C    0.210368
   121  O   -0.240650
   122  O   -0.311260
   123  C    0.140944
   124  H   -0.019565
   125  H   -0.016866
   126  H   -0.041215
   127  H   -0.000055
   128  H   -0.000844
   129  H    0.020732
   130  H    0.013159
   131  H    0.015175
   132  H   -0.004537
   133  H    0.026680
   134  H   -0.234571
   135  H    0.020003
   136  H    0.009981
   137  H    0.025268
   138  H    0.036369
   139  H    0.038084
   140  H    0.035022
   141  H    0.032059
   142  H    0.013483
   143  H    0.011824
   144  H    0.024145
   145  H    0.011496
   146  H    0.005024
   147  H    0.005322
   148  H    0.003456
   149  H    0.010115
   150  H    0.017329
   151  H    0.031112
   152  H    0.047114
   153  H    0.007839
   154  H    0.046120
   155  H    0.032951
   156  H    0.038260
   157  H    0.049951
   158  H    0.069814
 Sum of Mulliken charges =  -0.00000

 Dipole moment (field-independent basis, Debye):
    X=             -2.9846    Y=              6.9117    Z=              2.7716  Tot=              8.0225
 Quadrupole moment (field-independent basis, Debye-Ang):
   XX=           -490.6049   YY=           -536.4535   ZZ=           -475.3565
   XY=            -27.9556   XZ=            -20.2027   YZ=             -3.3743

 Normal termination of Gaussian 16 at Thu Sep  9 21:06:47 2021.
