 Gaussian 16, Revision A.03,
 Gaussian 16:  ES64L-G16RevA.03 25-Dec-2016

 -----------------------------------
 #p cam-b3lyp/Def2SVP td=(nstates=5)
 -----------------------------------

 --------------------------------
 TDDFT excited states in gaussian
 --------------------------------
 Symbolic Z-matrix:
 Charge =  0 Multiplicity = 1

                         Standard orientation:
 ---------------------------------------------------------------------
 Center     Atomic      Atomic             Coordinates (Angstroms)
 Number     Number       Type             X           Y           Z
 ---------------------------------------------------------------------
      1         12           0        5.155902   -0.859883    0.346056
      2          6           0        5.774141    2.495144   -0.737359
      3          6           0        5.715848    0.224169    3.532646
      4          6           0        5.063226   -3.889906    1.277179
      5          6           0        5.763228   -1.873652   -2.932525
      6          7           0        5.669770    1.131066    1.166244
      7          6           0        5.819042    2.347258    0.650718
      8          6           0        5.952583    3.463433    1.729464
      9          6           0        6.484650    2.577655    2.943672
     10          6           0        5.892887    1.237438    2.544225
     11          6           0        8.004086    2.450857    2.985375
     12          6           0        4.577293    4.131454    2.067187
     13          6           0        4.663122    5.438639    2.860443
     14          1           0        3.696325    6.490382    2.583877
     15          7           0        4.879719   -1.641225    2.139398
     16          6           0        5.146829   -1.051694    3.329521
     17          6           0        4.770726   -2.037069    4.365988
     18          6           0        4.441773   -3.316912    3.679049
     19          6           0        4.811771   -3.004173    2.322335
     20          6           0        4.703360   -1.710176    5.826246
     21          6           0        3.892522   -4.619149    4.169595
     22          8           0        3.900744   -5.675362    3.449234
     23          6           0        3.419081   -4.648396    5.565317
     24          7           0        5.593882   -2.656881   -0.621728
     25          6           0        5.413397   -3.832241   -0.009406
     26          6           0        5.518533   -4.973725   -0.976825
     27          6           0        5.568442   -4.317149   -2.431531
     28          6           0        5.565192   -2.824975   -2.017192
     29          6           0        6.729997   -5.898009   -0.792254
     30          6           0        4.512749   -4.800026   -3.457572
     31          6           0        3.134106   -4.355139   -3.023386
     32          7           0        5.502984    0.121835   -1.558363
     33          6           0        5.755104   -0.495968   -2.791824
     34          6           0        6.033456    0.577380   -3.763684
     35          6           0        5.939619    1.751797   -3.019518
     36          6           0        5.648609    1.430870   -1.662827
     37          6           0        6.383411    0.393819   -5.130532
     38          6           0        6.041806    3.201798   -3.049741
     39          8           0        6.175737    4.043313   -3.939352
     40          6           0        6.059167    3.734266   -1.549074
     41          6           0        5.080979    4.873777   -1.459782
     42          8           0        3.856082    4.677552   -1.595756
     43          8           0        5.710256    5.964567   -0.996392
     44          6           0        4.789406    7.124074   -0.855918
     45          1           0        6.099651    0.396713    4.540051
     46          1           0        4.932315   -4.943745    1.531588
     47          1           0        5.877818   -2.109358   -3.992131
     48          1           0        6.677562    4.241797    1.490762
     49          1           0        6.071815    2.904946    3.897700
     50          1           0        8.464549    2.884207    2.097624
     51          1           0        8.205594    1.380605    3.034848
     52          1           0        8.402910    2.873801    3.907783
     53          1           0        4.044053    3.511679    2.788016
     54          1           0        3.996079    4.298019    1.159568
     55          1           0        5.676557    5.840945    2.857322
     56          1           0        4.463344    5.215825    3.908604
     57          1           0        5.159329   -0.744723    6.041975
     58          1           0        5.336211   -2.431095    6.343436
     59          1           0        3.686116   -1.769552    6.213571
     60          1           0        4.241149   -4.381665    6.229853
     61          1           0        2.978997   -5.633979    5.712976
     62          1           0        2.657340   -3.879220    5.695967
     63          1           0        4.648442   -5.625440   -0.908735
     64          1           0        6.522630   -4.495075   -2.928062
     65          1           0        6.463569   -6.944835   -0.644347
     66          1           0        7.316518   -5.521638    0.045380
     67          1           0        7.459490   -5.862417   -1.600950
     68          1           0        4.498868   -5.888435   -3.503603
     69          1           0        4.691302   -4.427664   -4.466391
     70          1           0        2.840790   -5.128528   -2.314397
     71          1           0        2.455936   -4.330540   -3.877021
     72          1           0        3.173447   -3.411654   -2.478616
     73          1           0        5.809721    1.129765   -5.693767
     74          1           0        6.162037   -0.620035   -5.463243
     75          1           0        7.453569    0.597005   -5.094023
     76          1           0        7.079946    4.053794   -1.341626
     77          1           0        5.214678    7.943719   -1.435193
     78          1           0        4.648653    7.280182    0.213766
     79          1           0        3.811881    7.023357   -1.328824
     80         12           0       -5.313900   -0.015027   -1.008223
     81          6           0       -5.461151    1.066332    2.410553
     82          6           0       -4.836777   -3.180369    0.169739
     83          6           0       -4.731065   -0.930166   -3.989873
     84          6           0       -4.661033    3.295007   -1.881814
     85          7           0       -5.185245   -0.825751    1.045666
     86          6           0       -5.317388   -0.329380    2.266520
     87          6           0       -5.374678   -1.396791    3.392096
     88          6           0       -4.604528   -2.585634    2.635519
     89          6           0       -4.919607   -2.200893    1.191432
     90          6           0       -3.097188   -2.541717    2.823493
     91          6           0       -6.845784   -1.804674    3.754732
     92          6           0       -6.989924   -2.607631    5.049429
     93          1           0       -8.173609   -2.388672    5.876122
     94          7           0       -5.338661   -1.823776   -1.824555
     95          6           0       -5.149074   -3.002869   -1.196023
     96          6           0       -5.243843   -4.035062   -2.239945
     97          6           0       -5.340775   -3.357987   -3.561646
     98          6           0       -5.114713   -1.981248   -3.169761
     99          6           0       -5.316627   -5.501972   -1.929604
    100          6           0       -5.582555   -3.867073   -4.950376
    101          8           0       -5.389777   -3.129737   -5.980907
    102          6           0       -5.961699   -5.282227   -5.073104
    103          7           0       -4.566340    0.986250   -2.669826
    104          6           0       -4.462319    0.369134   -3.859896
    105          6           0       -4.163689    1.356977   -4.962343
    106          6           0       -4.328796    2.803114   -4.299769
    107          6           0       -4.619824    2.382086   -2.842566
    108          6           0       -2.778760    1.244400   -5.599288
    109          6           0       -5.308878    3.787773   -4.994426
    110          6           0       -6.728012    3.284526   -4.859564
    111          7           0       -5.276870    1.886059    0.017710
    112          6           0       -4.953698    3.145922   -0.532177
    113          6           0       -4.953890    4.119080    0.579298
    114          6           0       -5.256963    3.347640    1.711328
    115          6           0       -5.413338    1.986179    1.335223
    116          6           0       -4.649967    5.505471    0.471170
    117          6           0       -5.469705    3.373714    3.140583
    118          8           0       -5.550508    4.259346    3.990800
    119          6           0       -5.486770    1.877358    3.676338
    120          6           0       -6.676343    1.722431    4.583763
    121          8           0       -7.831619    1.814255    4.132647
    122          8           0       -6.260280    1.278267    5.783757
    123          6           0       -7.405635    1.098393    6.715222
    124          1           0       -4.456492   -4.168991    0.428377
    125          1           0       -4.625401   -1.173346   -5.049681
    126          1           0       -4.563319    4.363191   -2.086983
    127          1           0       -4.846014   -1.129302    4.299142
    128          1           0       -5.038145   -3.552925    2.875691
    129          1           0       -2.781392   -1.647050    3.339231
    130          1           0       -2.675484   -2.573018    1.827384
    131          1           0       -2.753218   -3.450790    3.325089
    132          1           0       -7.199410   -2.550195    3.030930
    133          1           0       -7.482206   -0.941991    3.791798
    134          1           0       -6.080893   -2.568829    5.661885
    135          1           0       -7.095037   -3.664470    4.792437
    136          1           0       -5.056070   -5.705238   -0.883568
    137          1           0       -4.524212   -5.990627   -2.506793
    138          1           0       -6.277144   -5.943374   -2.203887
    139          1           0       -5.183889   -5.903720   -4.635802
    140          1           0       -6.178511   -5.435910   -6.131995
    141          1           0       -6.869666   -5.453511   -4.484150
    142          1           0       -4.875209    1.258538   -5.773003
    143          1           0       -3.377385    3.354833   -4.283409
    144          1           0       -2.813209    1.088999   -6.694153
    145          1           0       -2.245976    0.435651   -5.117008
    146          1           0       -2.119337    2.092636   -5.423628
    147          1           0       -5.098271    3.839202   -6.065476
    148          1           0       -5.252397    4.799237   -4.606172
    149          1           0       -6.813268    2.564146   -5.678624
    150          1           0       -7.436990    4.101576   -4.977121
    151          1           0       -6.862931    2.734194   -3.921160
    152          1           0       -5.383676    6.032408    1.066580
    153          1           0       -4.665975    5.836347   -0.565183
    154          1           0       -3.640243    5.517048    0.890208
    155          1           0       -4.546242    1.706697    4.201559
    156          1           0       -7.186445    1.690398    7.609183
    157          1           0       -7.513351    0.005539    6.848711
    158          1           0       -8.362843    1.510572    6.418045
 ---------------------------------------------------------------------

 SCF Done:  E(RCAM-B3LYP) =  -4069.81206931     A.U. after   19 cycles

 Excitation energies and oscillator strengths:

 Excited State   1:      Singlet-A      1.6731 eV  741.03 nm  f=0.3550  <S**2>=0.000
     310 -> 316       -0.17317
     312 -> 314        0.68576
     310 <- 316       -0.10458
 This state for optimization and/or second-order correction.
 Total Energy, E(TD-HF/TD-DFT) =  -4069.75058243
 Copying the excited state density for this state as the 1-particle RhoCI density.

 Excited State   2:      Singlet-A      1.6775 eV  739.11 nm  f=0.3452  <S**2>=0.000
     309 -> 315       -0.17442
     311 -> 313        0.68539
     309 <- 315       -0.10460

 Excited State   3:      Singlet-A      2.1848 eV  567.49 nm  f=0.1003  <S**2>=0.000
     310 -> 314        0.63800
     312 -> 316        0.27032

 Excited State   4:      Singlet-A      2.1914 eV  565.77 nm  f=0.0979  <S**2>=0.000
     309 -> 313        0.63613
     311 -> 315        0.27516

 Excited State   5:      Singlet-A      2.4850 eV  498.93 nm  f=0.0000  <S**2>=0.000
     312 -> 313        0.70708

 The electronic state is 1-A.
 Alpha  occ. eigenvalues --  -46.87883 -46.87502 -19.26340 -19.26317 -19.19106
 Alpha  occ. eigenvalues --  -19.19088 -19.18960 -19.18584 -19.18254 -19.17950
 Alpha  occ. eigenvalues --  -14.42528 -14.42348 -14.41537 -14.41184 -14.39495
 Alpha  occ. eigenvalues --  -14.39199 -14.38672 -14.38445 -10.39147 -10.39033
 Alpha  occ. eigenvalues --  -10.35596 -10.35264 -10.34471 -10.34129 -10.31748
 Alpha  occ. eigenvalues --  -10.31721 -10.31473 -10.31168 -10.30987 -10.30891
 Alpha  occ. eigenvalues --  -10.30650 -10.30602 -10.30302 -10.30241 -10.30211
 Alpha  occ. eigenvalues --  -10.30011 -10.29950 -10.29725 -10.29711 -10.29348
 Alpha  occ. eigenvalues --  -10.29275 -10.29254 -10.28789 -10.28629 -10.28612
 Alpha  occ. eigenvalues --  -10.28514 -10.28453 -10.28265 -10.28159 -10.28034
 Alpha  occ. eigenvalues --  -10.27883 -10.27857 -10.27804 -10.27684 -10.27596
 Alpha  occ. eigenvalues --  -10.27574 -10.27553 -10.27516 -10.27485 -10.27342
 Alpha  occ. eigenvalues --  -10.27334 -10.27322 -10.27262 -10.27231 -10.27129
 Alpha  occ. eigenvalues --  -10.26963 -10.26717 -10.26620 -10.26587 -10.26308
 Alpha  occ. eigenvalues --  -10.26278 -10.26274 -10.26105 -10.25925 -10.25919
 Alpha  occ. eigenvalues --  -10.25910 -10.25751 -10.25693 -10.25535 -10.25073
 Alpha  occ. eigenvalues --  -10.24921 -10.24883 -10.24789 -10.24732 -10.24539
 Alpha  occ. eigenvalues --  -10.24524  -3.16626  -3.16252  -1.91508  -1.91134
 Alpha  occ. eigenvalues --   -1.91094  -1.90936  -1.90722  -1.90559  -1.16691
 Alpha  occ. eigenvalues --   -1.16605  -1.08710  -1.08565  -1.07366  -1.06892
 Alpha  occ. eigenvalues --   -1.06838  -1.06709  -1.04659  -1.04352  -1.03848
 Alpha  occ. eigenvalues --   -1.03506  -1.03324  -1.02870  -1.02499  -1.01950
 Alpha  occ. eigenvalues --   -0.92053  -0.91855  -0.89611  -0.89311  -0.89233
 Alpha  occ. eigenvalues --   -0.89041  -0.88380  -0.88013  -0.87953  -0.87746
 Alpha  occ. eigenvalues --   -0.87645  -0.87532  -0.87383  -0.86983  -0.85039
 Alpha  occ. eigenvalues --   -0.84882  -0.84030  -0.83676  -0.83095  -0.82785
 Alpha  occ. eigenvalues --   -0.82721  -0.82533  -0.81654  -0.81496  -0.80678
 Alpha  occ. eigenvalues --   -0.80322  -0.78893  -0.78492  -0.77295  -0.77011
 Alpha  occ. eigenvalues --   -0.76991  -0.76765  -0.75985  -0.75727  -0.74985
 Alpha  occ. eigenvalues --   -0.74601  -0.72858  -0.72544  -0.71750  -0.71421
 Alpha  occ. eigenvalues --   -0.70000  -0.69548  -0.68940  -0.68708  -0.67732
 Alpha  occ. eigenvalues --   -0.67460  -0.67278  -0.67096  -0.65343  -0.65161
 Alpha  occ. eigenvalues --   -0.64932  -0.64694  -0.64628  -0.64527  -0.64359
 Alpha  occ. eigenvalues --   -0.64015  -0.62368  -0.62175  -0.60547  -0.60184
 Alpha  occ. eigenvalues --   -0.59865  -0.59677  -0.59070  -0.58839  -0.58588
 Alpha  occ. eigenvalues --   -0.58283  -0.57660  -0.57458  -0.57401  -0.57075
 Alpha  occ. eigenvalues --   -0.56396  -0.56070  -0.56039  -0.55799  -0.55618
 Alpha  occ. eigenvalues --   -0.55425  -0.55341  -0.55083  -0.54603  -0.54334
 Alpha  occ. eigenvalues --   -0.53943  -0.53806  -0.53398  -0.53300  -0.53083
 Alpha  occ. eigenvalues --   -0.53024  -0.52996  -0.52850  -0.52788  -0.52551
 Alpha  occ. eigenvalues --   -0.52533  -0.52205  -0.51996  -0.51735  -0.51682
 Alpha  occ. eigenvalues --   -0.51554  -0.51273  -0.51069  -0.50694  -0.50340
 Alpha  occ. eigenvalues --   -0.50123  -0.50022  -0.49853  -0.49665  -0.49595
 Alpha  occ. eigenvalues --   -0.49367  -0.49300  -0.49153  -0.49088  -0.48990
 Alpha  occ. eigenvalues --   -0.48664  -0.48574  -0.48538  -0.48447  -0.48223
 Alpha  occ. eigenvalues --   -0.48171  -0.47776  -0.47459  -0.47386  -0.46962
 Alpha  occ. eigenvalues --   -0.46875  -0.46608  -0.46557  -0.46446  -0.46432
 Alpha  occ. eigenvalues --   -0.46245  -0.46115  -0.45917  -0.45890  -0.45702
 Alpha  occ. eigenvalues --   -0.45293  -0.45003  -0.44658  -0.44598  -0.44400
 Alpha  occ. eigenvalues --   -0.44346  -0.44237  -0.44147  -0.44105  -0.44009
 Alpha  occ. eigenvalues --   -0.43920  -0.43825  -0.43568  -0.43457  -0.43450
 Alpha  occ. eigenvalues --   -0.43248  -0.43107  -0.42848  -0.42782  -0.42755
 Alpha  occ. eigenvalues --   -0.42731  -0.42369  -0.42088  -0.41810  -0.41787
 Alpha  occ. eigenvalues --   -0.41587  -0.41535  -0.41330  -0.41216  -0.40958
 Alpha  occ. eigenvalues --   -0.40919  -0.40843  -0.40654  -0.40605  -0.40572
 Alpha  occ. eigenvalues --   -0.40299  -0.40265  -0.40140  -0.39536  -0.39216
 Alpha  occ. eigenvalues --   -0.38552  -0.38154  -0.37789  -0.37553  -0.37406
 Alpha  occ. eigenvalues --   -0.37319  -0.37098  -0.37062  -0.36785  -0.36688
 Alpha  occ. eigenvalues --   -0.36267  -0.36054  -0.34370  -0.34102  -0.33844
 Alpha  occ. eigenvalues --   -0.33788  -0.33272  -0.33019  -0.31488  -0.31141
 Alpha  occ. eigenvalues --   -0.31122  -0.30823  -0.30111  -0.29857  -0.29550
 Alpha  occ. eigenvalues --   -0.29411  -0.29184  -0.29068  -0.24165  -0.23879
 Alpha  occ. eigenvalues --   -0.21214  -0.20960
 Alpha virt. eigenvalues --   -0.08866  -0.08642  -0.01842  -0.01521  -0.00164
 Alpha virt. eigenvalues --    0.00102   0.02110   0.02343   0.03018   0.03376
 Alpha virt. eigenvalues --    0.04657   0.04870   0.05030   0.05229   0.06153

 Mulliken charges:
               1
     1  Mg   0.838689
     2  C   -0.002913
     3  C   -0.093693
     4  C   -0.046339
     5  C   -0.063937
     6  N   -0.256830
     7  C   -0.052159
     8  C   -0.014088
     9  C   -0.087044
    10  C    0.046324
    11  C    0.104753
    12  C    0.053310
    13  C   -0.072301
    14  H    0.037187
    15  N   -0.433049
    16  C    0.168202
    17  C   -0.177137
    18  C   -0.004486
    19  C    0.148569
    20  C    0.110088
    21  C    0.011387
    22  O   -0.250373
    23  C    0.062800
    24  N   -0.341167
    25  C    0.041329
    26  C   -0.028039
    27  C   -0.024036
    28  C    0.074931
    29  C    0.076184
    30  C    0.035156
    31  C   -0.004535
    32  N   -0.310526
    33  C    0.080562
    34  C   -0.169653
    35  C    0.008335
    36  C    0.083037
    37  C    0.127330
    38  C    0.046010
    39  O   -0.188322
    40  C   -0.005259
    41  C    0.212943
    42  O   -0.257468
    43  O   -0.304641
    44  C    0.157756
    45  H   -0.017295
    46  H   -0.017340
    47  H   -0.041270
    48  H    0.001087
    49  H   -0.003507
    50  H    0.025490
    51  H    0.016295
    52  H    0.016993
    53  H    0.011597
    54  H    0.043944
    55  H    0.017749
    56  H    0.018625
    57  H    0.006483
    58  H    0.026847
    59  H    0.039194
    60  H    0.038049
    61  H    0.034684
    62  H    0.030650
    63  H    0.015784
    64  H    0.009673
    65  H    0.022881
    66  H    0.012696
    67  H    0.004982
    68  H    0.006109
    69  H    0.005276
    70  H    0.007409
    71  H    0.019184
    72  H    0.029078
    73  H    0.047526
    74  H    0.009361
    75  H    0.046213
    76  H    0.035419
    77  H    0.043040
    78  H    0.046983
    79  H    0.053222
    80  Mg   0.838211
    81  C   -0.017176
    82  C   -0.088086
    83  C   -0.045431
    84  C   -0.062870
    85  N   -0.254577
    86  C   -0.049978
    87  C   -0.015032
    88  C   -0.090448
    89  C    0.045632
    90  C    0.114352
    91  C    0.062614
    92  C   -0.077577
    93  H    0.034391
    94  N   -0.423509
    95  C    0.162935
    96  C   -0.174690
    97  C   -0.007968
    98  C    0.152236
    99  C    0.099417
   100  C    0.015310
   101  O   -0.253197
   102  C    0.061284
   103  N   -0.349942
   104  C    0.038155
   105  C   -0.020346
   106  C   -0.035189
   107  C    0.088976
   108  C    0.072756
   109  C    0.034593
   110  C   -0.007561
   111  N   -0.324126
   112  C    0.078324
   113  C   -0.162608
   114  C    0.001822
   115  C    0.096453
   116  C    0.131599
   117  C    0.042091
   118  O   -0.189025
   119  C    0.001002
   120  C    0.211158
   121  O   -0.250942
   122  O   -0.305985
   123  C    0.152137
   124  H   -0.019406
   125  H   -0.015477
   126  H   -0.039629
   127  H   -0.001760
   128  H   -0.004483
   129  H    0.021141
   130  H    0.015548
   131  H    0.016241
   132  H    0.014084
   133  H    0.037565
   134  H    0.020056
   135  H    0.019686
   136  H    0.008901
   137  H    0.025974
   138  H    0.039397
   139  H    0.038017
   140  H    0.036055
   141  H    0.033777
   142  H    0.013838
   143  H    0.015485
   144  H    0.024433
   145  H    0.011870
   146  H    0.009601
   147  H    0.006612
   148  H    0.003789
   149  H    0.010684
   150  H    0.017420
   151  H    0.029614
   152  H    0.045165
   153  H    0.008960
   154  H    0.047514
   155  H    0.033932
   156  H    0.043234
   157  H    0.049365
   158  H    0.053613
 Sum of Mulliken charges =  -0.00000

 Dipole moment (field-independent basis, Debye):
    X=              3.2751    Y=             -4.2615    Z=              4.1666  Tot=              6.8006
 Quadrupole moment (field-independent basis, Debye-Ang):
   XX=           -520.1324   YY=           -499.9216   ZZ=           -498.8895
   XY=             25.7824   XZ=             23.1837   YZ=              1.1617

 Normal termination of Gaussian 16 at Fri Sep 10 18:35:06 2021.
