 Gaussian 16, Revision A.03,
 Gaussian 16:  ES64L-G16RevA.03 25-Dec-2016

 -----------------------------------
 #p cam-b3lyp/Def2SVP td=(nstates=5)
 -----------------------------------

 --------------------------------
 TDDFT excited states in gaussian
 --------------------------------
 Symbolic Z-matrix:
 Charge =  0 Multiplicity = 1

                         Standard orientation:
 ---------------------------------------------------------------------
 Center     Atomic      Atomic             Coordinates (Angstroms)
 Number     Number       Type             X           Y           Z
 ---------------------------------------------------------------------
      1         12           0        3.770226   -0.743700    0.650877
      2          6           0        4.596214    1.876712   -1.643332
      3          6           0        4.912943    1.283528    3.146395
      4          6           0        3.474838   -3.200661    2.633984
      5          6           0        3.768822   -2.923276   -2.068518
      6          7           0        4.620734    1.300020    0.628700
      7          6           0        4.828497    2.218809   -0.309294
      8          6           0        5.244792    3.605661    0.265784
      9          6           0        5.846884    3.128418    1.662825
     10          6           0        5.055318    1.845077    1.842775
     11          6           0        7.331736    2.785072    1.600920
     12          6           0        4.018612    4.558624    0.465971
     13          6           0        4.367437    6.029484    0.711418
     14          1           0        3.495268    7.056996    0.162886
     15          7           0        3.675375   -0.793725    2.623528
     16          6           0        4.179956    0.124699    3.482121
     17          6           0        3.852217   -0.362725    4.839209
     18          6           0        3.283271   -1.732595    4.705600
     19          6           0        3.481889   -1.977288    3.299878
     20          6           0        4.038385    0.460772    6.076522
     21          6           0        2.669099   -2.676160    5.690795
     22          8           0        2.451750   -3.904709    5.411509
     23          6           0        2.406567   -2.139682    7.038501
     24          7           0        3.855098   -2.810899    0.373169
     25          6           0        3.635555   -3.653168    1.388731
     26          6           0        3.467358   -5.062265    0.902835
     27          6           0        3.375775   -4.973056   -0.688833
     28          6           0        3.602016   -3.449882   -0.853227
     29          6           0        4.580737   -6.043078    1.295777
     30          6           0        2.132575   -5.610579   -1.358488
     31          6           0        0.892170   -4.829337   -0.986796
     32          7           0        3.940950   -0.558787   -1.504977
     33          6           0        3.936981   -1.600793   -2.443530
     34          6           0        4.188125   -0.994040   -3.763699
     35          6           0        4.338192    0.365545   -3.497516
     36          6           0        4.216261    0.590148   -2.096453
     37          6           0        4.309579   -1.697314   -4.994588
     38          6           0        4.597676    1.677495   -4.067879
     39          8           0        4.692902    2.121883   -5.212843
     40          6           0        4.896245    2.691501   -2.876882
     41          6           0        4.076772    3.929882   -3.118098
     42          8           0        2.830991    3.895312   -3.053276
     43          8           0        4.886504    4.999367   -3.150924
     44          6           0        4.133179    6.265030   -3.357687
     45          1           0        5.458194    1.734525    3.977806
     46          1           0        3.264894   -4.063843    3.269025
     47          1           0        3.698465   -3.529864   -2.973257
     48          1           0        6.009716    4.125830   -0.311051
     49          1           0        5.618933    3.829897    2.465127
     50          1           0        7.702053    2.801504    0.575973
     51          1           0        7.416332    1.782321    2.020236
     52          1           0        7.907442    3.435127    2.260290
     53          1           0        3.531125    4.323196    1.412010
     54          1           0        3.332357    4.486927   -0.378564
     55          1           0        5.408151    6.239167    0.462704
     56          1           0        4.300685    6.222240    1.782207
     57          1           0        4.627141    1.355344    5.877395
     58          1           0        4.655240   -0.124158    6.758472
     59          1           0        3.089303    0.702758    6.555080
     60          1           0        3.342480   -1.791189    7.475728
     61          1           0        1.884775   -2.928191    7.579644
     62          1           0        1.764110   -1.263056    6.950601
     63          1           0        2.548953   -5.502204    1.289374
     64          1           0        4.220018   -5.462352   -1.175162
     65          1           0        4.222709   -6.915574    1.842834
     66          1           0        5.323112   -5.495444    1.875663
     67          1           0        5.182210   -6.408864    0.464002
     68          1           0        1.989390   -6.629370   -1.000007
     69          1           0        2.201143   -5.648130   -2.445751
     70          1           0        0.621360   -5.248769   -0.018514
     71          1           0        0.102602   -4.997844   -1.719871
     72          1           0        1.117628   -3.773853   -0.833147
     73          1           0        3.745756   -1.124003   -5.730377
     74          1           0        3.928613   -2.714701   -4.908606
     75          1           0        5.389420   -1.666596   -5.139004
     76          1           0        5.965913    2.897281   -2.901115
     77          1           0        4.558008    6.751643   -4.235732
     78          1           0        4.170338    6.805803   -2.411860
     79          1           0        3.091516    6.161517   -3.663567
     80         12           0       -4.010091    0.726390    0.237655
     81          6           0       -3.793849   -1.709625   -2.388769
     82          6           0       -4.788386   -1.837579    2.348326
     83          6           0       -4.648527    2.889226    2.469683
     84          6           0       -4.346208    3.158940   -2.235289
     85          7           0       -4.231432   -1.449011   -0.095383
     86          6           0       -4.064810   -2.268592   -1.122448
     87          6           0       -4.116501   -3.776374   -0.757108
     88          6           0       -4.986543   -3.668101    0.588325
     89          6           0       -4.624409   -2.242473    0.999520
     90          6           0       -6.484972   -3.728261    0.342499
     91          6           0       -2.692709   -4.371964   -0.474063
     92          6           0       -2.634972   -5.900003   -0.414815
     93          1           0       -1.443509   -6.571863   -0.926177
     94          7           0       -4.145462    0.536571    2.208490
     95          6           0       -4.448881   -0.582370    2.899274
     96          6           0       -4.440709   -0.193887    4.318140
     97          6           0       -4.269820    1.282226    4.399338
     98          6           0       -4.371045    1.636800    2.997864
     99          6           0       -4.506671   -1.193691    5.435939
    100          6           0       -4.063820    2.220939    5.549372
    101          8           0       -4.178412    3.490073    5.411480
    102          6           0       -3.816118    1.605756    6.861502
    103          7           0       -4.647025    2.703233    0.144231
    104          6           0       -4.797092    3.434782    1.262365
    105          6           0       -4.993259    4.896077    0.935941
    106          6           0       -4.701007    5.029317   -0.630718
    107          6           0       -4.463139    3.541735   -0.971182
    108          6           0       -6.376945    5.466952    1.245618
    109          6           0       -3.627910    6.066731   -1.060719
    110          6           0       -2.262660    5.624156   -0.585744
    111          7           0       -3.880247    0.780910   -1.918321
    112          6           0       -4.080596    1.899269   -2.756905
    113          6           0       -4.000287    1.417857   -4.151258
    114          6           0       -3.779933    0.037903   -4.026126
    115          6           0       -3.746819   -0.319024   -2.650981
    116          6           0       -4.173693    2.214876   -5.317792
    117          6           0       -3.578418   -1.199704   -4.744737
    118          8           0       -3.423611   -1.502319   -5.927190
    119          6           0       -3.704589   -2.406518   -3.718059
    120          6           0       -2.542565   -3.333943   -3.946292
    121          8           0       -1.379777   -2.959464   -3.713261
    122          8           0       -3.008574   -4.571984   -4.192191
    123          6           0       -1.893094   -5.530230   -4.414208
    124          1           0       -5.260764   -2.531204    3.044475
    125          1           0       -4.766801    3.693208    3.199819
    126          1           0       -4.342881    3.871335   -3.063025
    127          1           0       -4.626212   -4.401775   -1.480195
    128          1           0       -4.646414   -4.378919    1.336924
    129          1           0       -6.721236   -3.715109   -0.711142
    130          1           0       -6.898894   -2.857519    0.833948
    131          1           0       -6.916005   -4.595061    0.851621
    132          1           0       -2.403134   -4.132872    0.557310
    133          1           0       -1.979579   -4.010867   -1.189378
    134          1           0       -3.541928   -6.362869   -0.822411
    135          1           0       -2.625778   -6.206516    0.633987
    136          1           0       -4.794206   -2.187247    5.070493
    137          1           0       -5.335725   -0.892799    6.085557
    138          1           0       -3.588698   -1.226249    6.026640
    139          1           0       -4.651931    0.960521    7.121408
    140          1           0       -3.605045    2.435964    7.538325
    141          1           0       -2.933153    0.961474    6.784754
    142          1           0       -4.286708    5.511835    1.478839
    143          1           0       -5.597410    5.339662   -1.187479
    144          1           0       -6.347282    6.337296    1.928028
    145          1           0       -6.986517    4.676768    1.663407
    146          1           0       -6.956621    5.770409    0.375512
    147          1           0       -3.823318    7.032087   -0.587367
    148          1           0       -3.594046    6.234359   -2.132055
    149          1           0       -2.237117    5.972717    0.451051
    150          1           0       -1.480130    6.092795   -1.179098
    151          1           0       -2.187573    4.530676   -0.567834
    152          1           0       -3.399723    1.920325   -6.013994
    153          1           0       -4.117944    3.276439   -5.085915
    154          1           0       -5.181704    1.911622   -5.613127
    155          1           0       -4.661506   -2.895839   -3.903667
    156          1           0       -2.064530   -6.000125   -5.387600
    157          1           0       -1.888111   -6.193244   -3.528687
    158          1           0       -0.899262   -5.119824   -4.549570
 ---------------------------------------------------------------------

 SCF Done:  E(RCAM-B3LYP) =  -4069.81109173     A.U. after   19 cycles

 Excitation energies and oscillator strengths:

 Excited State   1:      Singlet-A      1.6360 eV  757.85 nm  f=0.0038  <S**2>=0.000
     309 -> 315        0.11818
     310 -> 316       -0.11281
     311 -> 313        0.49855
     312 -> 314       -0.47430
 This state for optimization and/or second-order correction.
 Total Energy, E(TD-HF/TD-DFT) =  -4069.75096969
 Copying the excited state density for this state as the 1-particle RhoCI density.

 Excited State   2:      Singlet-A      1.7087 eV  725.60 nm  f=0.6809  <S**2>=0.000
     309 -> 315        0.12500
     310 -> 316        0.13201
     311 -> 313        0.47132
     312 -> 314        0.49520

 Excited State   3:      Singlet-A      2.1783 eV  569.18 nm  f=0.0119  <S**2>=0.000
     309 -> 313        0.51690
     310 -> 314        0.38693
     311 -> 315       -0.21319
     312 -> 316       -0.15924

 Excited State   4:      Singlet-A      2.1947 eV  564.91 nm  f=0.1609  <S**2>=0.000
     309 -> 313       -0.38218
     310 -> 314        0.51116
     311 -> 315        0.16847
     312 -> 316       -0.22612

 Excited State   5:      Singlet-A      2.3591 eV  525.57 nm  f=0.0000  <S**2>=0.000
     312 -> 313        0.70687

 The electronic state is 1-A.
 Alpha  occ. eigenvalues --  -46.87512 -46.87479 -19.26456 -19.26091 -19.19252
 Alpha  occ. eigenvalues --  -19.18796 -19.18680 -19.18626 -19.17898 -19.17882
 Alpha  occ. eigenvalues --  -14.42321 -14.42172 -14.41178 -14.41175 -14.39181
 Alpha  occ. eigenvalues --  -14.39135 -14.38402 -14.38271 -10.39137 -10.38854
 Alpha  occ. eigenvalues --  -10.35324 -10.35310 -10.34102 -10.34083 -10.31985
 Alpha  occ. eigenvalues --  -10.31539 -10.31119 -10.31101 -10.30880 -10.30678
 Alpha  occ. eigenvalues --  -10.30250 -10.30214 -10.30212 -10.30161 -10.29965
 Alpha  occ. eigenvalues --  -10.29955 -10.29703 -10.29628 -10.29333 -10.29258
 Alpha  occ. eigenvalues --  -10.29217 -10.28981 -10.28588 -10.28527 -10.28508
 Alpha  occ. eigenvalues --  -10.28365 -10.28241 -10.28098 -10.27979 -10.27877
 Alpha  occ. eigenvalues --  -10.27816 -10.27503 -10.27482 -10.27444 -10.27326
 Alpha  occ. eigenvalues --  -10.27322 -10.27318 -10.27309 -10.27299 -10.27280
 Alpha  occ. eigenvalues --  -10.27268 -10.27246 -10.27207 -10.27131 -10.26967
 Alpha  occ. eigenvalues --  -10.26904 -10.26548 -10.26499 -10.26409 -10.26390
 Alpha  occ. eigenvalues --  -10.26015 -10.25929 -10.25889 -10.25885 -10.25728
 Alpha  occ. eigenvalues --  -10.25699 -10.25563 -10.25396 -10.25279 -10.25265
 Alpha  occ. eigenvalues --  -10.24684 -10.24531 -10.24527 -10.24521 -10.24395
 Alpha  occ. eigenvalues --  -10.24206  -3.16254  -3.16228  -1.91135  -1.91110
 Alpha  occ. eigenvalues --   -1.90722  -1.90699  -1.90564  -1.90536  -1.16741
 Alpha  occ. eigenvalues --   -1.16434  -1.08520  -1.08338  -1.07093  -1.07010
 Alpha  occ. eigenvalues --   -1.06884  -1.06420  -1.04324  -1.04309  -1.03488
 Alpha  occ. eigenvalues --   -1.03487  -1.02945  -1.02853  -1.02125  -1.01927
 Alpha  occ. eigenvalues --   -0.91837  -0.91694  -0.89303  -0.89246  -0.88996
 Alpha  occ. eigenvalues --   -0.88949  -0.88039  -0.88028  -0.87578  -0.87526
 Alpha  occ. eigenvalues --   -0.87503  -0.87400  -0.87058  -0.86981  -0.84859
 Alpha  occ. eigenvalues --   -0.84747  -0.83697  -0.83672  -0.82823  -0.82814
 Alpha  occ. eigenvalues --   -0.82539  -0.82426  -0.81544  -0.81343  -0.80355
 Alpha  occ. eigenvalues --   -0.80335  -0.78539  -0.78466  -0.77004  -0.76935
 Alpha  occ. eigenvalues --   -0.76793  -0.76686  -0.75730  -0.75676  -0.74667
 Alpha  occ. eigenvalues --   -0.74646  -0.72509  -0.72478  -0.71432  -0.71421
 Alpha  occ. eigenvalues --   -0.69640  -0.69535  -0.68685  -0.68637  -0.67457
 Alpha  occ. eigenvalues --   -0.67392  -0.67073  -0.67011  -0.65147  -0.65039
 Alpha  occ. eigenvalues --   -0.64648  -0.64584  -0.64525  -0.64377  -0.64028
 Alpha  occ. eigenvalues --   -0.64003  -0.62241  -0.62068  -0.60217  -0.60190
 Alpha  occ. eigenvalues --   -0.59638  -0.59550  -0.58835  -0.58719  -0.58289
 Alpha  occ. eigenvalues --   -0.58242  -0.57480  -0.57323  -0.57083  -0.57071
 Alpha  occ. eigenvalues --   -0.56087  -0.56045  -0.55882  -0.55769  -0.55372
 Alpha  occ. eigenvalues --   -0.55298  -0.55118  -0.55102  -0.54383  -0.54319
 Alpha  occ. eigenvalues --   -0.53772  -0.53662  -0.53099  -0.53096  -0.53029
 Alpha  occ. eigenvalues --   -0.52968  -0.52815  -0.52681  -0.52578  -0.52565
 Alpha  occ. eigenvalues --   -0.52178  -0.52135  -0.51650  -0.51559  -0.51535
 Alpha  occ. eigenvalues --   -0.51385  -0.51075  -0.50920  -0.50421  -0.50359
 Alpha  occ. eigenvalues --   -0.50005  -0.49743  -0.49687  -0.49652  -0.49364
 Alpha  occ. eigenvalues --   -0.49274  -0.49087  -0.48972  -0.48951  -0.48851
 Alpha  occ. eigenvalues --   -0.48466  -0.48338  -0.48273  -0.48253  -0.48217
 Alpha  occ. eigenvalues --   -0.48197  -0.47477  -0.47463  -0.47066  -0.46988
 Alpha  occ. eigenvalues --   -0.46573  -0.46497  -0.46419  -0.46328  -0.46122
 Alpha  occ. eigenvalues --   -0.46088  -0.45936  -0.45884  -0.45714  -0.45523
 Alpha  occ. eigenvalues --   -0.45057  -0.44987  -0.44390  -0.44367  -0.44302
 Alpha  occ. eigenvalues --   -0.44232  -0.44020  -0.43935  -0.43888  -0.43857
 Alpha  occ. eigenvalues --   -0.43797  -0.43753  -0.43505  -0.43271  -0.43217
 Alpha  occ. eigenvalues --   -0.43142  -0.42906  -0.42765  -0.42747  -0.42479
 Alpha  occ. eigenvalues --   -0.42390  -0.42341  -0.41769  -0.41720  -0.41514
 Alpha  occ. eigenvalues --   -0.41451  -0.41312  -0.41292  -0.40900  -0.40836
 Alpha  occ. eigenvalues --   -0.40695  -0.40657  -0.40607  -0.40548  -0.40324
 Alpha  occ. eigenvalues --   -0.40304  -0.40077  -0.40031  -0.39223  -0.39038
 Alpha  occ. eigenvalues --   -0.38235  -0.38136  -0.37529  -0.37470  -0.37101
 Alpha  occ. eigenvalues --   -0.37055  -0.37026  -0.37011  -0.36779  -0.36475
 Alpha  occ. eigenvalues --   -0.36081  -0.35935  -0.34089  -0.33999  -0.33878
 Alpha  occ. eigenvalues --   -0.33536  -0.33000  -0.32897  -0.31212  -0.31185
 Alpha  occ. eigenvalues --   -0.30814  -0.30771  -0.29807  -0.29739  -0.29195
 Alpha  occ. eigenvalues --   -0.29164  -0.29012  -0.29000  -0.23860  -0.23794
 Alpha  occ. eigenvalues --   -0.20931  -0.20838
 Alpha virt. eigenvalues --   -0.08616  -0.08495  -0.01513  -0.01485   0.00107
 Alpha virt. eigenvalues --    0.00158   0.02331   0.02458   0.02555   0.04464
 Alpha virt. eigenvalues --    0.04769   0.04994   0.05145   0.05325   0.06007

 Mulliken charges:
               1
     1  Mg   0.839576
     2  C   -0.003415
     3  C   -0.094122
     4  C   -0.046688
     5  C   -0.057930
     6  N   -0.256743
     7  C   -0.052299
     8  C   -0.014088
     9  C   -0.086864
    10  C    0.045776
    11  C    0.104987
    12  C    0.053332
    13  C   -0.071175
    14  H    0.034660
    15  N   -0.432805
    16  C    0.167707
    17  C   -0.178002
    18  C   -0.005225
    19  C    0.148189
    20  C    0.110425
    21  C    0.010663
    22  O   -0.251763
    23  C    0.063175
    24  N   -0.341257
    25  C    0.041163
    26  C   -0.028137
    27  C   -0.024862
    28  C    0.074860
    29  C    0.076824
    30  C    0.045710
    31  C   -0.021792
    32  N   -0.311828
    33  C    0.084236
    34  C   -0.163581
    35  C    0.008032
    36  C    0.085200
    37  C    0.127268
    38  C    0.047444
    39  O   -0.188058
    40  C   -0.005991
    41  C    0.212871
    42  O   -0.256634
    43  O   -0.304813
    44  C    0.158208
    45  H   -0.018503
    46  H   -0.018649
    47  H   -0.040322
    48  H    0.000539
    49  H   -0.004343
    50  H    0.025096
    51  H    0.016293
    52  H    0.016001
    53  H    0.011853
    54  H    0.043912
    55  H    0.017608
    56  H    0.018223
    57  H    0.005892
    58  H    0.025680
    59  H    0.038138
    60  H    0.037984
    61  H    0.033205
    62  H    0.029487
    63  H    0.015258
    64  H    0.008431
    65  H    0.021465
    66  H    0.012434
    67  H    0.004262
    68  H    0.000108
    69  H    0.002922
    70  H    0.006283
    71  H    0.027293
    72  H    0.035576
    73  H    0.051178
    74  H    0.011003
    75  H    0.044121
    76  H    0.034544
    77  H    0.042613
    78  H    0.045997
    79  H    0.052478
    80  Mg   0.838385
    81  C   -0.016953
    82  C   -0.086786
    83  C   -0.045733
    84  C   -0.063017
    85  N   -0.254486
    86  C   -0.050767
    87  C   -0.013168
    88  C   -0.088982
    89  C    0.045046
    90  C    0.114635
    91  C    0.053127
    92  C   -0.079251
    93  H    0.031894
    94  N   -0.423385
    95  C    0.162672
    96  C   -0.174990
    97  C   -0.008734
    98  C    0.151938
    99  C    0.099743
   100  C    0.014510
   101  O   -0.254153
   102  C    0.061886
   103  N   -0.350158
   104  C    0.037486
   105  C   -0.019480
   106  C   -0.035052
   107  C    0.089270
   108  C    0.073947
   109  C    0.034582
   110  C   -0.007275
   111  N   -0.324948
   112  C    0.080625
   113  C   -0.159508
   114  C    0.002497
   115  C    0.097611
   116  C    0.131104
   117  C    0.043830
   118  O   -0.187795
   119  C   -0.000817
   120  C    0.210088
   121  O   -0.249690
   122  O   -0.304840
   123  C    0.149520
   124  H   -0.019957
   125  H   -0.016414
   126  H   -0.039385
   127  H   -0.001881
   128  H   -0.003942
   129  H    0.021988
   130  H    0.014339
   131  H    0.015978
   132  H    0.016316
   133  H    0.045826
   134  H    0.019515
   135  H    0.020178
   136  H    0.009550
   137  H    0.025258
   138  H    0.039215
   139  H    0.038758
   140  H    0.034874
   141  H    0.031979
   142  H    0.013743
   143  H    0.011953
   144  H    0.024258
   145  H    0.011317
   146  H    0.005405
   147  H    0.004523
   148  H    0.004524
   149  H    0.007871
   150  H    0.020863
   151  H    0.033100
   152  H    0.048701
   153  H    0.009711
   154  H    0.045789
   155  H    0.034862
   156  H    0.044672
   157  H    0.050699
   158  H    0.055099
 Sum of Mulliken charges =  -0.00000

 Dipole moment (field-independent basis, Debye):
    X=             -0.0244    Y=             -0.7982    Z=              6.3047  Tot=              6.3550
 Quadrupole moment (field-independent basis, Debye-Ang):
   XX=           -486.6348   YY=           -465.1412   ZZ=           -538.9212
   XY=             17.3716   XZ=             12.7278   YZ=              5.6720

 Normal termination of Gaussian 16 at Wed Sep  8 19:21:01 2021.
