 Gaussian 16, Revision A.03,
 Gaussian 16:  ES64L-G16RevA.03 25-Dec-2016

 -----------------------------------
 #p cam-b3lyp/Def2SVP td=(nstates=5)
 -----------------------------------

 --------------------------------
 TDDFT excited states in gaussian
 --------------------------------
 Symbolic Z-matrix:
 Charge =  0 Multiplicity = 1

                         Standard orientation:
 ---------------------------------------------------------------------
 Center     Atomic      Atomic             Coordinates (Angstroms)
 Number     Number       Type             X           Y           Z
 ---------------------------------------------------------------------
      1         12           0        6.784099    0.452452    0.975549
      2          6           0        7.250080   -2.470464   -1.037318
      3          6           0        8.021032    2.266682   -1.636276
      4          6           0        6.808803    2.983084    2.886547
      5          6           0        6.671329   -1.655311    3.748685
      6          7           0        7.508080   -0.140508   -1.030665
      7          6           0        7.578325   -1.286271   -1.701085
      8          6           0        7.961559   -1.102528   -3.199999
      9          6           0        8.711117    0.300950   -3.097962
     10          6           0        8.015045    0.859307   -1.869286
     11          6           0       10.202336    0.175226   -2.803070
     12          6           0        6.703985   -1.014188   -4.128672
     13          6           0        6.986213   -1.162202   -5.626601
     14          1           0        6.010451   -1.850174   -6.458426
     15          7           0        6.866192    2.379574    0.548568
     16          6           0        7.389610    2.940041   -0.568211
     17          6           0        7.211629    4.399851   -0.413425
     18          6           0        6.714428    4.653749    0.967307
     19          6           0        6.802655    3.334228    1.538673
     20          6           0        7.457289    5.380490   -1.518751
     21          6           0        6.245652    5.891449    1.664790
     22          8           0        6.076983    5.935960    2.931338
     23          6           0        6.071660    7.091760    0.826922
     24          7           0        6.965261    0.668232    3.043944
     25          6           0        6.885638    1.871875    3.621773
     26          6           0        6.758260    1.754908    5.111750
     27          6           0        6.521984    0.205063    5.414914
     28          6           0        6.643206   -0.339166    3.970134
     29          6           0        7.957459    2.257442    5.927465
     30          6           0        5.264231   -0.166316    6.239871
     31          6           0        4.017661    0.130044    5.436546
     32          7           0        6.753435   -1.691347    1.313531
     33          6           0        6.728037   -2.349422    2.551660
     34          6           0        6.826104   -3.794375    2.274964
     35          6           0        6.919034   -3.876072    0.886968
     36          6           0        6.907831   -2.563894    0.333473
     37          6           0        6.879859   -4.828056    3.251206
     38          6           0        7.049993   -4.765486   -0.255682
     39          8           0        7.017942   -5.986980   -0.411944
     40          6           0        7.392183   -3.886164   -1.538462
     41          6           0        6.483486   -4.332723   -2.651191
     42          8           0        5.252411   -4.137925   -2.588958
     43          8           0        7.223098   -4.699801   -3.708910
     44          6           0        6.381610   -5.126156   -4.858811
     45          1           0        8.609905    2.908208   -2.294769
     46          1           0        6.706486    3.823136    3.576680
     47          1           0        6.557362   -2.377854    4.558868
     48          1           0        8.640976   -1.859836   -3.591536
     49          1           0        8.513875    0.931598   -3.964623
     50          1           0       10.479479   -0.855726   -2.583408
     51          1           0       10.382121    0.810816   -1.935778
     52          1           0       10.794695    0.600087   -3.613860
     53          1           0        6.316227    0.004365   -4.112697
     54          1           0        5.951506   -1.744734   -3.829667
     55          1           0        7.986932   -1.555976   -5.806637
     56          1           0        7.002702   -0.167002   -6.071017
     57          1           0        7.972792    4.916408   -2.358650
     58          1           0        8.164953    6.117312   -1.139257
     59          1           0        6.541422    5.879589   -1.835642
     60          1           0        7.020352    7.338024    0.349548
     61          1           0        5.646607    7.854331    1.478586
     62          1           0        5.373680    6.861898    0.021357
     63          1           0        5.904783    2.324525    5.477182
     64          1           0        7.347414   -0.232191    5.977184
     65          1           0        7.700695    3.029444    6.653268
     66          1           0        8.714567    2.613336    5.229312
     67          1           0        8.503858    1.481181    6.462520
     68          1           0        5.213100    0.436985    7.145608
     69          1           0        5.239000   -1.214589    6.537761
     70          1           0        3.858110    1.192368    5.617769
     71          1           0        3.177926   -0.459478    5.806031
     72          1           0        4.193491    0.004581    4.367982
     73          1           0        6.220876   -5.619399    2.894152
     74          1           0        6.568233   -4.464694    4.230216
     75          1           0        7.939151   -5.082324    3.217950
     76          1           0        8.441664   -4.065020   -1.770240
     77          1           0        6.698315   -6.132631   -5.132563
     78          1           0        6.470036   -4.344935   -5.613980
     79          1           0        5.324950   -5.293371   -4.647038
     80         12           0       -6.330773    0.491516   -0.769144
     81          6           0       -8.733250   -1.691488    0.761092
     82          6           0       -8.753608    2.892260   -0.799177
     83          6           0       -4.388410    2.289299   -2.519187
     84          6           0       -4.515263   -2.350385   -1.648486
     85          7           0       -8.432217    0.481623   -0.079165
     86          6           0       -9.217680   -0.384982    0.542440
     87          6           0      -10.570548    0.203983    1.024540
     88          6           0      -10.682097    1.427774   -0.009264
     89          6           0       -9.197030    1.644517   -0.292602
     90          6           0      -11.367449    1.053696   -1.312985
     91          6           0      -10.507397    0.709633    2.508572
     92          6           0      -11.866639    1.011120    3.143637
     93          1           0      -12.049994    0.725540    4.563954
     94          7           0       -6.351002    2.446144   -1.112083
     95          6           0       -7.417911    3.270792   -1.057950
     96          6           0       -6.912554    4.606259   -1.411941
     97          6           0       -5.493465    4.472573   -1.839753
     98          6           0       -5.359226    3.029786   -1.860580
     99          6           0       -7.730492    5.854705   -1.251345
    100          6           0       -4.436397    5.476796   -2.186657
    101          8           0       -3.343677    5.132891   -2.761564
    102          6           0       -4.757747    6.886138   -1.918390
    103          7           0       -4.801020    0.031811   -2.099885
    104          6           0       -4.079315    1.003230   -2.685895
    105          6           0       -2.864671    0.436327   -3.381353
    106          6           0       -2.790098   -1.097228   -2.933884
    107          6           0       -4.081827   -1.178032   -2.091093
    108          6           0       -2.871855    0.521124   -4.907498
    109          6           0       -1.459200   -1.579976   -2.294866
    110          6           0       -1.260459   -0.914948   -0.951882
    111          7           0       -6.455174   -1.624606   -0.351334
    112          6           0       -5.607671   -2.642138   -0.841703
    113          6           0       -6.159189   -3.930681   -0.374867
    114          6           0       -7.311292   -3.572069    0.341071
    115          6           0       -7.477932   -2.161248    0.304746
    116          6           0       -5.627300   -5.218129   -0.667571
    117          6           0       -8.430204   -4.067040    1.110305
    118          8           0       -8.766907   -5.167985    1.544202
    119          6           0       -9.470159   -2.881667    1.309765
    120          6           0       -9.867949   -2.851878    2.760076
    121          8           0       -9.033749   -2.571024    3.638628
    122          8           0      -11.207088   -2.945089    2.851695
    123          6           0      -11.651022   -2.908782    4.270648
    124          1           0       -9.501614    3.640025   -1.064176
    125          1           0       -3.628782    2.870938   -3.046582
    126          1           0       -3.953360   -3.274817   -1.798005
    127          1           0      -11.420620   -0.457909    0.910311
    128          1           0      -11.112218    2.306643    0.463972
    129          1           0      -11.561497   -0.006717   -1.376323
    130          1           0      -10.691555    1.362298   -2.099736
    131          1           0      -12.275789    1.648425   -1.445518
    132          1           0      -10.064905    1.713946    2.526127
    133          1           0       -9.966446    0.017538    3.124207
    134          1           0      -12.696237    0.596576    2.558077
    135          1           0      -12.031384    2.090945    3.114588
    136          1           0       -8.787940    5.622777   -1.074136
    137          1           0       -7.723485    6.368229   -2.218874
    138          1           0       -7.327501    6.527418   -0.491267
    139          1           0       -5.654280    7.163048   -2.467943
    140          1           0       -3.846944    7.442430   -2.148292
    141          1           0       -4.994941    6.994430   -0.854136
    142          1           0       -1.962819    0.941151   -3.057452
    143          1           0       -2.928345   -1.777753   -3.786891
    144          1           0       -1.997209    1.059503   -5.318853
    145          1           0       -3.792228    0.997238   -5.218581
    146          1           0       -2.921420   -0.436475   -5.423007
    147          1           0       -0.611005   -1.283243   -2.916695
    148          1           0       -1.405673   -2.656281   -2.169537
    149          1           0       -0.824488    0.052688   -1.217775
    150          1           0       -0.580950   -1.497292   -0.332854
    151          1           0       -2.222088   -0.720085   -0.463044
    152          1           0       -5.655672   -5.783665    0.254321
    153          1           0       -4.615640   -5.150041   -1.062134
    154          1           0       -6.340830   -5.556676   -1.423559
    155          1           0      -10.320657   -3.078542    0.655952
    156          1           0      -12.249500   -3.808998    4.441306
    157          1           0      -12.158620   -1.934436    4.400023
    158          1           0      -10.891056   -3.011751    5.036355
 ---------------------------------------------------------------------

 SCF Done:  E(RCAM-B3LYP) =  -4069.81208201     A.U. after   19 cycles

 Excitation energies and oscillator strengths:

 Excited State   1:      Singlet-A      1.6645 eV  744.86 nm  f=0.0107  <S**2>=0.000
     309 -> 315       -0.10808
     310 -> 316        0.13278
     311 -> 313       -0.43178
     312 -> 314        0.53391
 This state for optimization and/or second-order correction.
 Total Energy, E(TD-HF/TD-DFT) =  -4069.75091143
 Copying the excited state density for this state as the 1-particle RhoCI density.

 Excited State   2:      Singlet-A      1.6892 eV  733.98 nm  f=0.7320  <S**2>=0.000
     309 -> 315        0.13854
     310 -> 316        0.11131
     311 -> 313        0.53272
     312 -> 314        0.43088

 Excited State   3:      Singlet-A      2.1849 eV  567.47 nm  f=0.0864  <S**2>=0.000
     309 -> 313        0.10181
     310 -> 314        0.63473
     312 -> 316       -0.26886

 Excited State   4:      Singlet-A      2.1936 eV  565.20 nm  f=0.1118  <S**2>=0.000
     309 -> 313        0.63257
     310 -> 314       -0.10081
     311 -> 315       -0.27538

 Excited State   5:      Singlet-A      2.6847 eV  461.81 nm  f=0.0000  <S**2>=0.000
     312 -> 313        0.70693

 The electronic state is 1-A.
 Alpha  occ. eigenvalues --  -46.87748 -46.87534 -19.26312 -19.26261 -19.19066
 Alpha  occ. eigenvalues --  -19.19053 -19.18738 -19.18632 -19.18138 -19.17940
 Alpha  occ. eigenvalues --  -14.42406 -14.42378 -14.41397 -14.41222 -14.39350
 Alpha  occ. eigenvalues --  -14.39231 -14.38542 -14.38473 -10.39106 -10.38994
 Alpha  occ. eigenvalues --  -10.35370 -10.35312 -10.34361 -10.34117 -10.31719
 Alpha  occ. eigenvalues --  -10.31677 -10.31367 -10.31187 -10.30918 -10.30868
 Alpha  occ. eigenvalues --  -10.30525 -10.30456 -10.30269 -10.30231 -10.30143
 Alpha  occ. eigenvalues --  -10.29995 -10.29868 -10.29750 -10.29577 -10.29316
 Alpha  occ. eigenvalues --  -10.29278 -10.29196 -10.28731 -10.28625 -10.28580
 Alpha  occ. eigenvalues --  -10.28553 -10.28319 -10.28292 -10.28089 -10.28044
 Alpha  occ. eigenvalues --  -10.27881 -10.27741 -10.27679 -10.27550 -10.27527
 Alpha  occ. eigenvalues --  -10.27426 -10.27403 -10.27380 -10.27378 -10.27365
 Alpha  occ. eigenvalues --  -10.27363 -10.27350 -10.27299 -10.27204 -10.27142
 Alpha  occ. eigenvalues --  -10.26945 -10.26713 -10.26606 -10.26360 -10.26309
 Alpha  occ. eigenvalues --  -10.26204 -10.26090 -10.25962 -10.25938 -10.25795
 Alpha  occ. eigenvalues --  -10.25787 -10.25780 -10.25683 -10.25370 -10.25268
 Alpha  occ. eigenvalues --  -10.24786 -10.24753 -10.24735 -10.24580 -10.24564
 Alpha  occ. eigenvalues --  -10.24398  -3.16491  -3.16284  -1.91373  -1.91166
 Alpha  occ. eigenvalues --   -1.90959  -1.90802  -1.90755  -1.90592  -1.16661
 Alpha  occ. eigenvalues --   -1.16553  -1.08602  -1.08548  -1.07138  -1.06887
 Alpha  occ. eigenvalues --   -1.06850  -1.06673  -1.04538  -1.04378  -1.03709
 Alpha  occ. eigenvalues --   -1.03537  -1.03183  -1.02905  -1.02361  -1.01983
 Alpha  occ. eigenvalues --   -0.91935  -0.91869  -0.89456  -0.89319  -0.89163
 Alpha  occ. eigenvalues --   -0.89047  -0.88223  -0.88037  -0.87820  -0.87659
 Alpha  occ. eigenvalues --   -0.87629  -0.87561  -0.87206  -0.87019  -0.84952
 Alpha  occ. eigenvalues --   -0.84893  -0.83872  -0.83683  -0.82890  -0.82820
 Alpha  occ. eigenvalues --   -0.82610  -0.82541  -0.81569  -0.81481  -0.80559
 Alpha  occ. eigenvalues --   -0.80329  -0.78737  -0.78519  -0.77169  -0.77019
 Alpha  occ. eigenvalues --   -0.76906  -0.76765  -0.75895  -0.75728  -0.74843
 Alpha  occ. eigenvalues --   -0.74654  -0.72723  -0.72565  -0.71629  -0.71460
 Alpha  occ. eigenvalues --   -0.69831  -0.69528  -0.68836  -0.68716  -0.67595
 Alpha  occ. eigenvalues --   -0.67483  -0.67188  -0.67105  -0.65259  -0.65163
 Alpha  occ. eigenvalues --   -0.64817  -0.64637  -0.64583  -0.64531  -0.64210
 Alpha  occ. eigenvalues --   -0.64021  -0.62286  -0.62158  -0.60377  -0.60221
 Alpha  occ. eigenvalues --   -0.59771  -0.59689  -0.58942  -0.58863  -0.58460
 Alpha  occ. eigenvalues --   -0.58296  -0.57568  -0.57443  -0.57258  -0.57095
 Alpha  occ. eigenvalues --   -0.56263  -0.56080  -0.55975  -0.55782  -0.55466
 Alpha  occ. eigenvalues --   -0.55352  -0.55295  -0.55093  -0.54492  -0.54328
 Alpha  occ. eigenvalues --   -0.53871  -0.53812  -0.53244  -0.53181  -0.53104
 Alpha  occ. eigenvalues --   -0.53030  -0.52888  -0.52785  -0.52696  -0.52581
 Alpha  occ. eigenvalues --   -0.52360  -0.52138  -0.51866  -0.51737  -0.51583
 Alpha  occ. eigenvalues --   -0.51563  -0.51156  -0.51061  -0.50491  -0.50378
 Alpha  occ. eigenvalues --   -0.49964  -0.49871  -0.49859  -0.49696  -0.49472
 Alpha  occ. eigenvalues --   -0.49389  -0.49173  -0.49097  -0.49065  -0.48991
 Alpha  occ. eigenvalues --   -0.48566  -0.48450  -0.48409  -0.48386  -0.48249
 Alpha  occ. eigenvalues --   -0.48228  -0.47647  -0.47475  -0.47245  -0.47005
 Alpha  occ. eigenvalues --   -0.46748  -0.46568  -0.46529  -0.46446  -0.46310
 Alpha  occ. eigenvalues --   -0.46133  -0.46120  -0.45950  -0.45795  -0.45698
 Alpha  occ. eigenvalues --   -0.45142  -0.45060  -0.44545  -0.44451  -0.44409
 Alpha  occ. eigenvalues --   -0.44346  -0.44090  -0.44050  -0.44019  -0.43975
 Alpha  occ. eigenvalues --   -0.43911  -0.43842  -0.43472  -0.43424  -0.43344
 Alpha  occ. eigenvalues --   -0.43268  -0.42983  -0.42821  -0.42775  -0.42700
 Alpha  occ. eigenvalues --   -0.42593  -0.42378  -0.41957  -0.41785  -0.41663
 Alpha  occ. eigenvalues --   -0.41545  -0.41502  -0.41326  -0.41098  -0.40872
 Alpha  occ. eigenvalues --   -0.40829  -0.40759  -0.40633  -0.40569  -0.40512
 Alpha  occ. eigenvalues --   -0.40302  -0.40219  -0.40139  -0.39361  -0.39186
 Alpha  occ. eigenvalues --   -0.38412  -0.38185  -0.37732  -0.37552  -0.37263
 Alpha  occ. eigenvalues --   -0.37234  -0.37110  -0.37081  -0.36713  -0.36658
 Alpha  occ. eigenvalues --   -0.36164  -0.36072  -0.34240  -0.34126  -0.33790
 Alpha  occ. eigenvalues --   -0.33761  -0.33142  -0.33049  -0.31270  -0.31190
 Alpha  occ. eigenvalues --   -0.30989  -0.30851  -0.30000  -0.29843  -0.29392
 Alpha  occ. eigenvalues --   -0.29274  -0.29215  -0.29089  -0.24034  -0.23910
 Alpha  occ. eigenvalues --   -0.21077  -0.20990
 Alpha virt. eigenvalues --   -0.08722  -0.08671  -0.01696  -0.01557  -0.00000
 Alpha virt. eigenvalues --    0.00071   0.02244   0.02331   0.03160   0.03363
 Alpha virt. eigenvalues --    0.04752   0.04844   0.05081   0.05263   0.06183

 Mulliken charges:
               1
     1  Mg   0.838505
     2  C   -0.003495
     3  C   -0.094069
     4  C   -0.045635
     5  C   -0.063781
     6  N   -0.256801
     7  C   -0.052768
     8  C   -0.013928
     9  C   -0.087011
    10  C    0.046245
    11  C    0.104794
    12  C    0.053468
    13  C   -0.071637
    14  H    0.035238
    15  N   -0.433215
    16  C    0.168555
    17  C   -0.176858
    18  C   -0.003671
    19  C    0.148829
    20  C    0.110082
    21  C    0.012725
    22  O   -0.249547
    23  C    0.062198
    24  N   -0.341153
    25  C    0.041315
    26  C   -0.028207
    27  C   -0.023994
    28  C    0.074801
    29  C    0.076178
    30  C    0.035076
    31  C   -0.004580
    32  N   -0.310348
    33  C    0.080135
    34  C   -0.169770
    35  C    0.008198
    36  C    0.082608
    37  C    0.127348
    38  C    0.045729
    39  O   -0.188724
    40  C   -0.005211
    41  C    0.213111
    42  O   -0.258306
    43  O   -0.304509
    44  C    0.157863
    45  H   -0.017568
    46  H   -0.016666
    47  H   -0.041286
    48  H    0.000860
    49  H   -0.003983
    50  H    0.025442
    51  H    0.016571
    52  H    0.016665
    53  H    0.011313
    54  H    0.043162
    55  H    0.018091
    56  H    0.018285
    57  H    0.005778
    58  H    0.026757
    59  H    0.040470
    60  H    0.037090
    61  H    0.035709
    62  H    0.032577
    63  H    0.016820
    64  H    0.009424
    65  H    0.023268
    66  H    0.012420
    67  H    0.004756
    68  H    0.006466
    69  H    0.004873
    70  H    0.008961
    71  H    0.018837
    72  H    0.028657
    73  H    0.047458
    74  H    0.009398
    75  H    0.045960
    76  H    0.035210
    77  H    0.043136
    78  H    0.046444
    79  H    0.052853
    80  Mg   0.837831
    81  C   -0.017051
    82  C   -0.088068
    83  C   -0.045516
    84  C   -0.064707
    85  N   -0.254599
    86  C   -0.049833
    87  C   -0.015114
    88  C   -0.090426
    89  C    0.045669
    90  C    0.114460
    91  C    0.062573
    92  C   -0.077760
    93  H    0.034670
    94  N   -0.423360
    95  C    0.162781
    96  C   -0.174940
    97  C   -0.008120
    98  C    0.152069
    99  C    0.099478
   100  C    0.015437
   101  O   -0.253932
   102  C    0.061334
   103  N   -0.350194
   104  C    0.037575
   105  C   -0.019507
   106  C   -0.035613
   107  C    0.089193
   108  C    0.074080
   109  C    0.034877
   110  C   -0.008249
   111  N   -0.324203
   112  C    0.078715
   113  C   -0.162611
   114  C    0.002121
   115  C    0.096411
   116  C    0.131208
   117  C    0.042477
   118  O   -0.187869
   119  C    0.000867
   120  C    0.211243
   121  O   -0.251003
   122  O   -0.305680
   123  C    0.152090
   124  H   -0.020099
   125  H   -0.016104
   126  H   -0.039016
   127  H   -0.000813
   128  H   -0.004568
   129  H    0.022350
   130  H    0.014362
   131  H    0.015953
   132  H    0.013923
   133  H    0.037696
   134  H    0.020673
   135  H    0.019457
   136  H    0.008569
   137  H    0.025637
   138  H    0.039490
   139  H    0.038049
   140  H    0.035522
   141  H    0.034064
   142  H    0.014244
   143  H    0.012588
   144  H    0.024189
   145  H    0.010945
   146  H    0.005726
   147  H    0.008102
   148  H    0.006410
   149  H    0.009568
   150  H    0.021336
   151  H    0.028458
   152  H    0.046276
   153  H    0.010037
   154  H    0.046698
   155  H    0.034806
   156  H    0.043780
   157  H    0.049356
   158  H    0.053538
 Sum of Mulliken charges =  -0.00000

 Dipole moment (field-independent basis, Debye):
    X=              0.1916    Y=              6.8719    Z=             -3.4673  Tot=              7.6995
 Quadrupole moment (field-independent basis, Debye-Ang):
   XX=           -432.1544   YY=           -541.1055   ZZ=           -481.9997
   XY=            -26.1021   XZ=            -13.6639   YZ=             -1.4558

 Normal termination of Gaussian 16 at Sat Sep 11 04:29:02 2021.
