 Gaussian 16, Revision A.03,
 Gaussian 16:  ES64L-G16RevA.03 25-Dec-2016

 -----------------------------------
 #p cam-b3lyp/Def2SVP td=(nstates=5)
 -----------------------------------

 --------------------------------
 TDDFT excited states in gaussian
 --------------------------------
 Symbolic Z-matrix:
 Charge =  0 Multiplicity = 1

                         Standard orientation:
 ---------------------------------------------------------------------
 Center     Atomic      Atomic             Coordinates (Angstroms)
 Number     Number       Type             X           Y           Z
 ---------------------------------------------------------------------
      1         12           0        4.978513   -1.025866    0.070738
      2          6           0        5.422723    1.967948   -1.840274
      3          6           0        5.953618    0.756612    2.812090
      4          6           0        5.032430   -3.752261    1.689529
      5          6           0        5.147264   -2.790435   -2.929842
      6          7           0        5.584140    1.088003    0.326509
      7          6           0        5.654527    2.146502   -0.474613
      8          6           0        5.923979    3.479644    0.285322
      9          6           0        6.620256    2.888243    1.592013
     10          6           0        5.989444    1.506958    1.599354
     11          6           0        8.132376    2.736967    1.461205
     12          6           0        4.601908    4.241906    0.635773
     13          6           0        4.784455    5.695402    1.082294
     14          1           0        3.782095    6.677423    0.697251
     15          7           0        4.950881   -1.360727    2.017519
     16          6           0        5.371252   -0.516930    2.990443
     17          6           0        5.144424   -1.224021    4.269213
     18          6           0        4.735040   -2.620127    3.950799
     19          6           0        4.917450   -2.641412    2.521935
     20          6           0        5.271409   -0.564301    5.608016
     21          6           0        4.265541   -3.758165    4.800841
     22          8           0        4.184253   -4.953027    4.353323
     23          6           0        3.983915   -3.449624    6.214535
     24          7           0        5.294960   -3.009210   -0.498334
     25          6           0        5.206356   -4.004685    0.390577
     26          6           0        5.188530   -5.342417   -0.287726
     27          6           0        5.038245   -5.044324   -1.849234
     28          6           0        5.080397   -3.497071   -1.799239
     29          6           0        6.420117   -6.228038   -0.053458
     30          6           0        3.857735   -5.726624   -2.584952
     31          6           0        2.546818   -5.158723   -2.088884
     32          7           0        5.060119   -0.523852   -2.039325
     33          6           0        5.148647   -1.418124   -3.115946
     34          6           0        5.286677   -0.608027   -4.340184
     35          6           0        5.285509    0.709420   -3.886118
     36          6           0        5.181423    0.720778   -2.465791
     37          6           0        5.451270   -1.113657   -5.659912
     38          6           0        5.372767    2.109469   -4.268358
     39          8           0        5.380314    2.716938   -5.340000
     40          6           0        5.587723    2.976353   -2.949976
     41          6           0        4.622576    4.129230   -3.001689
     42          8           0        3.391886    3.937198   -2.924918
     43          8           0        5.300854    5.282000   -2.893972
     44          6           0        4.399256    6.464819   -2.908646
     45          1           0        6.467961    1.149559    3.691285
     46          1           0        4.944080   -4.714227    2.198699
     47          1           0        5.120220   -3.269324   -3.910345
     48          1           0        6.605006    4.162715   -0.222654
     49          1           0        6.336961    3.438971    2.488766
     50          1           0        8.466543    2.939961    0.443833
     51          1           0        8.346037    1.703038    1.732928
     52          1           0        8.648477    3.353163    2.197899
     53          1           0        4.174499    3.820589    1.545649
     54          1           0        3.903011    4.206779   -0.200669
     55          1           0        5.785518    6.060617    0.851210
     56          1           0        4.728691    5.727986    2.170425
     57          1           0        5.745572    0.413217    5.529441
     58          1           0        5.972877   -1.160349    6.191436
     59          1           0        4.315783   -0.506515    6.129333
     60          1           0        4.885884   -3.055886    6.683546
     61          1           0        3.574402   -4.362432    6.645732
     62          1           0        3.241343   -2.652508    6.260813
     63          1           0        4.339941   -5.938516    0.045423
     64          1           0        5.918358   -5.356685   -2.411823
     65          1           0        6.183137   -7.204638    0.369387
     66          1           0        7.111155   -5.681531    0.587703
     67          1           0        7.034212   -6.399986   -0.937052
     68          1           0        3.845268   -6.795110   -2.372516
     69          1           0        3.896720   -5.604130   -3.667415
     70          1           0        2.356622   -5.738094   -1.186117
     71          1           0        1.760064   -5.316878   -2.827272
     72          1           0        2.652444   -4.115547   -1.790367
     73          1           0        4.802144   -0.515199   -6.299014
     74          1           0        5.194206   -2.171312   -5.713656
     75          1           0        6.515227   -0.934193   -5.813678
     76          1           0        6.624892    3.309977   -2.959828
     77          1           0        4.737303    7.116106   -3.714737
     78          1           0        4.402272    6.869323   -1.896335
     79          1           0        3.367819    6.280985   -3.211438
     80         12           0       -5.577602   -0.247325   -0.060955
     81          6           0       -3.042811    1.973840    1.172048
     82          6           0       -7.863126    2.151467    0.749460
     83          6           0       -7.865173   -2.345739   -0.717554
     84          6           0       -3.278641   -2.842800    0.291194
     85          7           0       -5.358524    1.761585    0.838234
     86          6           0       -4.340920    2.524300    1.208487
     87          6           0       -4.728194    3.984325    1.566115
     88          6           0       -6.269294    3.738436    1.944840
     89          6           0       -6.532728    2.493116    1.100775
     90          6           0       -6.479848    3.378328    3.406114
     91          6           0       -4.585357    4.957212    0.343365
     92          6           0       -4.648202    6.445270    0.694767
     93          1           0       -3.816860    7.375405   -0.064304
     94          7           0       -7.502593    0.032397   -0.454302
     95          6           0       -8.269330    1.073352   -0.067249
     96          6           0       -9.615820    0.798319   -0.592114
     97          6           0       -9.620076   -0.569095   -1.179378
     98          6           0       -8.306420   -1.031939   -0.779187
     99          6           0      -10.718061    1.817289   -0.579063
    100          6           0      -10.642778   -1.338189   -1.959621
    101          8           0      -10.525663   -2.597961   -2.164751
    102          6           0      -11.831682   -0.591694   -2.396363
    103          7           0       -5.647012   -2.324155    0.004694
    104          6           0       -6.748022   -2.991664   -0.382783
    105          6           0       -6.472119   -4.470743   -0.511632
    106          6           0       -4.887423   -4.626693   -0.363337
    107          6           0       -4.514548   -3.156361   -0.072663
    108          6           0       -7.169423   -5.368973    0.509803
    109          6           0       -4.142704   -5.365512   -1.508858
    110          6           0       -4.198164   -4.542349   -2.775640
    111          7           0       -3.479534   -0.411054    0.428299
    112          6           0       -2.721075   -1.596371    0.545957
    113          6           0       -1.373172   -1.206665    1.008241
    114          6           0       -1.448437    0.187080    1.150679
    115          6           0       -2.757184    0.632173    0.821192
    116          6           0       -0.298477   -2.098158    1.284639
    117          6           0       -0.721417    1.381811    1.515058
    118          8           0        0.448972    1.633987    1.798473
    119          6           0       -1.757674    2.577441    1.666749
    120          6           0       -1.209329    3.764500    0.923299
    121          8           0       -1.081294    3.731776   -0.313285
    122          8           0       -1.131676    4.812913    1.763054
    123          6           0       -0.603542    6.017548    1.068976
    124          1           0       -8.678572    2.738783    1.172534
    125          1           0       -8.585147   -3.100638   -1.041970
    126          1           0       -2.476346   -3.582675    0.330972
    127          1           0       -4.198457    4.399895    2.414909
    128          1           0       -6.894144    4.563410    1.612654
    129          1           0       -5.543603    3.231008    3.923692
    130          1           0       -7.058548    2.463915    3.403306
    131          1           0       -7.107097    4.130469    3.893115
    132          1           0       -5.480674    4.874861   -0.286225
    133          1           0       -3.685296    4.752676   -0.203152
    134          1           0       -4.535036    6.619628    1.771678
    135          1           0       -5.651664    6.813387    0.467647
    136          1           0      -10.469579    2.670429    0.064220
    137          1           0      -11.579631    1.350116   -0.089860
    138          1           0      -11.010390    2.134451   -1.582365
    139          1           0      -12.337609   -0.177781   -1.527359
    140          1           0      -12.402678   -1.287210   -3.014522
    141          1           0      -11.506412    0.258773   -3.005888
    142          1           0       -6.771575   -4.836539   -1.486108
    143          1           0       -4.616858   -5.202751    0.533761
    144          1           0       -7.798942   -6.151271    0.045262
    145          1           0       -7.761247   -4.744465    1.165763
    146          1           0       -6.505839   -5.874821    1.209069
    147          1           0       -4.637875   -6.313552   -1.732839
    148          1           0       -3.107088   -5.590130   -1.276396
    149          1           0       -5.175281   -4.800262   -3.194949
    150          1           0       -3.392341   -4.823405   -3.450695
    151          1           0       -4.209734   -3.470102   -2.548054
    152          1           0        0.591339   -1.654978    0.857656
    153          1           0       -0.487105   -3.087762    0.873694
    154          1           0       -0.320040   -2.096659    2.377709
    155          1           0       -1.871712    2.778888    2.732574
    156          1           0        0.267912    6.357301    1.637159
    157          1           0       -1.457790    6.716103    0.991265
    158          1           0       -0.173277    5.880088    0.083883
 ---------------------------------------------------------------------

 SCF Done:  E(RCAM-B3LYP) =  -4069.81126731     A.U. after   19 cycles

 Excitation energies and oscillator strengths:

 Excited State   1:      Singlet-A      1.6663 eV  744.08 nm  f=0.3443  <S**2>=0.000
     309 -> 315        0.14108
     311 -> 313        0.56530
     312 -> 314        0.38967
 This state for optimization and/or second-order correction.
 Total Energy, E(TD-HF/TD-DFT) =  -4069.75003323
 Copying the excited state density for this state as the 1-particle RhoCI density.

 Excited State   2:      Singlet-A      1.6848 eV  735.90 nm  f=0.4468  <S**2>=0.000
     310 -> 316        0.14429
     311 -> 313       -0.38896
     312 -> 314        0.56430

 Excited State   3:      Singlet-A      2.1784 eV  569.14 nm  f=0.0038  <S**2>=0.000
     309 -> 313        0.50456
     310 -> 314       -0.40239
     311 -> 315       -0.20984
     312 -> 316        0.16553

 Excited State   4:      Singlet-A      2.1919 eV  565.64 nm  f=0.1725  <S**2>=0.000
     309 -> 313        0.39878
     310 -> 314        0.50032
     311 -> 315       -0.17257
     312 -> 316       -0.21767

 Excited State   5:      Singlet-A      2.3594 eV  525.49 nm  f=0.0000  <S**2>=0.000
     312 -> 313        0.70549

 The electronic state is 1-A.
 Alpha  occ. eigenvalues --  -46.87567 -46.87190 -19.26199 -19.25716 -19.18912
 Alpha  occ. eigenvalues --  -19.18635 -19.18385 -19.18339 -19.18066 -19.17624
 Alpha  occ. eigenvalues --  -14.42410 -14.41829 -14.41269 -14.40907 -14.39263
 Alpha  occ. eigenvalues --  -14.38796 -14.38507 -14.37993 -10.38870 -10.38418
 Alpha  occ. eigenvalues --  -10.35313 -10.35024 -10.34199 -10.33838 -10.31656
 Alpha  occ. eigenvalues --  -10.31230 -10.31227 -10.30936 -10.30796 -10.30311
 Alpha  occ. eigenvalues --  -10.30292 -10.30275 -10.30049 -10.29977 -10.29965
 Alpha  occ. eigenvalues --  -10.29807 -10.29708 -10.29425 -10.29351 -10.29317
 Alpha  occ. eigenvalues --  -10.29099 -10.28698 -10.28641 -10.28573 -10.28318
 Alpha  occ. eigenvalues --  -10.28126 -10.28097 -10.28074 -10.27926 -10.27769
 Alpha  occ. eigenvalues --  -10.27588 -10.27528 -10.27424 -10.27393 -10.27393
 Alpha  occ. eigenvalues --  -10.27382 -10.27290 -10.27234 -10.27153 -10.27138
 Alpha  occ. eigenvalues --  -10.27102 -10.27044 -10.26971 -10.26961 -10.26821
 Alpha  occ. eigenvalues --  -10.26583 -10.26582 -10.26341 -10.26040 -10.26037
 Alpha  occ. eigenvalues --  -10.25991 -10.25960 -10.25921 -10.25837 -10.25823
 Alpha  occ. eigenvalues --  -10.25738 -10.25498 -10.25385 -10.25322 -10.25124
 Alpha  occ. eigenvalues --  -10.24798 -10.24626 -10.24603 -10.24559 -10.24272
 Alpha  occ. eigenvalues --  -10.24264  -3.16316  -3.15916  -1.91198  -1.90797
 Alpha  occ. eigenvalues --   -1.90787  -1.90624  -1.90385  -1.90228  -1.16476
 Alpha  occ. eigenvalues --   -1.16047  -1.08635  -1.08078  -1.06888  -1.06796
 Alpha  occ. eigenvalues --   -1.06720  -1.05982  -1.04409  -1.03969  -1.03576
 Alpha  occ. eigenvalues --   -1.03206  -1.02950  -1.02663  -1.02023  -1.01845
 Alpha  occ. eigenvalues --   -0.91899  -0.91397  -0.89403  -0.89098  -0.89075
 Alpha  occ. eigenvalues --   -0.88585  -0.88131  -0.87864  -0.87726  -0.87598
 Alpha  occ. eigenvalues --   -0.87339  -0.87095  -0.87040  -0.86760  -0.84918
 Alpha  occ. eigenvalues --   -0.84421  -0.83784  -0.83569  -0.82850  -0.82570
 Alpha  occ. eigenvalues --   -0.82537  -0.82128  -0.81501  -0.81062  -0.80353
 Alpha  occ. eigenvalues --   -0.80064  -0.78558  -0.78269  -0.77067  -0.76813
 Alpha  occ. eigenvalues --   -0.76753  -0.76426  -0.75760  -0.75397  -0.74718
 Alpha  occ. eigenvalues --   -0.74473  -0.72619  -0.72250  -0.71500  -0.71157
 Alpha  occ. eigenvalues --   -0.69665  -0.69578  -0.68747  -0.68339  -0.67518
 Alpha  occ. eigenvalues --   -0.67117  -0.67114  -0.66648  -0.65188  -0.64706
 Alpha  occ. eigenvalues --   -0.64679  -0.64559  -0.64325  -0.64116  -0.64113
 Alpha  occ. eigenvalues --   -0.63803  -0.62165  -0.61770  -0.60257  -0.59949
 Alpha  occ. eigenvalues --   -0.59719  -0.59213  -0.58905  -0.58459  -0.58334
 Alpha  occ. eigenvalues --   -0.57976  -0.57447  -0.57146  -0.57024  -0.56817
 Alpha  occ. eigenvalues --   -0.56118  -0.55789  -0.55780  -0.55441  -0.55365
 Alpha  occ. eigenvalues --   -0.55149  -0.55034  -0.54907  -0.54375  -0.54049
 Alpha  occ. eigenvalues --   -0.53830  -0.53298  -0.53146  -0.53051  -0.52816
 Alpha  occ. eigenvalues --   -0.52780  -0.52694  -0.52590  -0.52401  -0.52307
 Alpha  occ. eigenvalues --   -0.52272  -0.52078  -0.51823  -0.51576  -0.51412
 Alpha  occ. eigenvalues --   -0.51129  -0.51050  -0.50689  -0.50397  -0.50111
 Alpha  occ. eigenvalues --   -0.49902  -0.49790  -0.49656  -0.49415  -0.49403
 Alpha  occ. eigenvalues --   -0.49107  -0.49047  -0.48992  -0.48683  -0.48572
 Alpha  occ. eigenvalues --   -0.48467  -0.48299  -0.48264  -0.48105  -0.47998
 Alpha  occ. eigenvalues --   -0.47959  -0.47511  -0.47203  -0.47030  -0.46803
 Alpha  occ. eigenvalues --   -0.46621  -0.46471  -0.46312  -0.46180  -0.45988
 Alpha  occ. eigenvalues --   -0.45983  -0.45849  -0.45738  -0.45661  -0.45317
 Alpha  occ. eigenvalues --   -0.45123  -0.44791  -0.44439  -0.44405  -0.44084
 Alpha  occ. eigenvalues --   -0.44061  -0.44048  -0.43990  -0.43865  -0.43711
 Alpha  occ. eigenvalues --   -0.43569  -0.43501  -0.43455  -0.43300  -0.42985
 Alpha  occ. eigenvalues --   -0.42865  -0.42834  -0.42784  -0.42529  -0.42466
 Alpha  occ. eigenvalues --   -0.42306  -0.42134  -0.41876  -0.41600  -0.41565
 Alpha  occ. eigenvalues --   -0.41374  -0.41177  -0.41008  -0.40915  -0.40641
 Alpha  occ. eigenvalues --   -0.40634  -0.40617  -0.40408  -0.40406  -0.40363
 Alpha  occ. eigenvalues --   -0.40140  -0.40118  -0.39579  -0.39330  -0.39136
 Alpha  occ. eigenvalues --   -0.38263  -0.38044  -0.37565  -0.37200  -0.37173
 Alpha  occ. eigenvalues --   -0.37112  -0.36846  -0.36677  -0.36603  -0.36165
 Alpha  occ. eigenvalues --   -0.36093  -0.35646  -0.34163  -0.33716  -0.33634
 Alpha  occ. eigenvalues --   -0.33101  -0.33073  -0.32611  -0.31193  -0.30915
 Alpha  occ. eigenvalues --   -0.30881  -0.30474  -0.29940  -0.29480  -0.29246
 Alpha  occ. eigenvalues --   -0.29133  -0.28892  -0.28755  -0.23944  -0.23494
 Alpha  occ. eigenvalues --   -0.21031  -0.20565
 Alpha virt. eigenvalues --   -0.08709  -0.08213  -0.01594  -0.01200   0.00048
 Alpha virt. eigenvalues --    0.00479   0.02264   0.02731   0.03376   0.03667
 Alpha virt. eigenvalues --    0.04805   0.05135   0.05372   0.05723   0.06138

 Mulliken charges:
               1
     1  Mg   0.839569
     2  C    0.001153
     3  C   -0.090299
     4  C   -0.047457
     5  C   -0.065280
     6  N   -0.256058
     7  C   -0.048526
     8  C   -0.016305
     9  C   -0.088770
    10  C    0.051340
    11  C    0.105223
    12  C    0.053162
    13  C   -0.069517
    14  H    0.026729
    15  N   -0.432405
    16  C    0.173776
    17  C   -0.176105
    18  C   -0.004479
    19  C    0.148117
    20  C    0.111048
    21  C    0.011045
    22  O   -0.252068
    23  C    0.062505
    24  N   -0.340066
    25  C    0.040284
    26  C   -0.027604
    27  C   -0.023730
    28  C    0.074008
    29  C    0.076663
    30  C    0.035863
    31  C   -0.005006
    32  N   -0.310450
    33  C    0.080614
    34  C   -0.170423
    35  C    0.007735
    36  C    0.084992
    37  C    0.127368
    38  C    0.047154
    39  O   -0.189848
    40  C   -0.006485
    41  C    0.210929
    42  O   -0.250444
    43  O   -0.305913
    44  C    0.158353
    45  H   -0.019269
    46  H   -0.019370
    47  H   -0.043509
    48  H   -0.001108
    49  H   -0.004133
    50  H    0.024630
    51  H    0.015743
    52  H    0.015064
    53  H    0.021617
    54  H    0.049079
    55  H    0.016308
    56  H    0.017704
    57  H    0.005862
    58  H    0.024742
    59  H    0.040370
    60  H    0.036986
    61  H    0.033532
    62  H    0.032196
    63  H    0.014216
    64  H    0.008756
    65  H    0.021733
    66  H    0.012806
    67  H    0.003948
    68  H    0.004920
    69  H    0.004723
    70  H    0.006153
    71  H    0.015935
    72  H    0.030553
    73  H    0.047217
    74  H    0.007806
    75  H    0.044819
    76  H    0.033563
    77  H    0.041108
    78  H    0.044382
    79  H    0.054340
    80  Mg   0.838989
    81  C   -0.015971
    82  C   -0.087871
    83  C   -0.045524
    84  C   -0.065101
    85  N   -0.254516
    86  C   -0.049904
    87  C   -0.015139
    88  C   -0.090500
    89  C    0.045914
    90  C    0.114552
    91  C    0.062450
    92  C   -0.077688
    93  H    0.035112
    94  N   -0.423412
    95  C    0.163106
    96  C   -0.174724
    97  C   -0.007792
    98  C    0.152193
    99  C    0.099447
   100  C    0.015618
   101  O   -0.253261
   102  C    0.061160
   103  N   -0.350133
   104  C    0.037563
   105  C   -0.019838
   106  C   -0.034825
   107  C    0.088818
   108  C    0.073695
   109  C    0.034556
   110  C   -0.007536
   111  N   -0.324276
   112  C    0.078874
   113  C   -0.164456
   114  C    0.001263
   115  C    0.097715
   116  C    0.130853
   117  C    0.045788
   118  O   -0.189298
   119  C    0.000121
   120  C    0.210602
   121  O   -0.244445
   122  O   -0.307593
   123  C    0.150886
   124  H   -0.020002
   125  H   -0.015686
   126  H   -0.039744
   127  H   -0.001460
   128  H   -0.004386
   129  H    0.021752
   130  H    0.014345
   131  H    0.015879
   132  H    0.014171
   133  H    0.039377
   134  H    0.019826
   135  H    0.019375
   136  H    0.008599
   137  H    0.025876
   138  H    0.039887
   139  H    0.038057
   140  H    0.036294
   141  H    0.034082
   142  H    0.014378
   143  H    0.012684
   144  H    0.024968
   145  H    0.011412
   146  H    0.005729
   147  H    0.005899
   148  H    0.004000
   149  H    0.010769
   150  H    0.017562
   151  H    0.030835
   152  H    0.047264
   153  H    0.011423
   154  H    0.047509
   155  H    0.033061
   156  H    0.040175
   157  H    0.048599
   158  H    0.058200
 Sum of Mulliken charges =  -0.00000

 Dipole moment (field-independent basis, Debye):
    X=             -2.1009    Y=              2.6373    Z=              5.5184  Tot=              6.4670
 Quadrupole moment (field-independent basis, Debye-Ang):
   XX=           -474.4470   YY=           -472.6497   ZZ=           -518.4869
   XY=            -28.0129   XZ=              8.2685   YZ=             36.1562

 Normal termination of Gaussian 16 at Fri Sep 10 17:39:04 2021.
