 Gaussian 16, Revision A.03,
 Gaussian 16:  ES64L-G16RevA.03 25-Dec-2016

 -----------------------------------
 #p cam-b3lyp/Def2SVP td=(nstates=5)
 -----------------------------------

 --------------------------------
 TDDFT excited states in gaussian
 --------------------------------
 Symbolic Z-matrix:
 Charge =  0 Multiplicity = 1

                         Standard orientation:
 ---------------------------------------------------------------------
 Center     Atomic      Atomic             Coordinates (Angstroms)
 Number     Number       Type             X           Y           Z
 ---------------------------------------------------------------------
      1         12           0        6.443880   -1.072260   -0.077408
      2          6           0        7.224709    2.410757   -0.344085
      3          6           0        7.410248   -0.886350    3.189798
      4          6           0        6.195607   -4.230640    0.062653
      5          6           0        6.631333   -1.229351   -3.553878
      6          7           0        7.200653    0.606080    1.151867
      7          6           0        7.397110    1.904644    0.946176
      8          6           0        7.730620    2.692866    2.248040
      9          6           0        8.307503    1.494375    3.127143
     10          6           0        7.569737    0.338116    2.475461
     11          6           0        9.807689    1.279445    2.954660
     12          6           0        6.456366    3.323093    2.904411
     13          6           0        6.729540    4.372304    3.986024
     14          1           0        5.829994    5.510274    4.100869
     15          7           0        6.286502   -2.277203    1.480217
     16          6           0        6.720166   -2.032869    2.740186
     17          6           0        6.370468   -3.232221    3.531355
     18          6           0        5.869239   -4.269637    2.587623
     19          6           0        6.124979   -3.635102    1.319813
     20          6           0        6.478078   -3.293349    5.024149
     21          6           0        5.266589   -5.623111    2.795118
     22          8           0        5.114758   -6.454399    1.835701
     23          6           0        4.935651   -5.988918    4.184257
     24          7           0        6.631951   -2.576489   -1.512524
     25          6           0        6.417693   -3.859189   -1.199864
     26          6           0        6.329965   -4.713630   -2.429569
     27          6           0        6.286873   -3.704881   -3.666630
     28          6           0        6.448768   -2.373952   -2.891589
     29          6           0        7.473335   -5.717965   -2.629637
     30          6           0        5.096738   -3.846608   -4.648420
     31          6           0        3.810459   -3.456411   -3.955362
     32          7           0        6.676897    0.350937   -1.699523
     33          6           0        6.751317    0.062654   -3.069935
     34          6           0        7.017888    1.335276   -3.765236
     35          6           0        7.097005    2.278939   -2.742941
     36          6           0        6.918898    1.632262   -1.486606
     37          6           0        7.211725    1.495062   -5.165711
     38          6           0        7.315082    3.679188   -2.417977
     39          8           0        7.427611    4.714688   -3.075677
     40          6           0        7.527759    3.801171   -0.844537
     41          6           0        6.661099    4.929187   -0.354853
     42          8           0        5.416729    4.841363   -0.389452
     43          8           0        7.421902    5.826326    0.290795
     44          6           0        6.618907    6.957216    0.827865
     45          1           0        7.906710   -1.002766    4.155155
     46          1           0        6.004415   -5.305742    0.056414
     47          1           0        6.618517   -1.187091   -4.644521
     48          1           0        8.489628    3.466310    2.129229
     49          1           0        8.021532    1.583939    4.174960
     50          1           0       10.210422    1.903378    2.156891
     51          1           0        9.924034    0.223932    2.707988
     52          1           0       10.331154    1.425734    3.899838
     53          1           0        5.949226    2.566782    3.503462
     54          1           0        5.802272    3.751103    2.143954
     55          1           0        7.767243    4.706379    3.964212
     56          1           0        6.618851    3.895568    4.960021
     57          1           0        7.031699   -2.443276    5.420916
     58          1           0        7.098154   -4.156998    5.263577
     59          1           0        5.503713   -3.396567    5.501946
     60          1           0        5.839808   -5.948936    4.792080
     61          1           0        4.432793   -6.953793    4.129473
     62          1           0        4.257162   -5.240347    4.594431
     63          1           0        5.420330   -5.312773   -2.425373
     64          1           0        7.168089   -3.798628   -4.301723
     65          1           0        7.137613   -6.751300   -2.720279
     66          1           0        8.170489   -5.604630   -1.799925
     67          1           0        8.117911   -5.512554   -3.483888
     68          1           0        4.988395   -4.883179   -4.965798
     69          1           0        5.202710   -3.234790   -5.544355
     70          1           0        3.527304   -4.370659   -3.434971
     71          1           0        3.053956   -3.174087   -4.688306
     72          1           0        3.982409   -2.690680   -3.198675
     73          1           0        6.646899    2.381990   -5.452589
     74          1           0        6.874887    0.616126   -5.714904
     75          1           0        8.293214    1.623807   -5.206485
     76          1           0        8.587157    4.000265   -0.685920
     77          1           0        7.049805    7.875203    0.428039
     78          1           0        6.600223    6.837005    1.911195
     79          1           0        5.593680    7.035801    0.464447
     80         12           0       -6.612488    1.097073    0.107643
     81          6           0       -6.994476   -2.468282    0.254001
     82          6           0       -5.833178    0.728320   -3.192552
     83          6           0       -5.830992    4.171718    0.050885
     84          6           0       -6.295531    1.066307    3.578127
     85          7           0       -6.466727   -0.689957   -1.187554
     86          6           0       -6.694205   -1.986079   -1.037031
     87          6           0       -6.673201   -2.800496   -2.358335
     88          6           0       -5.752224   -1.817195   -3.232276
     89          6           0       -6.057608   -0.500283   -2.521528
     90          6           0       -4.266066   -2.101980   -3.092412
     91          6           0       -8.102534   -2.957918   -2.986228
     92          6           0       -8.202511   -3.997034   -4.105160
     93          1           0       -9.430749   -4.778235   -4.221848
     94          7           0       -6.411413    2.342990   -1.423962
     95          6           0       -6.115848    2.021664   -2.700937
     96          6           0       -6.061335    3.295867   -3.434142
     97          6           0       -6.186163    4.407542   -2.452645
     98          6           0       -6.125483    3.668141   -1.207785
     99          6           0       -5.984051    3.370439   -4.931438
    100          6           0       -6.322977    5.891861   -2.608449
    101          8           0       -6.176597    6.689422   -1.615832
    102          6           0       -6.540790    6.390366   -3.974297
    103          7           0       -5.922116    2.403627    1.570055
    104          6           0       -5.710440    3.702181    1.292782
    105          6           0       -5.483803    4.499568    2.555006
    106          6           0       -5.828596    3.505164    3.759105
    107          6           0       -6.121815    2.221802    2.951385
    108          6           0       -4.073790    5.058388    2.744673
    109          6           0       -6.885925    3.987717    4.789574
    110          6           0       -8.245374    4.071135    4.133587
    111          7           0       -6.818682   -0.375305    1.675330
    112          6           0       -6.616379   -0.181642    3.059395
    113          6           0       -6.761108   -1.500404    3.709277
    114          6           0       -7.016831   -2.380642    2.647075
    115          6           0       -7.010497   -1.664597    1.419588
    116          6           0       -6.606942   -1.764102    5.099535
    117          6           0       -7.280158   -3.754529    2.284023
    118          8           0       -7.486419   -4.793982    2.909108
    119          6           0       -7.152051   -3.893628    0.705842
    120          6           0       -8.348066   -4.658178    0.208334
    121          8           0       -9.490257   -4.175012    0.300749
    122          8           0       -7.927477   -5.730550   -0.487005
    123          6           0       -9.077667   -6.514739   -1.010402
    124          1           0       -5.356282    0.704530   -4.172806
    125          1           0       -5.663011    5.250090    0.099821
    126          1           0       -6.308108    0.989151    4.667422
    127          1           0       -6.208418   -3.776258   -2.283183
    128          1           0       -6.085557   -1.778747   -4.266091
    129          1           0       -4.067825   -2.844937   -2.334212
    130          1           0       -3.809466   -1.157876   -2.825523
    131          1           0       -3.842284   -2.378247   -4.062163
    132          1           0       -8.347490   -2.049312   -3.551187
    133          1           0       -8.830293   -3.172296   -2.227926
    134          1           0       -7.324758   -4.653891   -4.137307
    135          1           0       -8.182634   -3.475961   -5.065431
    136          1           0       -5.738954    2.395530   -5.370626
    137          1           0       -5.123611    4.002618   -5.176122
    138          1           0       -6.880589    3.805374   -5.378340
    139          1           0       -5.715249    6.077153   -4.608988
    140          1           0       -6.702977    7.465009   -3.870771
    141          1           0       -7.444321    5.920283   -4.378366
    142          1           0       -6.152015    5.350795    2.599900
    143          1           0       -4.944295    3.292088    4.377521
    144          1           0       -4.053390    6.157056    2.873453
    145          1           0       -3.472723    4.763938    1.894634
    146          1           0       -3.517417    4.634555    3.578941
    147          1           0       -6.645501    4.996251    5.134836
    148          1           0       -6.953671    3.354301    5.667748
    149          1           0       -8.223209    5.048992    3.643290
    150          1           0       -9.034915    4.022037    4.880752
    151          1           0       -8.351537    3.311865    3.350071
    152          1           0       -7.413866   -2.427107    5.382021
    153          1           0       -6.623359   -0.845668    5.682621
    154          1           0       -5.619536   -2.233459    5.100699
    155          1           0       -6.217121   -4.415361    0.497794
    156          1           0       -8.955333   -7.540750   -0.649827
    157          1           0       -9.069858   -6.361529   -2.105950
    158          1           0      -10.063388   -6.273114   -0.630371
 ---------------------------------------------------------------------

 SCF Done:  E(RCAM-B3LYP) =  -4069.81177252     A.U. after   19 cycles

 Excitation energies and oscillator strengths:

 Excited State   1:      Singlet-A      1.6657 eV  744.33 nm  f=0.0091  <S**2>=0.000
     309 -> 315        0.10924
     310 -> 316        0.13226
     311 -> 313        0.43612
     312 -> 314        0.53033
 This state for optimization and/or second-order correction.
 Total Energy, E(TD-HF/TD-DFT) =  -4069.75055899
 Copying the excited state density for this state as the 1-particle RhoCI density.

 Excited State   2:      Singlet-A      1.6898 eV  733.74 nm  f=0.7343  <S**2>=0.000
     309 -> 315        0.13755
     310 -> 316       -0.11264
     311 -> 313        0.52913
     312 -> 314       -0.43521

 Excited State   3:      Singlet-A      2.1855 eV  567.32 nm  f=0.0385  <S**2>=0.000
     309 -> 313        0.20703
     310 -> 314        0.60900
     312 -> 316       -0.25767

 Excited State   4:      Singlet-A      2.1939 eV  565.12 nm  f=0.1501  <S**2>=0.000
     309 -> 313        0.60640
     310 -> 314       -0.20526
     311 -> 315       -0.26440

 Excited State   5:      Singlet-A      2.6507 eV  467.73 nm  f=0.0000  <S**2>=0.000
     312 -> 313        0.70710

 The electronic state is 1-A.
 Alpha  occ. eigenvalues --  -46.87852 -46.87552 -19.26319 -19.26273 -19.19082
 Alpha  occ. eigenvalues --  -19.19059 -19.18842 -19.18588 -19.18220 -19.17959
 Alpha  occ. eigenvalues --  -14.42503 -14.42390 -14.41509 -14.41252 -14.39455
 Alpha  occ. eigenvalues --  -14.39241 -14.38644 -14.38496 -10.39120 -10.39010
 Alpha  occ. eigenvalues --  -10.35473 -10.35263 -10.34440 -10.34137 -10.31706
 Alpha  occ. eigenvalues --  -10.31689 -10.31460 -10.31208 -10.30954 -10.30910
 Alpha  occ. eigenvalues --  -10.30627 -10.30564 -10.30293 -10.30266 -10.30260
 Alpha  occ. eigenvalues --  -10.30030 -10.29985 -10.29792 -10.29683 -10.29323
 Alpha  occ. eigenvalues --  -10.29306 -10.29297 -10.28791 -10.28618 -10.28577
 Alpha  occ. eigenvalues --  -10.28574 -10.28414 -10.28295 -10.28160 -10.28035
 Alpha  occ. eigenvalues --  -10.27896 -10.27845 -10.27780 -10.27632 -10.27585
 Alpha  occ. eigenvalues --  -10.27559 -10.27524 -10.27510 -10.27455 -10.27425
 Alpha  occ. eigenvalues --  -10.27378 -10.27356 -10.27333 -10.27270 -10.27204
 Alpha  occ. eigenvalues --  -10.26957 -10.26745 -10.26604 -10.26409 -10.26301
 Alpha  occ. eigenvalues --  -10.26275 -10.26274 -10.26083 -10.26068 -10.25919
 Alpha  occ. eigenvalues --  -10.25905 -10.25835 -10.25790 -10.25500 -10.25265
 Alpha  occ. eigenvalues --  -10.24886 -10.24843 -10.24830 -10.24771 -10.24663
 Alpha  occ. eigenvalues --  -10.24579  -3.16595  -3.16302  -1.91477  -1.91184
 Alpha  occ. eigenvalues --   -1.91063  -1.90906  -1.90773  -1.90610  -1.16669
 Alpha  occ. eigenvalues --   -1.16566  -1.08678  -1.08569  -1.07242  -1.06867
 Alpha  occ. eigenvalues --   -1.06838  -1.06682  -1.04633  -1.04388  -1.03818
 Alpha  occ. eigenvalues --   -1.03556  -1.03289  -1.02932  -1.02467  -1.02005
 Alpha  occ. eigenvalues --   -0.92024  -0.91885  -0.89595  -0.89397  -0.89233
 Alpha  occ. eigenvalues --   -0.89049  -0.88360  -0.88120  -0.87931  -0.87726
 Alpha  occ. eigenvalues --   -0.87704  -0.87579  -0.87311  -0.87000  -0.85028
 Alpha  occ. eigenvalues --   -0.84898  -0.84017  -0.83780  -0.83005  -0.82812
 Alpha  occ. eigenvalues --   -0.82691  -0.82546  -0.81633  -0.81507  -0.80643
 Alpha  occ. eigenvalues --   -0.80343  -0.78843  -0.78526  -0.77278  -0.77044
 Alpha  occ. eigenvalues --   -0.76986  -0.76803  -0.75970  -0.75739  -0.74962
 Alpha  occ. eigenvalues --   -0.74696  -0.72833  -0.72599  -0.71726  -0.71474
 Alpha  occ. eigenvalues --   -0.69999  -0.69668  -0.68919  -0.68726  -0.67690
 Alpha  occ. eigenvalues --   -0.67498  -0.67259  -0.67097  -0.65336  -0.65173
 Alpha  occ. eigenvalues --   -0.64908  -0.64676  -0.64671  -0.64556  -0.64339
 Alpha  occ. eigenvalues --   -0.64107  -0.62345  -0.62190  -0.60489  -0.60225
 Alpha  occ. eigenvalues --   -0.59852  -0.59694  -0.59044  -0.58890  -0.58558
 Alpha  occ. eigenvalues --   -0.58325  -0.57633  -0.57464  -0.57365  -0.57133
 Alpha  occ. eigenvalues --   -0.56360  -0.56105  -0.56019  -0.55796  -0.55562
 Alpha  occ. eigenvalues --   -0.55406  -0.55347  -0.55154  -0.54585  -0.54398
 Alpha  occ. eigenvalues --   -0.53940  -0.53811  -0.53351  -0.53261  -0.53126
 Alpha  occ. eigenvalues --   -0.53038  -0.52966  -0.52806  -0.52790  -0.52546
 Alpha  occ. eigenvalues --   -0.52534  -0.52320  -0.51980  -0.51809  -0.51656
 Alpha  occ. eigenvalues --   -0.51555  -0.51255  -0.51108  -0.50601  -0.50351
 Alpha  occ. eigenvalues --   -0.50105  -0.49956  -0.49869  -0.49760  -0.49554
 Alpha  occ. eigenvalues --   -0.49377  -0.49261  -0.49142  -0.49099  -0.49006
 Alpha  occ. eigenvalues --   -0.48643  -0.48521  -0.48481  -0.48462  -0.48275
 Alpha  occ. eigenvalues --   -0.48221  -0.47744  -0.47489  -0.47344  -0.47006
 Alpha  occ. eigenvalues --   -0.46859  -0.46611  -0.46599  -0.46452  -0.46416
 Alpha  occ. eigenvalues --   -0.46222  -0.46167  -0.45989  -0.45876  -0.45736
 Alpha  occ. eigenvalues --   -0.45268  -0.45097  -0.44632  -0.44553  -0.44421
 Alpha  occ. eigenvalues --   -0.44375  -0.44208  -0.44134  -0.44061  -0.44026
 Alpha  occ. eigenvalues --   -0.43978  -0.43830  -0.43545  -0.43466  -0.43440
 Alpha  occ. eigenvalues --   -0.43284  -0.43083  -0.42842  -0.42806  -0.42762
 Alpha  occ. eigenvalues --   -0.42716  -0.42453  -0.42082  -0.41873  -0.41758
 Alpha  occ. eigenvalues --   -0.41582  -0.41570  -0.41361  -0.41193  -0.40928
 Alpha  occ. eigenvalues --   -0.40883  -0.40854  -0.40641  -0.40618  -0.40588
 Alpha  occ. eigenvalues --   -0.40396  -0.40273  -0.40127  -0.39540  -0.39339
 Alpha  occ. eigenvalues --   -0.38539  -0.38249  -0.37794  -0.37560  -0.37387
 Alpha  occ. eigenvalues --   -0.37310  -0.37167  -0.37097  -0.36763  -0.36688
 Alpha  occ. eigenvalues --   -0.36248  -0.36120  -0.34342  -0.34150  -0.33812
 Alpha  occ. eigenvalues --   -0.33778  -0.33241  -0.33070  -0.31373  -0.31147
 Alpha  occ. eigenvalues --   -0.31088  -0.30865  -0.30080  -0.29865  -0.29497
 Alpha  occ. eigenvalues --   -0.29376  -0.29215  -0.29109  -0.24136  -0.23929
 Alpha  occ. eigenvalues --   -0.21183  -0.21010
 Alpha virt. eigenvalues --   -0.08826  -0.08684  -0.01804  -0.01574  -0.00098
 Alpha virt. eigenvalues --    0.00088   0.02146   0.02305   0.03053   0.03323
 Alpha virt. eigenvalues --    0.04667   0.04834   0.05057   0.05248   0.06135

 Mulliken charges:
               1
     1  Mg   0.838515
     2  C   -0.002872
     3  C   -0.093996
     4  C   -0.045905
     5  C   -0.064191
     6  N   -0.256757
     7  C   -0.052514
     8  C   -0.013999
     9  C   -0.087021
    10  C    0.046344
    11  C    0.104777
    12  C    0.053453
    13  C   -0.071870
    14  H    0.036211
    15  N   -0.433208
    16  C    0.168478
    17  C   -0.176937
    18  C   -0.003824
    19  C    0.148745
    20  C    0.110126
    21  C    0.012472
    22  O   -0.249485
    23  C    0.062370
    24  N   -0.341053
    25  C    0.041215
    26  C   -0.028229
    27  C   -0.023880
    28  C    0.074645
    29  C    0.076123
    30  C    0.035264
    31  C   -0.004401
    32  N   -0.310387
    33  C    0.080175
    34  C   -0.170113
    35  C    0.008364
    36  C    0.082815
    37  C    0.127406
    38  C    0.045993
    39  O   -0.188500
    40  C   -0.005292
    41  C    0.212893
    42  O   -0.257127
    43  O   -0.304801
    44  C    0.157593
    45  H   -0.017369
    46  H   -0.016731
    47  H   -0.041898
    48  H    0.001026
    49  H   -0.003913
    50  H    0.025517
    51  H    0.016468
    52  H    0.016826
    53  H    0.011141
    54  H    0.044120
    55  H    0.017967
    56  H    0.017970
    57  H    0.005928
    58  H    0.027081
    59  H    0.039927
    60  H    0.037367
    61  H    0.036254
    62  H    0.031795
    63  H    0.016438
    64  H    0.009502
    65  H    0.023306
    66  H    0.012789
    67  H    0.004745
    68  H    0.006279
    69  H    0.004394
    70  H    0.008908
    71  H    0.016690
    72  H    0.029254
    73  H    0.047219
    74  H    0.008661
    75  H    0.046120
    76  H    0.035238
    77  H    0.043058
    78  H    0.046438
    79  H    0.053873
    80  Mg   0.838004
    81  C   -0.016859
    82  C   -0.087535
    83  C   -0.044937
    84  C   -0.064991
    85  N   -0.254572
    86  C   -0.049925
    87  C   -0.015084
    88  C   -0.090550
    89  C    0.045811
    90  C    0.114253
    91  C    0.062561
    92  C   -0.077777
    93  H    0.034561
    94  N   -0.423674
    95  C    0.163090
    96  C   -0.173916
    97  C   -0.007364
    98  C    0.152270
    99  C    0.099053
   100  C    0.015974
   101  O   -0.252956
   102  C    0.061120
   103  N   -0.349964
   104  C    0.037774
   105  C   -0.020003
   106  C   -0.034543
   107  C    0.088807
   108  C    0.073429
   109  C    0.034826
   110  C   -0.007608
   111  N   -0.323992
   112  C    0.078293
   113  C   -0.163524
   114  C    0.002112
   115  C    0.096073
   116  C    0.131537
   117  C    0.042131
   118  O   -0.188413
   119  C    0.000965
   120  C    0.211182
   121  O   -0.251162
   122  O   -0.305561
   123  C    0.152119
   124  H   -0.019273
   125  H   -0.015228
   126  H   -0.041067
   127  H   -0.000695
   128  H   -0.004494
   129  H    0.022594
   130  H    0.015226
   131  H    0.016042
   132  H    0.013868
   133  H    0.037545
   134  H    0.020754
   135  H    0.019528
   136  H    0.008752
   137  H    0.027269
   138  H    0.039623
   139  H    0.038969
   140  H    0.036415
   141  H    0.033515
   142  H    0.014208
   143  H    0.011978
   144  H    0.025007
   145  H    0.013287
   146  H    0.005276
   147  H    0.005978
   148  H    0.003164
   149  H    0.010957
   150  H    0.017565
   151  H    0.030249
   152  H    0.045682
   153  H    0.008116
   154  H    0.046392
   155  H    0.035121
   156  H    0.043764
   157  H    0.049470
   158  H    0.053410
 Sum of Mulliken charges =  -0.00000

 Dipole moment (field-independent basis, Debye):
    X=              4.0338    Y=             -0.5892    Z=              0.0690  Tot=              4.0772
 Quadrupole moment (field-independent basis, Debye-Ang):
   XX=           -522.4892   YY=           -549.3346   ZZ=           -447.5645
   XY=            -21.9019   XZ=             62.1080   YZ=             44.6589

 Normal termination of Gaussian 16 at Sat Sep 11 06:48:32 2021.
