 Gaussian 16, Revision A.03,
 Gaussian 16:  ES64L-G16RevA.03 25-Dec-2016

 -----------------------------------
 #p cam-b3lyp/Def2SVP td=(nstates=5)
 -----------------------------------

 --------------------------------
 TDDFT excited states in gaussian
 --------------------------------
 Symbolic Z-matrix:
 Charge =  0 Multiplicity = 1

                         Standard orientation:
 ---------------------------------------------------------------------
 Center     Atomic      Atomic             Coordinates (Angstroms)
 Number     Number       Type             X           Y           Z
 ---------------------------------------------------------------------
      1         12           0        4.834755    1.346666    0.646936
      2          6           0        5.565550   -2.109874    0.072062
      3          6           0        5.944648    1.954780   -2.521880
      4          6           0        4.626800    4.445964    1.285474
      5          6           0        4.867762    0.634034    4.058201
      6          7           0        5.627913    0.009091   -0.928639
      7          6           0        5.801050   -1.303879   -1.043983
      8          6           0        6.184168   -1.752198   -2.486066
      9          6           0        6.812682   -0.386040   -3.015765
     10          6           0        6.058835    0.588437   -2.128053
     11          6           0        8.305834   -0.252792   -2.734262
     12          6           0        4.933971   -2.172758   -3.329788
     13          6           0        5.244147   -2.927114   -4.625972
     14          1           0        4.338541   -3.981617   -5.056376
     15          7           0        4.760291    2.902849   -0.567806
     16          6           0        5.247393    2.968829   -1.830210
     17          6           0        4.946377    4.333956   -2.312392
     18          6           0        4.414444    5.115926   -1.161885
     19          6           0        4.606264    4.181899   -0.081989
     20          6           0        5.121480    4.760467   -3.737586
     21          6           0        3.836215    6.491258   -1.051225
     22          8           0        3.650402    7.062177    0.077535
     23          6           0        3.571845    7.196646   -2.318339
     24          7           0        4.974343    2.444327    2.417047
     25          6           0        4.788051    3.768800    2.424198
     26          6           0        4.654399    4.293844    3.822913
     27          6           0        4.545081    3.011377    4.767943
     28          6           0        4.727335    1.910627    3.693977
     29          6           0        5.798317    5.192567    4.312565
     30          6           0        3.313693    2.931139    5.704779
     31          6           0        2.055694    2.752420    4.884659
     32          7           0        4.979552   -0.438516    1.872989
     33          6           0        4.995510   -0.500188    3.273923
     34          6           0        5.217005   -1.910763    3.641737
     35          6           0        5.331799   -2.573400    2.421254
     36          6           0        5.217145   -1.632120    1.358645
     37          6           0        5.346113   -2.416455    4.965384
     38          6           0        5.549247   -3.853941    1.767963
     39          8           0        5.621085   -5.022215    2.151979
     40          6           0        5.830965   -3.587086    0.223538
     41          6           0        4.975128   -4.539845   -0.565831
     42          8           0        3.731469   -4.436608   -0.561306
     43          8           0        5.754488   -5.265321   -1.382425
     44          6           0        4.964344   -6.210499   -2.215771
     45          1           0        6.485125    2.295897   -3.407016
     46          1           0        4.447026    5.489897    1.550658
     47          1           0        4.805592    0.323335    5.102736
     48          1           0        6.928770   -2.547099   -2.532157
     49          1           0        6.573054   -0.207213   -4.063773
     50          1           0        8.665686   -1.063327   -2.100653
     51          1           0        8.422278    0.706030   -2.228698
     52          1           0        8.869571   -0.171714   -3.663996
     53          1           0        4.462325   -1.280956   -3.742463
     54          1           0        4.241888   -2.761573   -2.726759
     55          1           0        6.276196   -3.278402   -4.645476
     56          1           0        5.182360   -2.221797   -5.454773
     57          1           0        5.683219    4.023409   -4.310072
     58          1           0        5.760869    5.642978   -3.729570
     59          1           0        4.170684    4.999682   -4.214132
     60          1           0        4.501875    7.288988   -2.879646
     61          1           0        3.077382    8.128486   -2.046257
     62          1           0        2.904471    6.587696   -2.928865
     63          1           0        3.752325    4.894771    3.930508
     64          1           0        5.397878    2.926003    5.441829
     65          1           0        5.469936    6.178250    4.643168
     66          1           0        6.530732    5.273244    3.509850
     67          1           0        6.401697    4.768240    5.114623
     68          1           0        3.202313    3.858933    6.264904
     69          1           0        3.372826    2.114409    6.424297
     70          1           0        1.805957    3.772914    4.596466
     71          1           0        1.264103    2.313733    5.493057
     72          1           0        2.253212    2.194374    3.969204
     73          1           0        4.759537   -3.334451    4.999766
     74          1           0        4.994399   -1.693838    5.701403
     75          1           0        6.423246   -2.574492    5.017001
     76          1           0        6.894222   -3.763422    0.063810
     77          1           0        5.367035   -7.207938   -2.039165
     78          1           0        4.995554   -5.825428   -3.235159
     79          1           0        3.923067   -6.354573   -1.925385
     80         12           0       -5.604537   -0.076110   -0.369118
     81          6           0       -3.398785   -2.902185   -0.204511
     82          6           0       -3.371148    1.353098   -2.514798
     83          6           0       -7.294433    2.603110   -0.186216
     84          6           0       -7.045955   -1.204116    2.596629
     85          7           0       -3.671639   -0.782435   -1.179845
     86          6           0       -2.963635   -1.898615   -1.094987
     87          6           0       -1.763039   -1.974887   -2.075968
     88          6           0       -1.536761   -0.401156   -2.301877
     89          6           0       -2.953652    0.092861   -2.017216
     90          6           0       -0.599044    0.224437   -1.282728
     91          6           0       -2.132290   -2.700490   -3.417291
     92          6           0       -0.936169   -3.084324   -4.291206
     93          1           0       -1.003049   -4.326594   -5.055905
     94          7           0       -5.641414    1.503504   -1.569951
     95          6           0       -4.656123    1.925455   -2.389983
     96          6           0       -5.168168    3.140712   -3.042009
     97          6           0       -6.471877    3.494302   -2.417496
     98          6           0       -6.510664    2.538346   -1.329053
     99          6           0       -4.472959    3.798016   -4.198762
    100          6           0       -7.505806    4.530843   -2.738112
    101          8           0       -8.449149    4.816861   -1.918891
    102          6           0       -7.327518    5.266804   -3.998298
    103          7           0       -6.828648    0.720557    1.110476
    104          6           0       -7.487207    1.876373    0.914697
    105          6           0       -8.513920    2.109323    1.997281
    106          6           0       -8.575740    0.746154    2.831257
    107          6           0       -7.460908   -0.042628    2.109880
    108          6           0       -8.228130    3.273396    2.945772
    109          6           0       -9.969958    0.079599    2.987964
    110          6           0      -10.455747   -0.422185    1.647216
    111          7           0       -5.429800   -1.833875    0.874984
    112          6           0       -6.106869   -2.091730    2.087080
    113          6           0       -5.573457   -3.361200    2.622194
    114          6           0       -4.599041   -3.745116    1.688592
    115          6           0       -4.515874   -2.772570    0.655764
    116          6           0       -5.961174   -3.976392    3.845854
    117          6           0       -3.614445   -4.746571    1.347493
    118          8           0       -3.297116   -5.843897    1.804573
    119          6           0       -2.704878   -4.181517    0.172846
    120          6           0       -2.586508   -5.250814   -0.878393
    121          8           0       -3.585320   -5.617485   -1.522238
    122          8           0       -1.284652   -5.507712   -1.100982
    123          6           0       -1.115595   -6.554194   -2.144106
    124          1           0       -2.634459    1.984307   -3.012535
    125          1           0       -7.977048    3.454214   -0.130243
    126          1           0       -7.512125   -1.672776    3.465947
    127          1           0       -0.867381   -2.423900   -1.663689
    128          1           0       -1.257228   -0.185870   -3.329927
    129          1           0       -0.331586   -0.471075   -0.501153
    130          1           0       -1.134460    1.069536   -0.870212
    131          1           0        0.279660    0.640028   -1.784237
    132          1           0       -2.631390   -1.986481   -4.085004
    133          1           0       -2.734617   -3.567684   -3.228054
    134          1           0        0.011845   -3.020879   -3.743310
    135          1           0       -0.835809   -2.342557   -5.087282
    136          1           0       -3.454697    3.411134   -4.328631
    137          1           0       -4.331469    4.850587   -3.930570
    138          1           0       -5.051044    3.743613   -5.123711
    139          1           0       -6.363190    5.769266   -3.989730
    140          1           0       -8.212177    5.899165   -4.095077
    141          1           0       -7.299624    4.546261   -4.823307
    142          1           0       -9.489678    2.304071    1.569409
    143          1           0       -8.239498    0.887710    3.868915
    144          1           0       -9.042465    4.021739    2.976098
    145          1           0       -7.297087    3.736462    2.646989
    146          1           0       -8.024551    2.989633    3.976905
    147          1           0      -10.704284    0.813323    3.329378
    148          1           0       -9.979391   -0.740132    3.698557
    149          1           0      -10.893442    0.471781    1.192986
    150          1           0      -11.201347   -1.203870    1.777980
    151          1           0       -9.615754   -0.734987    1.016165
    152          1           0       -6.070012   -5.033350    3.642155
    153          1           0       -6.883986   -3.547918    4.231349
    154          1           0       -5.099938   -3.726515    4.471241
    155          1           0       -1.737082   -3.922125    0.603742
    156          1           0       -0.504974   -7.348511   -1.703772
    157          1           0       -0.702001   -6.031748   -3.027133
    158          1           0       -1.996943   -7.107777   -2.446148
 ---------------------------------------------------------------------

 SCF Done:  E(RCAM-B3LYP) =  -4069.81135197     A.U. after   19 cycles

 Excitation energies and oscillator strengths:

 Excited State   1:      Singlet-A      1.6547 eV  749.30 nm  f=0.0018  <S**2>=0.000
     309 -> 315       -0.11622
     310 -> 316        0.12193
     311 -> 313       -0.47166
     312 -> 314        0.49991
 This state for optimization and/or second-order correction.
 Total Energy, E(TD-HF/TD-DFT) =  -4069.75054399
 Copying the excited state density for this state as the 1-particle RhoCI density.

 Excited State   2:      Singlet-A      1.6975 eV  730.41 nm  f=0.7118  <S**2>=0.000
     309 -> 315        0.13118
     310 -> 316        0.12254
     311 -> 313        0.49784
     312 -> 314        0.46982

 Excited State   3:      Singlet-A      2.1825 eV  568.08 nm  f=0.0570  <S**2>=0.000
     309 -> 313        0.21647
     310 -> 314        0.60638
     312 -> 316       -0.25462

 Excited State   4:      Singlet-A      2.1942 eV  565.05 nm  f=0.1342  <S**2>=0.000
     309 -> 313        0.60285
     310 -> 314       -0.21388
     311 -> 315       -0.26389

 Excited State   5:      Singlet-A      2.4066 eV  515.18 nm  f=0.0000  <S**2>=0.000
     312 -> 313        0.70672

 The electronic state is 1-A.
 Alpha  occ. eigenvalues --  -46.88051 -46.87438 -19.26500 -19.25831 -19.19237
 Alpha  occ. eigenvalues --  -19.19057 -19.18740 -19.18539 -19.18349 -19.17732
 Alpha  occ. eigenvalues --  -14.42705 -14.42267 -14.41683 -14.41139 -14.39656
 Alpha  occ. eigenvalues --  -14.39134 -14.38826 -14.38369 -10.39296 -10.38657
 Alpha  occ. eigenvalues --  -10.35693 -10.35221 -10.34573 -10.33897 -10.31902
 Alpha  occ. eigenvalues --  -10.31645 -10.31296 -10.31176 -10.31058 -10.30803
 Alpha  occ. eigenvalues --  -10.30771 -10.30735 -10.30440 -10.30172 -10.30130
 Alpha  occ. eigenvalues --  -10.30123 -10.29953 -10.29858 -10.29674 -10.29498
 Alpha  occ. eigenvalues --  -10.29238 -10.29181 -10.29038 -10.28878 -10.28610
 Alpha  occ. eigenvalues --  -10.28389 -10.28380 -10.28374 -10.28162 -10.28016
 Alpha  occ. eigenvalues --  -10.27973 -10.27881 -10.27824 -10.27775 -10.27757
 Alpha  occ. eigenvalues --  -10.27682 -10.27645 -10.27629 -10.27456 -10.27368
 Alpha  occ. eigenvalues --  -10.27354 -10.27336 -10.27252 -10.27227 -10.27204
 Alpha  occ. eigenvalues --  -10.27077 -10.26684 -10.26639 -10.26458 -10.26417
 Alpha  occ. eigenvalues --  -10.26336 -10.26288 -10.26242 -10.25994 -10.25974
 Alpha  occ. eigenvalues --  -10.25767 -10.25727 -10.25640 -10.25594 -10.25244
 Alpha  occ. eigenvalues --  -10.25051 -10.25015 -10.24841 -10.24633 -10.24591
 Alpha  occ. eigenvalues --  -10.24469  -3.16795  -3.16188  -1.91677  -1.91263
 Alpha  occ. eigenvalues --   -1.91105  -1.91070  -1.90659  -1.90496  -1.16848
 Alpha  occ. eigenvalues --   -1.16153  -1.08802  -1.08320  -1.07458  -1.06857
 Alpha  occ. eigenvalues --   -1.06794  -1.06516  -1.04834  -1.04256  -1.03998
 Alpha  occ. eigenvalues --   -1.03471  -1.03437  -1.02821  -1.02647  -1.01887
 Alpha  occ. eigenvalues --   -0.92201  -0.91707  -0.89724  -0.89462  -0.89287
 Alpha  occ. eigenvalues --   -0.88880  -0.88487  -0.88070  -0.88028  -0.87923
 Alpha  occ. eigenvalues --   -0.87568  -0.87525  -0.87453  -0.86938  -0.85249
 Alpha  occ. eigenvalues --   -0.84750  -0.84125  -0.83678  -0.83209  -0.82898
 Alpha  occ. eigenvalues --   -0.82764  -0.82406  -0.81810  -0.81269  -0.80833
 Alpha  occ. eigenvalues --   -0.80162  -0.79034  -0.78435  -0.77450  -0.77171
 Alpha  occ. eigenvalues --   -0.76921  -0.76625  -0.76157  -0.75556  -0.75096
 Alpha  occ. eigenvalues --   -0.74586  -0.72995  -0.72477  -0.71897  -0.71341
 Alpha  occ. eigenvalues --   -0.70090  -0.69583  -0.69128  -0.68584  -0.67873
 Alpha  occ. eigenvalues --   -0.67509  -0.67366  -0.66963  -0.65549  -0.65082
 Alpha  occ. eigenvalues --   -0.64988  -0.64854  -0.64529  -0.64475  -0.64366
 Alpha  occ. eigenvalues --   -0.63991  -0.62516  -0.61914  -0.60679  -0.60147
 Alpha  occ. eigenvalues --   -0.60063  -0.59528  -0.59212  -0.58748  -0.58726
 Alpha  occ. eigenvalues --   -0.58167  -0.57796  -0.57522  -0.57216  -0.56988
 Alpha  occ. eigenvalues --   -0.56533  -0.56213  -0.55979  -0.55755  -0.55536
 Alpha  occ. eigenvalues --   -0.55534  -0.55198  -0.54990  -0.54723  -0.54190
 Alpha  occ. eigenvalues --   -0.54170  -0.53649  -0.53533  -0.53472  -0.53141
 Alpha  occ. eigenvalues --   -0.53017  -0.53008  -0.52886  -0.52617  -0.52614
 Alpha  occ. eigenvalues --   -0.52469  -0.52218  -0.52089  -0.51887  -0.51657
 Alpha  occ. eigenvalues --   -0.51410  -0.51408  -0.50937  -0.50836  -0.50318
 Alpha  occ. eigenvalues --   -0.50242  -0.50157  -0.49774  -0.49764  -0.49678
 Alpha  occ. eigenvalues --   -0.49441  -0.49330  -0.49264  -0.48944  -0.48835
 Alpha  occ. eigenvalues --   -0.48809  -0.48690  -0.48645  -0.48285  -0.48183
 Alpha  occ. eigenvalues --   -0.48103  -0.47931  -0.47525  -0.47356  -0.47020
 Alpha  occ. eigenvalues --   -0.46906  -0.46822  -0.46580  -0.46487  -0.46368
 Alpha  occ. eigenvalues --   -0.46312  -0.46056  -0.46021  -0.45833  -0.45527
 Alpha  occ. eigenvalues --   -0.45399  -0.45004  -0.44794  -0.44742  -0.44365
 Alpha  occ. eigenvalues --   -0.44336  -0.44244  -0.44243  -0.44237  -0.43890
 Alpha  occ. eigenvalues --   -0.43867  -0.43709  -0.43685  -0.43627  -0.43255
 Alpha  occ. eigenvalues --   -0.43246  -0.43123  -0.42911  -0.42851  -0.42671
 Alpha  occ. eigenvalues --   -0.42487  -0.42364  -0.42222  -0.41923  -0.41792
 Alpha  occ. eigenvalues --   -0.41741  -0.41398  -0.41369  -0.41211  -0.41121
 Alpha  occ. eigenvalues --   -0.41082  -0.40773  -0.40753  -0.40554  -0.40522
 Alpha  occ. eigenvalues --   -0.40476  -0.40275  -0.39946  -0.39623  -0.39255
 Alpha  occ. eigenvalues --   -0.38683  -0.38155  -0.38041  -0.37537  -0.37531
 Alpha  occ. eigenvalues --   -0.37410  -0.37056  -0.36951  -0.36924  -0.36412
 Alpha  occ. eigenvalues --   -0.36401  -0.35929  -0.34522  -0.34020  -0.33992
 Alpha  occ. eigenvalues --   -0.33483  -0.33420  -0.32939  -0.31585  -0.31272
 Alpha  occ. eigenvalues --   -0.31096  -0.30734  -0.30208  -0.29693  -0.29624
 Alpha  occ. eigenvalues --   -0.29541  -0.29117  -0.28974  -0.24322  -0.23800
 Alpha  occ. eigenvalues --   -0.21364  -0.20896
 Alpha virt. eigenvalues --   -0.09010  -0.08567  -0.01991  -0.01468  -0.00304
 Alpha virt. eigenvalues --    0.00177   0.01991   0.02435   0.02553   0.03433
 Alpha virt. eigenvalues --    0.04449   0.04866   0.04985   0.05578   0.05786

 Mulliken charges:
               1
     1  Mg   0.834519
     2  C   -0.003605
     3  C   -0.094954
     4  C   -0.045449
     5  C   -0.063402
     6  N   -0.256731
     7  C   -0.053285
     8  C   -0.013457
     9  C   -0.086666
    10  C    0.045225
    11  C    0.104693
    12  C    0.053286
    13  C   -0.071789
    14  H    0.035689
    15  N   -0.433366
    16  C    0.167165
    17  C   -0.178220
    18  C   -0.004578
    19  C    0.148390
    20  C    0.110245
    21  C    0.011764
    22  O   -0.248987
    23  C    0.062985
    24  N   -0.340905
    25  C    0.040983
    26  C   -0.028229
    27  C   -0.024197
    28  C    0.074947
    29  C    0.075990
    30  C    0.034919
    31  C   -0.004532
    32  N   -0.310859
    33  C    0.080587
    34  C   -0.168640
    35  C    0.009137
    36  C    0.082689
    37  C    0.126958
    38  C    0.047127
    39  O   -0.186400
    40  C   -0.005805
    41  C    0.213437
    42  O   -0.257332
    43  O   -0.304564
    44  C    0.157376
    45  H   -0.017548
    46  H   -0.016426
    47  H   -0.040464
    48  H    0.001737
    49  H   -0.004528
    50  H    0.025907
    51  H    0.016869
    52  H    0.017014
    53  H    0.008793
    54  H    0.042678
    55  H    0.019233
    56  H    0.017841
    57  H    0.005810
    58  H    0.027483
    59  H    0.037685
    60  H    0.037868
    61  H    0.036097
    62  H    0.029417
    63  H    0.016807
    64  H    0.010034
    65  H    0.023625
    66  H    0.012590
    67  H    0.005197
    68  H    0.006923
    69  H    0.005393
    70  H    0.008886
    71  H    0.019054
    72  H    0.028116
    73  H    0.049392
    74  H    0.009679
    75  H    0.046463
    76  H    0.035662
    77  H    0.044028
    78  H    0.045733
    79  H    0.053380
    80  Mg   0.837228
    81  C   -0.017151
    82  C   -0.087759
    83  C   -0.045811
    84  C   -0.065640
    85  N   -0.254466
    86  C   -0.049540
    87  C   -0.017022
    88  C   -0.091493
    89  C    0.045676
    90  C    0.111464
    91  C    0.062658
    92  C   -0.078125
    93  H    0.032047
    94  N   -0.423400
    95  C    0.162654
    96  C   -0.174984
    97  C   -0.008258
    98  C    0.151971
    99  C    0.099771
   100  C    0.015285
   101  O   -0.253688
   102  C    0.061336
   103  N   -0.350159
   104  C    0.037310
   105  C   -0.019648
   106  C   -0.034796
   107  C    0.089234
   108  C    0.073830
   109  C    0.034852
   110  C   -0.007587
   111  N   -0.324259
   112  C    0.078881
   113  C   -0.163569
   114  C    0.002931
   115  C    0.095831
   116  C    0.131536
   117  C    0.042459
   118  O   -0.186132
   119  C    0.001312
   120  C    0.210135
   121  O   -0.253250
   122  O   -0.300372
   123  C    0.154265
   124  H   -0.020937
   125  H   -0.016164
   126  H   -0.040919
   127  H    0.008301
   128  H   -0.006109
   129  H    0.027406
   130  H    0.013644
   131  H    0.016906
   132  H    0.012367
   133  H    0.037623
   134  H    0.026066
   135  H    0.016746
   136  H    0.007419
   137  H    0.025407
   138  H    0.038837
   139  H    0.037867
   140  H    0.035833
   141  H    0.033452
   142  H    0.013985
   143  H    0.012039
   144  H    0.024655
   145  H    0.011760
   146  H    0.005172
   147  H    0.005829
   148  H    0.003457
   149  H    0.010717
   150  H    0.017584
   151  H    0.030385
   152  H    0.046063
   153  H    0.007897
   154  H    0.047188
   155  H    0.041733
   156  H    0.044428
   157  H    0.048030
   158  H    0.051197
 Sum of Mulliken charges =  -0.00000

 Dipole moment (field-independent basis, Debye):
    X=              4.7810    Y=              5.2116    Z=             -4.7132  Tot=              8.4990
 Quadrupole moment (field-independent basis, Debye-Ang):
   XX=           -504.8817   YY=           -566.4259   ZZ=           -452.1207
   XY=              5.6415   XZ=            -36.3367   YZ=             10.7168

 Normal termination of Gaussian 16 at Fri Sep 10 21:10:45 2021.
