 Gaussian 16, Revision A.03,
 Gaussian 16:  ES64L-G16RevA.03 25-Dec-2016

 -----------------------------------
 #p cam-b3lyp/Def2SVP td=(nstates=5)
 -----------------------------------

 --------------------------------
 TDDFT excited states in gaussian
 --------------------------------
 Symbolic Z-matrix:
 Charge =  0 Multiplicity = 1

                         Standard orientation:
 ---------------------------------------------------------------------
 Center     Atomic      Atomic             Coordinates (Angstroms)
 Number     Number       Type             X           Y           Z
 ---------------------------------------------------------------------
      1         12           0       -5.336527   -0.280832    0.301673
      2          6           0       -5.175843    3.255343    0.832580
      3          6           0       -6.328790    0.393933   -2.892567
      4          6           0       -5.922584   -3.376990   -0.054646
      5          6           0       -5.443360   -0.647227    3.765775
      6          7           0       -5.671200    1.623687   -0.776031
      7          6           0       -5.516430    2.909704   -0.477069
      8          6           0       -5.676417    3.853378   -1.706401
      9          6           0       -6.573748    2.913454   -2.630164
     10          6           0       -6.140793    1.560552   -2.093386
     11          6           0       -8.071681    3.078759   -2.394851
     12          6           0       -4.304558    4.182879   -2.385490
     13          6           0       -4.331192    5.345828   -3.381580
     14          1           0       -3.171059    6.219793   -3.468900
     15          7           0       -5.549359   -1.364254   -1.336543
     16          6           0       -5.945999   -0.922034   -2.554083
     17          6           0       -5.946445   -2.107509   -3.438011
     18          6           0       -5.701214   -3.307249   -2.590320
     19          6           0       -5.741166   -2.726180   -1.272693
     20          6           0       -6.115525   -2.025736   -4.924105
     21          6           0       -5.478319   -4.750395   -2.915556
     22          8           0       -5.516177   -5.662957   -2.020920
     23          6           0       -5.299952   -5.082691   -4.340619
     24          7           0       -5.861618   -1.790430    1.644442
     25          6           0       -5.998621   -3.057639    1.238984
     26          6           0       -6.095427   -3.996499    2.404792
     27          6           0       -5.750726   -3.129340    3.700542
     28          6           0       -5.586605   -1.746769    3.022433
     29          6           0       -7.453307   -4.685520    2.598236
     30          6           0       -4.606571   -3.646000    4.608501
     31          6           0       -3.286715   -3.548070    3.876731
     32          7           0       -5.137825    1.027419    2.022150
     33          6           0       -5.239289    0.665036    3.373097
     34          6           0       -5.142744    1.907004    4.161933
     35          6           0       -5.007580    2.913912    3.208145
     36          6           0       -5.045326    2.340221    1.905169
     37          6           0       -5.241981    2.004723    5.577927
     38          6           0       -4.864780    4.343629    2.985946
     39          8           0       -4.682459    5.320410    3.714061
     40          6           0       -5.090322    4.634924    1.436719
     41          6           0       -3.976903    5.536127    0.976892
     42          8           0       -2.797703    5.129180    0.941585
     43          8           0       -4.499249    6.644840    0.430583
     44          6           0       -3.448090    7.568757   -0.073001
     45          1           0       -6.870073    0.482414   -3.836561
     46          1           0       -6.017341   -4.462404   -0.127702
     47          1           0       -5.383958   -0.692377    4.854759
     48          1           0       -6.203918    4.784575   -1.498944
     49          1           0       -6.309121    3.005602   -3.683351
     50          1           0       -8.271780    3.722967   -1.538769
     51          1           0       -8.450189    2.073030   -2.211185
     52          1           0       -8.570067    3.425755   -3.300380
     53          1           0       -4.031543    3.369259   -3.057461
     54          1           0       -3.536924    4.369620   -1.633698
     55          1           0       -5.245070    5.932659   -3.284801
     56          1           0       -4.380493    4.931814   -4.388735
     57          1           0       -6.441937   -1.034444   -5.236099
     58          1           0       -6.946353   -2.680385   -5.186533
     59          1           0       -5.217832   -2.339350   -5.457140
     60          1           0       -6.182211   -4.765848   -4.897196
     61          1           0       -5.063675   -6.145656   -4.374238
     62          1           0       -4.464138   -4.504741   -4.736014
     63          1           0       -5.373464   -4.807143    2.315052
     64          1           0       -6.604528   -3.041336    4.372816
     65          1           0       -7.394937   -5.774216    2.604544
     66          1           0       -8.124062   -4.334390    1.814600
     67          1           0       -7.993727   -4.386680    3.496043
     68          1           0       -4.760981   -4.696560    4.852278
     69          1           0       -4.520184   -3.097142    5.546341
     70          1           0       -3.268315   -4.462263    3.284494
     71          1           0       -2.459031   -3.525921    4.586421
     72          1           0       -3.278614   -2.708850    3.180936
     73          1           0       -4.456853    2.692404    5.891992
     74          1           0       -5.127242    1.029780    6.051132
     75          1           0       -6.250863    2.403542    5.682600
     76          1           0       -6.066189    5.110942    1.346087
     77          1           0       -3.612083    8.533640    0.406937
     78          1           0       -3.497115    7.530157   -1.161354
     79          1           0       -2.426248    7.353546    0.241423
     80         12           0        5.189050   -1.276470   -0.286456
     81          6           0        6.266276    2.123594    0.111276
     82          6           0        3.451128   -0.247264   -3.035084
     83          6           0        3.864782   -4.157386   -0.405118
     84          6           0        6.044731   -1.792085    3.052349
     85          7           0        4.966303    0.707294   -1.238996
     86          6           0        5.471935    1.914441   -1.035337
     87          6           0        5.171664    2.936430   -2.164476
     88          6           0        3.845570    2.254037   -2.760044
     89          6           0        4.112574    0.805979   -2.354447
     90          6           0        2.570927    2.715208   -2.073059
     91          6           0        6.316805    2.997519   -3.235425
     92          6           0        6.237681    4.187452   -4.194353
     93          1           0        7.483419    4.798206   -4.649986
     94          7           0        4.262475   -2.203609   -1.776580
     95          6           0        3.629407   -1.631934   -2.822365
     96          6           0        3.096008   -2.742773   -3.625895
     97          6           0        3.324058   -4.011460   -2.882166
     98          6           0        3.818064   -3.493250   -1.622199
     99          6           0        2.517232   -2.550289   -4.997533
    100          6           0        3.117992   -5.452079   -3.240440
    101          8           0        3.158367   -6.378437   -2.355529
    102          6           0        2.775143   -5.736625   -4.641508
    103          7           0        4.784511   -2.703402    1.170437
    104          6           0        4.251290   -3.893582    0.843214
    105          6           0        4.306260   -4.854406    2.006920
    106          6           0        5.210230   -4.137005    3.114062
    107          6           0        5.458633   -2.788615    2.403053
    108          6           0        2.958576   -5.235293    2.619336
    109          6           0        6.436192   -4.930235    3.643654
    110          6           0        7.461799   -5.089580    2.544507
    111          7           0        6.175147   -0.135254    1.260569
    112          6           0        6.407169   -0.531221    2.596028
    113          6           0        7.005015    0.624684    3.295249
    114          6           0        7.058536    1.628294    2.316260
    115          6           0        6.512687    1.139238    1.098731
    116          6           0        7.370276    0.667148    4.670339
    117          6           0        7.442905    2.993582    2.038880
    118          8           0        8.036558    3.872634    2.662234
    119          6           0        6.830977    3.415347    0.633872
    120          6           0        7.918315    4.079076   -0.165920
    121          8           0        8.913703    3.432839   -0.537651
    122          8           0        7.503483    5.302009   -0.543698
    123          6           0        8.543629    5.995682   -1.349150
    124          1           0        2.691660    0.009001   -3.774286
    125          1           0        3.521153   -5.194289   -0.420306
    126          1           0        6.429750   -1.903704    4.068215
    127          1           0        4.951430    3.940332   -1.821760
    128          1           0        3.806125    2.345770   -3.842352
    129          1           0        2.778087    3.338771   -1.216090
    130          1           0        2.057558    1.812459   -1.768850
    131          1           0        1.911900    3.208587   -2.793190
    132          1           0        6.185125    2.173003   -3.947869
    133          1           0        7.280365    2.976355   -2.764531
    134          1           0        5.539674    4.956041   -3.840804
    135          1           0        5.804276    3.845089   -5.137201
    136          1           0        2.330639   -1.490424   -5.210294
    137          1           0        1.520940   -3.005511   -4.990976
    138          1           0        3.116907   -3.023579   -5.777966
    139          1           0        1.861834   -5.208160   -4.904287
    140          1           0        2.755593   -6.825186   -4.722289
    141          1           0        3.566906   -5.335281   -5.283880
    142          1           0        4.777808   -5.785564    1.717649
    143          1           0        4.636320   -3.911005    4.024767
    144          1           0        2.773899   -6.326140    2.623881
    145          1           0        2.178435   -4.719814    2.075096
    146          1           0        2.799030   -4.886073    3.638056
    147          1           0        6.136382   -5.939287    3.937062
    148          1           0        6.908138   -4.470987    4.505830
    149          1           0        7.094485   -5.957121    1.988134
    150          1           0        8.447511   -5.278692    2.964811
    151          1           0        7.445836   -4.230516    1.863772
    152          1           0        8.335367    1.153480    4.721254
    153          1           0        7.403461   -0.330209    5.103877
    154          1           0        6.546281    1.262440    5.072736
    155          1           0        5.996524    4.089968    0.829215
    156          1           0        8.743678    6.952381   -0.856812
    157          1           0        8.146549    6.033501   -2.380967
    158          1           0        9.534783    5.558011   -1.371539
 ---------------------------------------------------------------------

 SCF Done:  E(RCAM-B3LYP) =  -4069.81147734     A.U. after   19 cycles

 Excitation energies and oscillator strengths:

 Excited State   1:      Singlet-A      1.6562 eV  748.59 nm  f=0.0336  <S**2>=0.000
     309 -> 315       -0.11297
     310 -> 316        0.12566
     311 -> 313       -0.45749
     312 -> 314        0.51278
 This state for optimization and/or second-order correction.
 Total Energy, E(TD-HF/TD-DFT) =  -4069.75061151
 Copying the excited state density for this state as the 1-particle RhoCI density.

 Excited State   2:      Singlet-A      1.6962 eV  730.96 nm  f=0.6938  <S**2>=0.000
     309 -> 315        0.13453
     310 -> 316        0.11883
     311 -> 313        0.51082
     312 -> 314        0.45581

 Excited State   3:      Singlet-A      2.1823 eV  568.14 nm  f=0.0234  <S**2>=0.000
     309 -> 313       -0.26825
     310 -> 314        0.58582
     311 -> 315        0.11166
     312 -> 316       -0.24524

 Excited State   4:      Singlet-A      2.1946 eV  564.96 nm  f=0.1579  <S**2>=0.000
     309 -> 313        0.58192
     310 -> 314        0.26501
     311 -> 315       -0.25521
     312 -> 316       -0.11697

 Excited State   5:      Singlet-A      2.4681 eV  502.34 nm  f=0.0000  <S**2>=0.000
     312 -> 313        0.70703

 The electronic state is 1-A.
 Alpha  occ. eigenvalues --  -46.87930 -46.87501 -19.26447 -19.26202 -19.19186
 Alpha  occ. eigenvalues --  -19.19014 -19.18925 -19.18592 -19.18292 -19.17886
 Alpha  occ. eigenvalues --  -14.42592 -14.42330 -14.41575 -14.41204 -14.39536
 Alpha  occ. eigenvalues --  -14.39198 -14.38718 -14.38439 -10.39242 -10.38939
 Alpha  occ. eigenvalues --  -10.35560 -10.35274 -10.34515 -10.34060 -10.31847
 Alpha  occ. eigenvalues --  -10.31629 -10.31550 -10.31135 -10.31061 -10.30864
 Alpha  occ. eigenvalues --  -10.30706 -10.30629 -10.30329 -10.30241 -10.30204
 Alpha  occ. eigenvalues --  -10.30033 -10.30000 -10.29759 -10.29737 -10.29385
 Alpha  occ. eigenvalues --  -10.29290 -10.29257 -10.28936 -10.28802 -10.28550
 Alpha  occ. eigenvalues --  -10.28537 -10.28502 -10.28288 -10.28247 -10.27931
 Alpha  occ. eigenvalues --  -10.27922 -10.27869 -10.27849 -10.27717 -10.27656
 Alpha  occ. eigenvalues --  -10.27593 -10.27542 -10.27533 -10.27511 -10.27413
 Alpha  occ. eigenvalues --  -10.27391 -10.27328 -10.27321 -10.27298 -10.27243
 Alpha  occ. eigenvalues --  -10.26953 -10.26870 -10.26558 -10.26546 -10.26383
 Alpha  occ. eigenvalues --  -10.26344 -10.26263 -10.26143 -10.26030 -10.25943
 Alpha  occ. eigenvalues --  -10.25786 -10.25700 -10.25690 -10.25508 -10.25267
 Alpha  occ. eigenvalues --  -10.24961 -10.24907 -10.24759 -10.24714 -10.24628
 Alpha  occ. eigenvalues --  -10.24535  -3.16673  -3.16250  -1.91555  -1.91142
 Alpha  occ. eigenvalues --   -1.91132  -1.90984  -1.90721  -1.90558  -1.16796
 Alpha  occ. eigenvalues --   -1.16496  -1.08751  -1.08491  -1.07323  -1.06844
 Alpha  occ. eigenvalues --   -1.06806  -1.06798  -1.04724  -1.04329  -1.03889
 Alpha  occ. eigenvalues --   -1.03505  -1.03363  -1.02885  -1.02540  -1.01954
 Alpha  occ. eigenvalues --   -0.92108  -0.91822  -0.89630  -0.89364  -0.89353
 Alpha  occ. eigenvalues --   -0.88962  -0.88392  -0.88083  -0.87993  -0.87820
 Alpha  occ. eigenvalues --   -0.87636  -0.87530  -0.87414  -0.87007  -0.85151
 Alpha  occ. eigenvalues --   -0.84834  -0.84037  -0.83744  -0.83094  -0.82827
 Alpha  occ. eigenvalues --   -0.82803  -0.82498  -0.81732  -0.81447  -0.80738
 Alpha  occ. eigenvalues --   -0.80295  -0.78934  -0.78505  -0.77360  -0.77086
 Alpha  occ. eigenvalues --   -0.76995  -0.76743  -0.76073  -0.75663  -0.75008
 Alpha  occ. eigenvalues --   -0.74661  -0.72902  -0.72545  -0.71803  -0.71413
 Alpha  occ. eigenvalues --   -0.70002  -0.69630  -0.69032  -0.68668  -0.67775
 Alpha  occ. eigenvalues --   -0.67456  -0.67401  -0.67068  -0.65452  -0.65107
 Alpha  occ. eigenvalues --   -0.64989  -0.64761  -0.64617  -0.64500  -0.64382
 Alpha  occ. eigenvalues --   -0.64064  -0.62441  -0.62132  -0.60570  -0.60214
 Alpha  occ. eigenvalues --   -0.59964  -0.59621  -0.59117  -0.58839  -0.58635
 Alpha  occ. eigenvalues --   -0.58275  -0.57725  -0.57431  -0.57392  -0.57097
 Alpha  occ. eigenvalues --   -0.56444  -0.56138  -0.56061  -0.55744  -0.55655
 Alpha  occ. eigenvalues --   -0.55454  -0.55316  -0.55106  -0.54649  -0.54349
 Alpha  occ. eigenvalues --   -0.54072  -0.53734  -0.53429  -0.53378  -0.53089
 Alpha  occ. eigenvalues --   -0.53059  -0.52995  -0.52910  -0.52756  -0.52544
 Alpha  occ. eigenvalues --   -0.52532  -0.52281  -0.52029  -0.51787  -0.51725
 Alpha  occ. eigenvalues --   -0.51511  -0.51327  -0.51050  -0.50720  -0.50381
 Alpha  occ. eigenvalues --   -0.50147  -0.50054  -0.49829  -0.49733  -0.49665
 Alpha  occ. eigenvalues --   -0.49355  -0.49340  -0.49249  -0.49046  -0.48917
 Alpha  occ. eigenvalues --   -0.48734  -0.48576  -0.48567  -0.48396  -0.48240
 Alpha  occ. eigenvalues --   -0.48209  -0.47836  -0.47453  -0.47430  -0.46991
 Alpha  occ. eigenvalues --   -0.46930  -0.46726  -0.46561  -0.46487  -0.46391
 Alpha  occ. eigenvalues --   -0.46284  -0.46133  -0.45957  -0.45939  -0.45664
 Alpha  occ. eigenvalues --   -0.45308  -0.45067  -0.44713  -0.44651  -0.44361
 Alpha  occ. eigenvalues --   -0.44320  -0.44270  -0.44243  -0.44156  -0.43952
 Alpha  occ. eigenvalues --   -0.43950  -0.43803  -0.43633  -0.43530  -0.43406
 Alpha  occ. eigenvalues --   -0.43227  -0.43158  -0.42843  -0.42785  -0.42764
 Alpha  occ. eigenvalues --   -0.42746  -0.42422  -0.42136  -0.41837  -0.41825
 Alpha  occ. eigenvalues --   -0.41698  -0.41507  -0.41307  -0.41276  -0.41025
 Alpha  occ. eigenvalues --   -0.40961  -0.40816  -0.40682  -0.40594  -0.40548
 Alpha  occ. eigenvalues --   -0.40442  -0.40346  -0.40087  -0.39534  -0.39302
 Alpha  occ. eigenvalues --   -0.38587  -0.38209  -0.37944  -0.37512  -0.37439
 Alpha  occ. eigenvalues --   -0.37429  -0.37121  -0.37040  -0.36859  -0.36627
 Alpha  occ. eigenvalues --   -0.36329  -0.36070  -0.34419  -0.34095  -0.33931
 Alpha  occ. eigenvalues --   -0.33713  -0.33319  -0.33020  -0.31454  -0.31167
 Alpha  occ. eigenvalues --   -0.31149  -0.30814  -0.30153  -0.29788  -0.29580
 Alpha  occ. eigenvalues --   -0.29449  -0.29186  -0.29053  -0.24213  -0.23875
 Alpha  occ. eigenvalues --   -0.21260  -0.20961
 Alpha virt. eigenvalues --   -0.08906  -0.08640  -0.01878  -0.01530  -0.00191
 Alpha virt. eigenvalues --    0.00114   0.02078   0.02367   0.02963   0.03372
 Alpha virt. eigenvalues --    0.04558   0.04894   0.04939   0.05318   0.05968

 Mulliken charges:
               1
     1  Mg   0.838471
     2  C   -0.003346
     3  C   -0.095141
     4  C   -0.045231
     5  C   -0.063628
     6  N   -0.256744
     7  C   -0.052794
     8  C   -0.013836
     9  C   -0.086858
    10  C    0.045976
    11  C    0.104774
    12  C    0.053806
    13  C   -0.071398
    14  H    0.034680
    15  N   -0.433143
    16  C    0.168140
    17  C   -0.177915
    18  C   -0.003975
    19  C    0.148789
    20  C    0.110349
    21  C    0.012634
    22  O   -0.248419
    23  C    0.062728
    24  N   -0.341106
    25  C    0.041188
    26  C   -0.028345
    27  C   -0.024068
    28  C    0.074919
    29  C    0.076030
    30  C    0.035021
    31  C   -0.004603
    32  N   -0.310518
    33  C    0.080497
    34  C   -0.169388
    35  C    0.008530
    36  C    0.083026
    37  C    0.127249
    38  C    0.046293
    39  O   -0.187887
    40  C   -0.005434
    41  C    0.213093
    42  O   -0.257745
    43  O   -0.304605
    44  C    0.157616
    45  H   -0.017728
    46  H   -0.016183
    47  H   -0.041113
    48  H    0.001275
    49  H   -0.004686
    50  H    0.025729
    51  H    0.016773
    52  H    0.016711
    53  H    0.009701
    54  H    0.043522
    55  H    0.018830
    56  H    0.017431
    57  H    0.005558
    58  H    0.027288
    59  H    0.037936
    60  H    0.037343
    61  H    0.036580
    62  H    0.029667
    63  H    0.017298
    64  H    0.009667
    65  H    0.023685
    66  H    0.012489
    67  H    0.004887
    68  H    0.006716
    69  H    0.004685
    70  H    0.009768
    71  H    0.017626
    72  H    0.028924
    73  H    0.047970
    74  H    0.009322
    75  H    0.046268
    76  H    0.035387
    77  H    0.043670
    78  H    0.045878
    79  H    0.053437
    80  Mg   0.838402
    81  C   -0.016596
    82  C   -0.087773
    83  C   -0.045406
    84  C   -0.064740
    85  N   -0.254653
    86  C   -0.048758
    87  C   -0.015182
    88  C   -0.090920
    89  C    0.046391
    90  C    0.114877
    91  C    0.062622
    92  C   -0.077430
    93  H    0.034138
    94  N   -0.423457
    95  C    0.163027
    96  C   -0.175056
    97  C   -0.007843
    98  C    0.151990
    99  C    0.099865
   100  C    0.015651
   101  O   -0.252902
   102  C    0.061452
   103  N   -0.349882
   104  C    0.037449
   105  C   -0.019792
   106  C   -0.034786
   107  C    0.089026
   108  C    0.073718
   109  C    0.034778
   110  C   -0.007591
   111  N   -0.324252
   112  C    0.078855
   113  C   -0.162847
   114  C    0.002718
   115  C    0.096348
   116  C    0.131303
   117  C    0.042778
   118  O   -0.187724
   119  C    0.000677
   120  C    0.211057
   121  O   -0.251450
   122  O   -0.305243
   123  C    0.152218
   124  H   -0.020503
   125  H   -0.015566
   126  H   -0.040653
   127  H    0.000023
   128  H   -0.005793
   129  H    0.025743
   130  H    0.015525
   131  H    0.015423
   132  H    0.013426
   133  H    0.037468
   134  H    0.020921
   135  H    0.018880
   136  H    0.007931
   137  H    0.024454
   138  H    0.039103
   139  H    0.037186
   140  H    0.036286
   141  H    0.033466
   142  H    0.014118
   143  H    0.012298
   144  H    0.024838
   145  H    0.012428
   146  H    0.004977
   147  H    0.005907
   148  H    0.003512
   149  H    0.010804
   150  H    0.017635
   151  H    0.030244
   152  H    0.045728
   153  H    0.008113
   154  H    0.047989
   155  H    0.036777
   156  H    0.043832
   157  H    0.049177
   158  H    0.053246
 Sum of Mulliken charges =  -0.00000

 Dipole moment (field-independent basis, Debye):
    X=             -5.7651    Y=             -0.6018    Z=             -6.5065  Tot=              8.7140
 Quadrupole moment (field-independent basis, Debye-Ang):
   XX=           -535.1456   YY=           -535.7855   ZZ=           -459.0655
   XY=            -15.2376   XZ=              6.7791   YZ=            -54.5620

 Normal termination of Gaussian 16 at Fri Sep 10 15:35:55 2021.
