 Gaussian 16, Revision A.03,
 Gaussian 16:  ES64L-G16RevA.03 25-Dec-2016

 -----------------------------------
 #p cam-b3lyp/Def2SVP td=(nstates=5)
 -----------------------------------

 --------------------------------
 TDDFT excited states in gaussian
 --------------------------------
 Symbolic Z-matrix:
 Charge =  0 Multiplicity = 1

                         Standard orientation:
 ---------------------------------------------------------------------
 Center     Atomic      Atomic             Coordinates (Angstroms)
 Number     Number       Type             X           Y           Z
 ---------------------------------------------------------------------
      1         12           0        3.325443   -2.034982    0.062537
      2          6           0        5.089022    0.697427   -1.432771
      3          6           0        4.983034   -1.325277    2.959393
      4          6           0        2.129038   -4.709935    1.274916
      5          6           0        2.697745   -3.201317   -3.161020
      6          7           0        4.820233   -0.484251    0.573892
      7          6           0        5.367324    0.540017   -0.073207
      8          6           0        6.205684    1.475997    0.847917
      9          6           0        6.550209    0.441579    2.011223
     10          6           0        5.362652   -0.493355    1.864483
     11          6           0        7.831092   -0.348834    1.764065
     12          6           0        5.369245    2.685416    1.385882
     13          6           0        6.186672    3.814692    2.019840
     14          1           0        5.739725    5.187946    1.841626
     15          7           0        3.136178   -2.617998    1.940600
     16          6           0        3.886277   -2.213431    2.993673
     17          6           0        3.355458   -2.931892    4.172115
     18          6           0        2.360850   -3.928787    3.687296
     19          6           0        2.523511   -3.808683    2.260939
     20          6           0        3.758177   -2.614475    5.579530
     21          6           0        1.421528   -4.851858    4.397046
     22          8           0        0.811428   -5.798584    3.792015
     23          6           0        1.300466   -4.672211    5.855166
     24          7           0        2.714090   -3.835472   -0.798927
     25          6           0        2.178677   -4.809629   -0.055063
     26          6           0        1.562081   -5.874974   -0.912262
     27          6           0        1.573456   -5.304105   -2.403480
     28          6           0        2.310777   -3.968162   -2.139125
     29          6           0        2.258076   -7.242749   -0.884101
     30          6           0        0.216968   -5.262549   -3.150896
     31          6           0       -0.698445   -4.251763   -2.497116
     32          7           0        3.639570   -1.303740   -1.956784
     33          6           0        3.321146   -1.964723   -3.151933
     34          6           0        3.819018   -1.124192   -4.256333
     35          6           0        4.411009   -0.033589   -3.622317
     36          6           0        4.313760   -0.196204   -2.210796
     37          6           0        3.745909   -1.439478   -5.641860
     38          6           0        5.124860    1.219237   -3.808596
     39          8           0        5.413665    1.916227   -4.782398
     40          6           0        5.699899    1.682830   -2.397838
     41          6           0        5.361196    3.138420   -2.225069
     42          8           0        4.176313    3.508777   -2.097580
     43          8           0        6.486913    3.833095   -1.999834
     44          6           0        6.218179    5.280866   -1.790320
     45          1           0        5.613575   -1.345366    3.850435
     46          1           0        1.611572   -5.596080    1.648296
     47          1           0        2.463556   -3.459568   -4.195387
     48          1           0        7.125480    1.850854    0.398605
     49          1           0        6.540719    0.915045    2.992784
     50          1           0        8.227789   -0.162727    0.766109
     51          1           0        7.551986   -1.396992    1.873424
     52          1           0        8.565171   -0.151116    2.545609
     53          1           0        4.791342    2.365412    2.252881
     54          1           0        4.735737    3.096684    0.599211
     55          1           0        7.246181    3.723529    1.778928
     56          1           0        6.144358    3.700400    3.103051
     57          1           0        4.623831   -1.953936    5.609103
     58          1           0        4.110100   -3.543664    6.027265
     59          1           0        2.928621   -2.215965    6.163789
     60          1           0        2.279797   -4.801933    6.316287
     61          1           0        0.519366   -5.359158    6.178951
     62          1           0        0.998620   -3.644746    6.060479
     63          1           0        0.533389   -6.071192   -0.612734
     64          1           0        2.220765   -5.886601   -3.059502
     65          1           0        1.602028   -8.061874   -0.588568
     66          1           0        3.117269   -7.170022   -0.217926
     67          1           0        2.733855   -7.532874   -1.820519
     68          1           0       -0.279026   -6.230687   -3.090520
     69          1           0        0.314448   -5.005050   -4.205620
     70          1           0       -1.136277   -4.816119   -1.674536
     71          1           0       -1.466625   -3.924613   -3.198602
     72          1           0       -0.134269   -3.426518   -2.062189
     73          1           0        3.442127   -0.523019   -6.147615
     74          1           0        3.038486   -2.247416   -5.827311
     75          1           0        4.776939   -1.734326   -5.836532
     76          1           0        6.775822    1.513523   -2.426927
     77          1           0        6.819746    5.827397   -2.516718
     78          1           0        6.397072    5.479467   -0.733457
     79          1           0        5.217248    5.627773   -2.049417
     80         12           0       -3.478211    2.038651    0.549593
     81          6           0       -5.089106   -0.897579   -0.739835
     82          6           0       -2.336548    2.618748   -2.611844
     83          6           0       -1.683176    4.372194    1.732741
     84          6           0       -3.774305    0.636839    3.726529
     85          7           0       -3.746302    0.932071   -1.346692
     86          6           0       -4.429944   -0.136506   -1.727618
     87          6           0       -4.472292   -0.359230   -3.263246
     88          6           0       -3.136088    0.438808   -3.658914
     89          6           0       -3.080709    1.418306   -2.488358
     90          6           0       -1.885758   -0.424002   -3.619269
     91          6           0       -5.741880    0.282322   -3.925484
     92          6           0       -6.007405   -0.158062   -5.366781
     93          1           0       -7.392360   -0.308484   -5.804678
     94          7           0       -2.606259    3.573739   -0.356922
     95          6           0       -2.231851    3.648683   -1.651323
     96          6           0       -1.618431    4.975559   -1.816532
     97          6           0       -1.512471    5.613517   -0.476192
     98          6           0       -1.919686    4.512047    0.372940
     99          6           0       -1.271854    5.550312   -3.159274
    100          6           0       -1.099177    6.983722   -0.031309
    101          8           0       -0.853353    7.246662    1.198849
    102          6           0       -0.900262    7.984482   -1.089791
    103          7           0       -2.632236    2.355652    2.422073
    104          6           0       -1.941230    3.478153    2.687431
    105          6           0       -1.666283    3.612731    4.166166
    106          6           0       -2.529336    2.464875    4.869840
    107          6           0       -3.109636    1.778624    3.613778
    108          6           0       -0.202624    3.478059    4.585618
    109          6           0       -3.510231    2.908312    5.989604
    110          6           0       -4.627277    3.737876    5.398496
    111          7           0       -4.439265    0.300039    1.399093
    112          6           0       -4.416001   -0.113139    2.749217
    113          6           0       -5.114259   -1.413151    2.818772
    114          6           0       -5.478058   -1.679255    1.490114
    115          6           0       -5.019934   -0.629621    0.648743
    116          6           0       -5.294751   -2.198762    3.991951
    117          6           0       -6.136152   -2.614576    0.606505
    118          8           0       -6.790434   -3.644655    0.763345
    119          6           0       -5.803121   -2.211691   -0.894548
    120          6           0       -7.089117   -2.222728   -1.674676
    121          8           0       -7.991910   -1.407236   -1.416668
    122          8           0       -6.956068   -3.044179   -2.731979
    123          6           0       -8.202232   -3.080128   -3.542902
    124          1           0       -1.741171    2.769750   -3.512747
    125          1           0       -1.163057    5.206475    2.209114
    126          1           0       -3.994060    0.182484    4.695004
    127          1           0       -4.393354   -1.393946   -3.574531
    128          1           0       -3.258344    0.972948   -4.597591
    129          1           0       -2.086126   -1.405419   -3.215765
    130          1           0       -1.181917    0.106677   -2.991551
    131          1           0       -1.428547   -0.470970   -4.611788
    132          1           0       -5.559519    1.352610   -4.086618
    133          1           0       -6.614338    0.105380   -3.327030
    134          1           0       -5.418933   -1.041461   -5.642909
    135          1           0       -5.648774    0.624119   -6.040282
    136          1           0       -1.309779    4.786464   -3.945730
    137          1           0       -0.217873    5.845797   -3.118228
    138          1           0       -1.874680    6.425416   -3.411182
    139          1           0       -0.140685    7.630875   -1.782962
    140          1           0       -0.695357    8.922559   -0.570267
    141          1           0       -1.829863    8.077697   -1.662298
    142          1           0       -1.996152    4.576299    4.534727
    143          1           0       -1.889607    1.721023    5.367091
    144          1           0        0.174976    4.357368    5.140880
    145          1           0        0.392045    3.304353    3.698636
    146          1           0        0.025446    2.602935    5.191703
    147          1           0       -2.996745    3.548379    6.711275
    148          1           0       -3.938265    2.078687    6.542333
    149          1           0       -4.186731    4.737539    5.337799
    150          1           0       -5.497710    3.729121    6.051406
    151          1           0       -4.857539    3.416487    4.376069
    152          1           0       -6.316285   -2.554651    3.974218
    153          1           0       -5.089210   -1.622653    4.891744
    154          1           0       -4.545703   -2.976934    3.822735
    155          1           0       -5.085791   -2.938621   -1.277401
    156          1           0       -8.504411   -4.129289   -3.617967
    157          1           0       -7.959523   -2.557049   -4.486954
    158          1           0       -9.092046   -2.633886   -3.114473
 ---------------------------------------------------------------------

 SCF Done:  E(RCAM-B3LYP) =  -4069.81252146     A.U. after   19 cycles

 Excitation energies and oscillator strengths:

 Excited State   1:      Singlet-A      1.6474 eV  752.63 nm  f=0.1010  <S**2>=0.000
     309 -> 315        0.11582
     310 -> 316        0.11917
     311 -> 313        0.47611
     312 -> 314        0.49577
 This state for optimization and/or second-order correction.
 Total Energy, E(TD-HF/TD-DFT) =  -4069.75198233
 Copying the excited state density for this state as the 1-particle RhoCI density.

 Excited State   2:      Singlet-A      1.7005 eV  729.11 nm  f=0.5572  <S**2>=0.000
     309 -> 315        0.13025
     310 -> 316       -0.12473
     311 -> 313        0.49333
     312 -> 314       -0.47407

 Excited State   3:      Singlet-A      2.1847 eV  567.51 nm  f=0.0366  <S**2>=0.000
     309 -> 313        0.39851
     310 -> 314        0.50614
     311 -> 315       -0.16625
     312 -> 316       -0.21194

 Excited State   4:      Singlet-A      2.1956 eV  564.69 nm  f=0.1469  <S**2>=0.000
     309 -> 313        0.50238
     310 -> 314       -0.39447
     311 -> 315       -0.22087
     312 -> 316        0.17366

 Excited State   5:      Singlet-A      2.2206 eV  558.34 nm  f=0.0000  <S**2>=0.000
     312 -> 313        0.70703

 The electronic state is 1-A.
 Alpha  occ. eigenvalues --  -46.87939 -46.87383 -19.26471 -19.26186 -19.19233
 Alpha  occ. eigenvalues --  -19.18971 -19.18922 -19.18422 -19.18375 -19.17774
 Alpha  occ. eigenvalues --  -14.42585 -14.42212 -14.41594 -14.41102 -14.39542
 Alpha  occ. eigenvalues --  -14.39054 -14.38750 -14.38321 -10.39284 -10.38898
 Alpha  occ. eigenvalues --  -10.35553 -10.35097 -10.34593 -10.33959 -10.31850
 Alpha  occ. eigenvalues --  -10.31624 -10.31560 -10.31029 -10.31016 -10.30741
 Alpha  occ. eigenvalues --  -10.30714 -10.30664 -10.30341 -10.30132 -10.30074
 Alpha  occ. eigenvalues --  -10.30060 -10.29876 -10.29797 -10.29680 -10.29401
 Alpha  occ. eigenvalues --  -10.29117 -10.29103 -10.28838 -10.28536 -10.28515
 Alpha  occ. eigenvalues --  -10.28474 -10.28460 -10.28222 -10.28095 -10.27964
 Alpha  occ. eigenvalues --  -10.27870 -10.27837 -10.27740 -10.27683 -10.27650
 Alpha  occ. eigenvalues --  -10.27625 -10.27563 -10.27549 -10.27400 -10.27336
 Alpha  occ. eigenvalues --  -10.27329 -10.27268 -10.27207 -10.27141 -10.26926
 Alpha  occ. eigenvalues --  -10.26808 -10.26746 -10.26513 -10.26466 -10.26379
 Alpha  occ. eigenvalues --  -10.26337 -10.26184 -10.26105 -10.26096 -10.26056
 Alpha  occ. eigenvalues --  -10.25679 -10.25663 -10.25579 -10.25517 -10.25385
 Alpha  occ. eigenvalues --  -10.25010 -10.24955 -10.24923 -10.24632 -10.24566
 Alpha  occ. eigenvalues --  -10.24430  -3.16681  -3.16134  -1.91563  -1.91149
 Alpha  occ. eigenvalues --   -1.91016  -1.90992  -1.90605  -1.90441  -1.16823
 Alpha  occ. eigenvalues --   -1.16472  -1.08839  -1.08393  -1.07318  -1.06852
 Alpha  occ. eigenvalues --   -1.06755  -1.06676  -1.04719  -1.04205  -1.03902
 Alpha  occ. eigenvalues --   -1.03388  -1.03386  -1.02769  -1.02563  -1.01833
 Alpha  occ. eigenvalues --   -0.92133  -0.91712  -0.89683  -0.89291  -0.89288
 Alpha  occ. eigenvalues --   -0.88872  -0.88433  -0.88066  -0.88048  -0.87805
 Alpha  occ. eigenvalues --   -0.87507  -0.87416  -0.87397  -0.86754  -0.85089
 Alpha  occ. eigenvalues --   -0.84732  -0.84101  -0.83729  -0.83101  -0.82772
 Alpha  occ. eigenvalues --   -0.82645  -0.82371  -0.81749  -0.81370  -0.80746
 Alpha  occ. eigenvalues --   -0.80185  -0.78954  -0.78298  -0.77370  -0.77062
 Alpha  occ. eigenvalues --   -0.76877  -0.76681  -0.76066  -0.75561  -0.75039
 Alpha  occ. eigenvalues --   -0.74627  -0.72937  -0.72418  -0.71808  -0.71337
 Alpha  occ. eigenvalues --   -0.70087  -0.69612  -0.68995  -0.68556  -0.67788
 Alpha  occ. eigenvalues --   -0.67337  -0.67309  -0.66931  -0.65409  -0.65023
 Alpha  occ. eigenvalues --   -0.65003  -0.64763  -0.64520  -0.64436  -0.64404
 Alpha  occ. eigenvalues --   -0.64004  -0.62470  -0.62069  -0.60582  -0.60044
 Alpha  occ. eigenvalues --   -0.59927  -0.59514  -0.59137  -0.58738  -0.58660
 Alpha  occ. eigenvalues --   -0.58171  -0.57768  -0.57463  -0.57314  -0.56998
 Alpha  occ. eigenvalues --   -0.56475  -0.56133  -0.55914  -0.55663  -0.55659
 Alpha  occ. eigenvalues --   -0.55510  -0.55173  -0.55072  -0.54702  -0.54321
 Alpha  occ. eigenvalues --   -0.53998  -0.53648  -0.53456  -0.53352  -0.53080
 Alpha  occ. eigenvalues --   -0.52978  -0.52884  -0.52867  -0.52657  -0.52634
 Alpha  occ. eigenvalues --   -0.52325  -0.52248  -0.52140  -0.51732  -0.51607
 Alpha  occ. eigenvalues --   -0.51380  -0.51353  -0.50957  -0.50707  -0.50204
 Alpha  occ. eigenvalues --   -0.50136  -0.50043  -0.49709  -0.49645  -0.49613
 Alpha  occ. eigenvalues --   -0.49379  -0.49225  -0.49200  -0.48902  -0.48843
 Alpha  occ. eigenvalues --   -0.48748  -0.48608  -0.48574  -0.48309  -0.48193
 Alpha  occ. eigenvalues --   -0.48037  -0.47833  -0.47437  -0.47322  -0.46950
 Alpha  occ. eigenvalues --   -0.46824  -0.46662  -0.46524  -0.46463  -0.46327
 Alpha  occ. eigenvalues --   -0.46291  -0.46004  -0.45985  -0.45868  -0.45595
 Alpha  occ. eigenvalues --   -0.45343  -0.45038  -0.44758  -0.44635  -0.44308
 Alpha  occ. eigenvalues --   -0.44275  -0.44221  -0.44214  -0.44154  -0.43893
 Alpha  occ. eigenvalues --   -0.43828  -0.43672  -0.43636  -0.43507  -0.43359
 Alpha  occ. eigenvalues --   -0.43189  -0.43140  -0.42872  -0.42800  -0.42724
 Alpha  occ. eigenvalues --   -0.42667  -0.42334  -0.42165  -0.41861  -0.41765
 Alpha  occ. eigenvalues --   -0.41639  -0.41411  -0.41268  -0.41212  -0.40989
 Alpha  occ. eigenvalues --   -0.40925  -0.40740  -0.40711  -0.40478  -0.40425
 Alpha  occ. eigenvalues --   -0.40300  -0.40293  -0.39984  -0.39619  -0.39287
 Alpha  occ. eigenvalues --   -0.38597  -0.38182  -0.37834  -0.37464  -0.37415
 Alpha  occ. eigenvalues --   -0.37374  -0.37050  -0.36925  -0.36885  -0.36593
 Alpha  occ. eigenvalues --   -0.36348  -0.36014  -0.34438  -0.33985  -0.33974
 Alpha  occ. eigenvalues --   -0.33653  -0.33344  -0.32894  -0.31451  -0.31179
 Alpha  occ. eigenvalues --   -0.30989  -0.30699  -0.30235  -0.29689  -0.29606
 Alpha  occ. eigenvalues --   -0.29495  -0.29000  -0.28903  -0.24228  -0.23756
 Alpha  occ. eigenvalues --   -0.21281  -0.20825
 Alpha virt. eigenvalues --   -0.08928  -0.08484  -0.01889  -0.01413  -0.00194
 Alpha virt. eigenvalues --    0.00291   0.02015   0.02379   0.02588   0.03606
 Alpha virt. eigenvalues --    0.04604   0.04902   0.05035   0.05370   0.06098

 Mulliken charges:
               1
     1  Mg   0.839161
     2  C   -0.002605
     3  C   -0.094151
     4  C   -0.045141
     5  C   -0.064768
     6  N   -0.256928
     7  C   -0.052076
     8  C   -0.014237
     9  C   -0.087082
    10  C    0.046932
    11  C    0.104739
    12  C    0.053364
    13  C   -0.072792
    14  H    0.038838
    15  N   -0.433380
    16  C    0.169084
    17  C   -0.177131
    18  C   -0.003367
    19  C    0.149527
    20  C    0.110161
    21  C    0.012722
    22  O   -0.247976
    23  C    0.062356
    24  N   -0.341204
    25  C    0.041412
    26  C   -0.029002
    27  C   -0.024889
    28  C    0.074927
    29  C    0.075936
    30  C    0.038485
    31  C   -0.016924
    32  N   -0.310111
    33  C    0.079544
    34  C   -0.172185
    35  C    0.007503
    36  C    0.082261
    37  C    0.127795
    38  C    0.044566
    39  O   -0.189866
    40  C   -0.004889
    41  C    0.212578
    42  O   -0.258539
    43  O   -0.304354
    44  C    0.158367
    45  H   -0.017177
    46  H   -0.015720
    47  H   -0.042503
    48  H    0.000839
    49  H   -0.003608
    50  H    0.025502
    51  H    0.016419
    52  H    0.017067
    53  H    0.011495
    54  H    0.044757
    55  H    0.017310
    56  H    0.018106
    57  H    0.006218
    58  H    0.027504
    59  H    0.039094
    60  H    0.037530
    61  H    0.036667
    62  H    0.030507
    63  H    0.018227
    64  H    0.009789
    65  H    0.024498
    66  H    0.012639
    67  H    0.004816
    68  H    0.007612
    69  H    0.003338
    70  H    0.012756
    71  H    0.022860
    72  H    0.032309
    73  H    0.044965
    74  H    0.008300
    75  H    0.046730
    76  H    0.035557
    77  H    0.042716
    78  H    0.047945
    79  H    0.051871
    80  Mg   0.836739
    81  C   -0.016560
    82  C   -0.085537
    83  C   -0.044636
    84  C   -0.065647
    85  N   -0.254554
    86  C   -0.050478
    87  C   -0.013770
    88  C   -0.093831
    89  C    0.044512
    90  C    0.114026
    91  C    0.063131
    92  C   -0.077353
    93  H    0.033984
    94  N   -0.424465
    95  C    0.162156
    96  C   -0.167358
    97  C   -0.007065
    98  C    0.153636
    99  C    0.097010
   100  C    0.016685
   101  O   -0.255000
   102  C    0.060484
   103  N   -0.350120
   104  C    0.037329
   105  C   -0.019602
   106  C   -0.034100
   107  C    0.088433
   108  C    0.074193
   109  C    0.035121
   110  C   -0.007498
   111  N   -0.323965
   112  C    0.077657
   113  C   -0.163206
   114  C    0.002351
   115  C    0.095368
   116  C    0.130899
   117  C    0.042321
   118  O   -0.188993
   119  C    0.000408
   120  C    0.211259
   121  O   -0.251182
   122  O   -0.306008
   123  C    0.152166
   124  H   -0.014226
   125  H   -0.016668
   126  H   -0.042248
   127  H   -0.002637
   128  H   -0.004339
   129  H    0.019913
   130  H    0.019126
   131  H    0.015650
   132  H    0.014103
   133  H    0.037189
   134  H    0.019585
   135  H    0.019928
   136  H    0.010571
   137  H    0.034425
   138  H    0.037782
   139  H    0.040979
   140  H    0.034532
   141  H    0.033370
   142  H    0.013917
   143  H    0.009649
   144  H    0.023582
   145  H    0.012840
   146  H    0.002383
   147  H    0.004710
   148  H    0.002903
   149  H    0.010593
   150  H    0.017404
   151  H    0.031138
   152  H    0.045114
   153  H    0.006746
   154  H    0.048865
   155  H    0.034643
   156  H    0.043184
   157  H    0.049287
   158  H    0.053467
 Sum of Mulliken charges =  -0.00000

 Dipole moment (field-independent basis, Debye):
    X=              5.3105    Y=              0.4619    Z=              0.8142  Tot=              5.3924
 Quadrupole moment (field-independent basis, Debye-Ang):
   XX=           -529.5940   YY=           -525.6467   ZZ=           -465.0574
   XY=            -16.0358   XZ=             46.1384   YZ=             14.6874

 Normal termination of Gaussian 16 at Wed Sep  8 15:55:28 2021.
