 Gaussian 16, Revision A.03,
 Gaussian 16:  ES64L-G16RevA.03 25-Dec-2016

 -----------------------------------
 #p cam-b3lyp/Def2SVP td=(nstates=5)
 -----------------------------------

 --------------------------------
 TDDFT excited states in gaussian
 --------------------------------
 Symbolic Z-matrix:
 Charge =  0 Multiplicity = 1

                         Standard orientation:
 ---------------------------------------------------------------------
 Center     Atomic      Atomic             Coordinates (Angstroms)
 Number     Number       Type             X           Y           Z
 ---------------------------------------------------------------------
      1         12           0       -5.403844   -0.226128    0.280326
      2          6           0       -5.197909    3.209667    1.262727
      3          6           0       -6.375895    0.867977   -2.802062
      4          6           0       -6.029856   -3.242293   -0.472986
      5          6           0       -5.527613   -1.034209    3.668149
      6          7           0       -5.709356    1.805742   -0.543574
      7          6           0       -5.538508    3.040298   -0.081130
      8          6           0       -5.681625    4.136564   -1.178896
      9          6           0       -6.588175    3.335814   -2.217628
     10          6           0       -6.175157    1.919251   -1.858897
     11          6           0       -8.084584    3.489878   -1.965579
     12          6           0       -4.303140    4.532026   -1.807483
     13          6           0       -4.310807    5.813852   -2.645466
     14          1           0       -3.138836    6.675853   -2.617431
     15          7           0       -5.625384   -1.086485   -1.484201
     16          6           0       -6.011854   -0.485733   -2.635299
     17          6           0       -6.025015   -1.547350   -3.664608
     18          6           0       -5.798745   -2.849528   -2.978147
     19          6           0       -5.835540   -2.442540   -1.596704
     20          6           0       -6.187813   -1.272523   -5.128069
     21          6           0       -5.593966   -4.241664   -3.486235
     22          8           0       -5.647095   -5.261263   -2.716709
     23          6           0       -5.415079   -4.390026   -4.941924
     24          7           0       -5.953675   -1.888804    1.416473
     25          6           0       -6.106136   -3.091234    0.850875
     26          6           0       -6.219502   -4.171037    1.885821
     27          6           0       -5.867794   -3.482806    3.283102
     28          6           0       -5.682906   -2.026775    2.789079
     29          6           0       -7.587108   -4.860621    1.986512
     30          6           0       -4.733794   -4.127704    4.118907
     31          6           0       -3.410209   -3.954366    3.408149
     32          7           0       -5.193723    0.846760    2.155374
     33          6           0       -5.304710    0.314793    3.448187
     34          6           0       -5.194375    1.443363    4.390644
     35          6           0       -5.042485    2.562803    3.574784
     36          6           0       -5.083333    2.162306    2.208685
     37          6           0       -5.297233    1.359211    5.807250
     38          6           0       -4.879877    4.007147    3.538907
     39          8           0       -4.687095    4.879414    4.387128
     40          6           0       -5.096120    4.498634    2.039739
     41          6           0       -3.969198    5.436266    1.701802
     42          8           0       -2.795409    5.021186    1.616402
     43          8           0       -4.474819    6.613147    1.302000
     44          6           0       -3.409696    7.579789    0.923489
     45          1           0       -6.912661    1.084709   -3.727724
     46          1           0       -6.138810   -4.307856   -0.685454
     47          1           0       -5.472612   -1.220069    4.742339
     48          1           0       -6.197391    5.040398   -0.854099
     49          1           0       -6.318677    3.559239   -3.249700
     50          1           0       -8.279063    4.021115   -1.033975
     51          1           0       -8.477096    2.474135   -1.913692
     52          1           0       -8.575145    3.957406   -2.819713
     53          1           0       -4.038651    3.808092   -2.578214
     54          1           0       -3.535709    4.609863   -1.036563
     55          1           0       -5.217117    6.395757   -2.475469
     56          1           0       -4.362112    5.533738   -3.697657
     57          1           0       -6.499901   -0.244934   -5.310298
     58          1           0       -7.026370   -1.876501   -5.474105
     59          1           0       -5.292527   -1.527094   -5.695509
     60          1           0       -6.291095   -3.992103   -5.454567
     61          1           0       -5.192870   -5.442931   -5.111816
     62          1           0       -4.570267   -3.777430   -5.258100
     63          1           0       -5.508096   -4.973153    1.693631
     64          1           0       -6.722684   -3.470480    3.959627
     65          1           0       -7.543271   -5.941753    1.852589
     66          1           0       -8.250392   -4.402341    1.253488
     67          1           0       -8.126623   -4.672568    2.914401
     68          1           0       -4.903036   -5.198705    4.225016
     69          1           0       -4.643369   -3.705459    5.119798
     70          1           0       -3.401928   -4.784818    2.703087
     71          1           0       -2.584781   -4.035130    4.116215
     72          1           0       -3.388504   -3.032698    2.826304
     73          1           0       -4.504110    1.989915    6.208670
     74          1           0       -5.197142    0.329958    6.151086
     75          1           0       -6.301070    1.754969    5.960686
     76          1           0       -6.065236    4.995647    2.009502
     77          1           0       -3.562490    8.476959    1.523467
     78          1           0       -3.455439    7.682382   -0.160848
     79          1           0       -2.391914    7.311929    1.209337
     80         12           0        5.107228   -1.281831   -0.413971
     81          6           0        6.892000    1.793804    0.069919
     82          6           0        2.974953    0.447615   -2.438089
     83          6           0        3.258988   -3.859347   -0.502537
     84          6           0        6.649894   -2.470299    2.476256
     85          7           0        5.045992    0.842158   -1.028122
     86          6           0        5.812045    1.904460   -0.830588
     87          6           0        5.445499    3.133373   -1.705212
     88          6           0        3.905995    2.775618   -1.989467
     89          6           0        3.977573    1.256718   -1.846319
     90          6           0        2.958034    3.311137   -0.929322
     91          6           0        6.276953    3.190182   -3.034674
     92          6           0        6.195375    4.519763   -3.787871
     93          1           0        7.382830    4.994228   -4.493080
     94          7           0        3.676097   -1.792687   -1.690487
     95          6           0        2.926697   -0.963748   -2.447142
     96          6           0        2.003683   -1.828720   -3.198156
     97          6           0        2.157562   -3.222775   -2.700509
     98          6           0        3.041184   -3.004117   -1.572904
     99          6           0        1.150592   -1.323632   -4.325345
    100          6           0        1.591572   -4.533855   -3.155420
    101          8           0        1.669415   -5.588477   -2.431165
    102          6           0        0.861807   -4.525403   -4.431689
    103          7           0        4.807769   -2.848581    0.919422
    104          6           0        3.988076   -3.869592    0.613546
    105          6           0        4.142485   -5.006167    1.595767
    106          6           0        5.415823   -4.632648    2.488330
    107          6           0        5.737629   -3.241198    1.900361
    108          6           0        2.942251   -5.266731    2.505680
    109          6           0        6.555809   -5.685011    2.563387
    110          6           0        7.223806   -5.819413    1.213899
    111          7           0        6.650790   -0.581290    0.925692
    112          6           0        7.126227   -1.224083    2.089677
    113          6           0        8.093184   -0.308095    2.728736
    114          6           0        8.096046    0.822553    1.898006
    115          6           0        7.179506    0.633408    0.828578
    116          6           0        8.790475   -0.551483    3.945563
    117          6           0        8.658142    2.137407    1.688466
    118          8           0        9.548184    2.797039    2.223679
    119          6           0        7.810052    2.876462    0.565546
    120          6           0        8.771874    3.484266   -0.418309
    121          8           0        9.497329    2.760258   -1.122679
    122          8           0        8.523038    4.802585   -0.520798
    123          6           0        9.444526    5.447884   -1.493568
    124          1           0        2.120431    0.938588   -2.904590
    125          1           0        2.726799   -4.812481   -0.544710
    126          1           0        7.246368   -2.807401    3.326694
    127          1           0        5.517953    4.088739   -1.199434
    128          1           0        3.616903    3.050108   -3.000629
    129          1           0        3.489743    3.744046   -0.095047
    130          1           0        2.370571    2.462462   -0.604247
    131          1           0        2.249831    4.014057   -1.377308
    132          1           0        5.813603    2.525866   -3.775440
    133          1           0        7.304138    2.940452   -2.852614
    134          1           0        5.771367    5.319228   -3.168173
    135          1           0        5.482546    4.410369   -4.608810
    136          1           0        1.127533   -0.227209   -4.352285
    137          1           0        0.118269   -1.611550   -4.098895
    138          1           0        1.432637   -1.749541   -5.290601
    139          1           0        0.033175   -3.824023   -4.369230
    140          1           0        0.610600   -5.568866   -4.631596
    141          1           0        1.531227   -4.152703   -5.215004
    142          1           0        4.335938   -5.938995    1.080497
    143          1           0        5.142389   -4.473102    3.541713
    144          1           0        2.555219   -6.300608    2.432309
    145          1           0        2.167297   -4.552369    2.261420
    146          1           0        3.112838   -5.070122    3.562773
    147          1           0        6.147488   -6.668939    2.806944
    148          1           0        7.307916   -5.454520    3.310517
    149          1           0        6.567407   -6.514434    0.681754
    150          1           0        8.226615   -6.227789    1.321832
    151          1           0        7.206833   -4.867908    0.669852
    152          1           0        9.813589   -0.237885    3.786198
    153          1           0        8.735204   -1.599469    4.232699
    154          1           0        8.225286    0.090943    4.626090
    155          1           0        7.198867    3.632008    1.060713
    156          1           0        9.943712    6.266564   -0.966069
    157          1           0        8.818231    5.717661   -2.364619
    158          1           0       10.293710    4.869854   -1.838848
 ---------------------------------------------------------------------

 SCF Done:  E(RCAM-B3LYP) =  -4069.81149467     A.U. after   19 cycles

 Excitation energies and oscillator strengths:

 Excited State   1:      Singlet-A      1.6553 eV  749.01 nm  f=0.1039  <S**2>=0.000
     309 -> 315       -0.11344
     310 -> 316       -0.12506
     311 -> 313       -0.46008
     312 -> 314        0.51052
 This state for optimization and/or second-order correction.
 Total Energy, E(TD-HF/TD-DFT) =  -4069.75066285
 Copying the excited state density for this state as the 1-particle RhoCI density.

 Excited State   2:      Singlet-A      1.6954 eV  731.28 nm  f=0.6370  <S**2>=0.000
     309 -> 315        0.13400
     310 -> 316       -0.11923
     311 -> 313        0.50855
     312 -> 314        0.45839

 Excited State   3:      Singlet-A      2.1821 eV  568.19 nm  f=0.0210  <S**2>=0.000
     309 -> 313        0.28046
     310 -> 314        0.58023
     311 -> 315       -0.11674
     312 -> 316        0.24271

 Excited State   4:      Singlet-A      2.1945 eV  564.97 nm  f=0.1598  <S**2>=0.000
     309 -> 313        0.57640
     310 -> 314       -0.27725
     311 -> 315       -0.25258
     312 -> 316       -0.12167

 Excited State   5:      Singlet-A      2.4436 eV  507.39 nm  f=0.0000  <S**2>=0.000
     312 -> 313        0.70690

 The electronic state is 1-A.
 Alpha  occ. eigenvalues --  -46.87977 -46.87501 -19.26518 -19.26220 -19.19260
 Alpha  occ. eigenvalues --  -19.19030 -19.18964 -19.18583 -19.18348 -19.17902
 Alpha  occ. eigenvalues --  -14.42640 -14.42327 -14.41613 -14.41206 -14.39585
 Alpha  occ. eigenvalues --  -14.39197 -14.38764 -14.38443 -10.39314 -10.38956
 Alpha  occ. eigenvalues --  -10.35600 -10.35266 -10.34570 -10.34077 -10.31923
 Alpha  occ. eigenvalues --  -10.31646 -10.31598 -10.31131 -10.31115 -10.30860
 Alpha  occ. eigenvalues --  -10.30754 -10.30672 -10.30364 -10.30246 -10.30208
 Alpha  occ. eigenvalues --  -10.30063 -10.29997 -10.29805 -10.29743 -10.29432
 Alpha  occ. eigenvalues --  -10.29287 -10.29263 -10.28995 -10.28872 -10.28553
 Alpha  occ. eigenvalues --  -10.28550 -10.28530 -10.28340 -10.28249 -10.27972
 Alpha  occ. eigenvalues --  -10.27916 -10.27907 -10.27852 -10.27767 -10.27712
 Alpha  occ. eigenvalues --  -10.27599 -10.27590 -10.27536 -10.27500 -10.27414
 Alpha  occ. eigenvalues --  -10.27393 -10.27355 -10.27331 -10.27324 -10.27250
 Alpha  occ. eigenvalues --  -10.27029 -10.26891 -10.26602 -10.26556 -10.26428
 Alpha  occ. eigenvalues --  -10.26343 -10.26243 -10.26181 -10.26032 -10.25985
 Alpha  occ. eigenvalues --  -10.25787 -10.25709 -10.25643 -10.25513 -10.25280
 Alpha  occ. eigenvalues --  -10.25011 -10.24943 -10.24721 -10.24710 -10.24631
 Alpha  occ. eigenvalues --  -10.24537  -3.16720  -3.16251  -1.91601  -1.91188
 Alpha  occ. eigenvalues --   -1.91133  -1.91030  -1.90722  -1.90559  -1.16867
 Alpha  occ. eigenvalues --   -1.16513  -1.08807  -1.08509  -1.07360  -1.06879
 Alpha  occ. eigenvalues --   -1.06833  -1.06814  -1.04774  -1.04327  -1.03930
 Alpha  occ. eigenvalues --   -1.03506  -1.03408  -1.02887  -1.02584  -1.01957
 Alpha  occ. eigenvalues --   -0.92158  -0.91828  -0.89652  -0.89418  -0.89356
 Alpha  occ. eigenvalues --   -0.88948  -0.88410  -0.88087  -0.88040  -0.87867
 Alpha  occ. eigenvalues --   -0.87645  -0.87528  -0.87465  -0.87007  -0.85204
 Alpha  occ. eigenvalues --   -0.84827  -0.84050  -0.83750  -0.83134  -0.82851
 Alpha  occ. eigenvalues --   -0.82827  -0.82493  -0.81786  -0.81455  -0.80788
 Alpha  occ. eigenvalues --   -0.80300  -0.78982  -0.78508  -0.77401  -0.77128
 Alpha  occ. eigenvalues --   -0.76994  -0.76742  -0.76123  -0.75658  -0.75031
 Alpha  occ. eigenvalues --   -0.74666  -0.72944  -0.72547  -0.71844  -0.71411
 Alpha  occ. eigenvalues --   -0.70002  -0.69633  -0.69082  -0.68663  -0.67822
 Alpha  occ. eigenvalues --   -0.67460  -0.67459  -0.67066  -0.65505  -0.65105
 Alpha  occ. eigenvalues --   -0.65035  -0.64804  -0.64619  -0.64501  -0.64403
 Alpha  occ. eigenvalues --   -0.64066  -0.62494  -0.62141  -0.60612  -0.60217
 Alpha  occ. eigenvalues --   -0.60016  -0.59614  -0.59159  -0.58842  -0.58678
 Alpha  occ. eigenvalues --   -0.58279  -0.57782  -0.57466  -0.57406  -0.57103
 Alpha  occ. eigenvalues --   -0.56492  -0.56199  -0.56064  -0.55752  -0.55703
 Alpha  occ. eigenvalues --   -0.55484  -0.55318  -0.55114  -0.54683  -0.54357
 Alpha  occ. eigenvalues --   -0.54127  -0.53722  -0.53474  -0.53430  -0.53109
 Alpha  occ. eigenvalues --   -0.53091  -0.52995  -0.52964  -0.52757  -0.52536
 Alpha  occ. eigenvalues --   -0.52528  -0.52284  -0.52074  -0.51844  -0.51739
 Alpha  occ. eigenvalues --   -0.51509  -0.51369  -0.51055  -0.50771  -0.50382
 Alpha  occ. eigenvalues --   -0.50176  -0.50088  -0.49826  -0.49733  -0.49715
 Alpha  occ. eigenvalues --   -0.49407  -0.49334  -0.49298  -0.49047  -0.48912
 Alpha  occ. eigenvalues --   -0.48786  -0.48621  -0.48594  -0.48395  -0.48246
 Alpha  occ. eigenvalues --   -0.48206  -0.47879  -0.47472  -0.47452  -0.46992
 Alpha  occ. eigenvalues --   -0.46966  -0.46779  -0.46561  -0.46528  -0.46381
 Alpha  occ. eigenvalues --   -0.46322  -0.46136  -0.46007  -0.45948  -0.45672
 Alpha  occ. eigenvalues --   -0.45329  -0.45073  -0.44764  -0.44691  -0.44369
 Alpha  occ. eigenvalues --   -0.44313  -0.44312  -0.44278  -0.44203  -0.43954
 Alpha  occ. eigenvalues --   -0.43942  -0.43805  -0.43685  -0.43571  -0.43414
 Alpha  occ. eigenvalues --   -0.43226  -0.43199  -0.42906  -0.42795  -0.42774
 Alpha  occ. eigenvalues --   -0.42752  -0.42424  -0.42160  -0.41882  -0.41827
 Alpha  occ. eigenvalues --   -0.41743  -0.41513  -0.41319  -0.41303  -0.41068
 Alpha  occ. eigenvalues --   -0.41007  -0.40808  -0.40698  -0.40587  -0.40542
 Alpha  occ. eigenvalues --   -0.40504  -0.40345  -0.40083  -0.39526  -0.39305
 Alpha  occ. eigenvalues --   -0.38609  -0.38211  -0.38003  -0.37510  -0.37484
 Alpha  occ. eigenvalues --   -0.37464  -0.37122  -0.37037  -0.36916  -0.36641
 Alpha  occ. eigenvalues --   -0.36369  -0.36073  -0.34463  -0.34097  -0.34000
 Alpha  occ. eigenvalues --   -0.33727  -0.33365  -0.33021  -0.31492  -0.31211
 Alpha  occ. eigenvalues --   -0.31140  -0.30814  -0.30208  -0.29805  -0.29631
 Alpha  occ. eigenvalues --   -0.29498  -0.29187  -0.29060  -0.24258  -0.23876
 Alpha  occ. eigenvalues --   -0.21305  -0.20962
 Alpha virt. eigenvalues --   -0.08953  -0.08642  -0.01920  -0.01529  -0.00241
 Alpha virt. eigenvalues --    0.00118   0.02031   0.02356   0.02894   0.03367
 Alpha virt. eigenvalues --    0.04507   0.04870   0.04899   0.05302   0.05906

 Mulliken charges:
               1
     1  Mg   0.838179
     2  C   -0.003618
     3  C   -0.095443
     4  C   -0.044763
     5  C   -0.063485
     6  N   -0.256757
     7  C   -0.052885
     8  C   -0.013811
     9  C   -0.086775
    10  C    0.045760
    11  C    0.104741
    12  C    0.053878
    13  C   -0.071394
    14  H    0.034475
    15  N   -0.433101
    16  C    0.167732
    17  C   -0.178541
    18  C   -0.004560
    19  C    0.148710
    20  C    0.110408
    21  C    0.012156
    22  O   -0.247582
    23  C    0.063084
    24  N   -0.341177
    25  C    0.041227
    26  C   -0.028467
    27  C   -0.024126
    28  C    0.075184
    29  C    0.075969
    30  C    0.034910
    31  C   -0.004671
    32  N   -0.310539
    33  C    0.080608
    34  C   -0.169304
    35  C    0.008494
    36  C    0.083023
    37  C    0.127255
    38  C    0.046207
    39  O   -0.187983
    40  C   -0.005349
    41  C    0.213094
    42  O   -0.258127
    43  O   -0.304470
    44  C    0.157658
    45  H   -0.017644
    46  H   -0.015740
    47  H   -0.040899
    48  H    0.001360
    49  H   -0.004714
    50  H    0.025760
    51  H    0.016885
    52  H    0.016821
    53  H    0.009265
    54  H    0.043081
    55  H    0.019066
    56  H    0.017590
    57  H    0.005680
    58  H    0.027571
    59  H    0.037344
    60  H    0.037615
    61  H    0.037118
    62  H    0.028285
    63  H    0.018014
    64  H    0.009640
    65  H    0.023944
    66  H    0.012354
    67  H    0.004889
    68  H    0.006918
    69  H    0.004494
    70  H    0.010831
    71  H    0.017946
    72  H    0.028667
    73  H    0.047872
    74  H    0.009525
    75  H    0.046341
    76  H    0.035476
    77  H    0.043758
    78  H    0.045941
    79  H    0.053105
    80  Mg   0.838401
    81  C   -0.016800
    82  C   -0.087497
    83  C   -0.045443
    84  C   -0.064798
    85  N   -0.254713
    86  C   -0.048991
    87  C   -0.015197
    88  C   -0.090774
    89  C    0.046211
    90  C    0.114583
    91  C    0.062666
    92  C   -0.077399
    93  H    0.033988
    94  N   -0.423529
    95  C    0.163022
    96  C   -0.174633
    97  C   -0.007910
    98  C    0.152043
    99  C    0.099368
   100  C    0.016195
   101  O   -0.252397
   102  C    0.061421
   103  N   -0.349873
   104  C    0.037572
   105  C   -0.019816
   106  C   -0.034813
   107  C    0.089010
   108  C    0.073661
   109  C    0.034797
   110  C   -0.007603
   111  N   -0.324144
   112  C    0.078650
   113  C   -0.163093
   114  C    0.002427
   115  C    0.096298
   116  C    0.131421
   117  C    0.042468
   118  O   -0.188066
   119  C    0.000857
   120  C    0.211132
   121  O   -0.251384
   122  O   -0.305363
   123  C    0.152204
   124  H   -0.019448
   125  H   -0.015502
   126  H   -0.040735
   127  H   -0.000289
   128  H   -0.005772
   129  H    0.023518
   130  H    0.017306
   131  H    0.017333
   132  H    0.013360
   133  H    0.037354
   134  H    0.021010
   135  H    0.018882
   136  H    0.008206
   137  H    0.025287
   138  H    0.038410
   139  H    0.036800
   140  H    0.036874
   141  H    0.032950
   142  H    0.014172
   143  H    0.012341
   144  H    0.024682
   145  H    0.012261
   146  H    0.005153
   147  H    0.005901
   148  H    0.003498
   149  H    0.010816
   150  H    0.017614
   151  H    0.030247
   152  H    0.045685
   153  H    0.008192
   154  H    0.047442
   155  H    0.035997
   156  H    0.043758
   157  H    0.049290
   158  H    0.053263
 Sum of Mulliken charges =  -0.00000

 Dipole moment (field-independent basis, Debye):
    X=             -6.3550    Y=              0.7976    Z=             -5.4968  Tot=              8.4402
 Quadrupole moment (field-independent basis, Debye-Ang):
   XX=           -546.0949   YY=           -513.9195   ZZ=           -477.2945
   XY=            -17.7818   XZ=             12.9571   YZ=            -58.9462

 Normal termination of Gaussian 16 at Fri Sep 10 23:40:12 2021.
