 Gaussian 16, Revision A.03,
 Gaussian 16:  ES64L-G16RevA.03 25-Dec-2016

 -----------------------------------
 #p cam-b3lyp/Def2SVP td=(nstates=5)
 -----------------------------------

 --------------------------------
 TDDFT excited states in gaussian
 --------------------------------
 Symbolic Z-matrix:
 Charge =  0 Multiplicity = 1

                         Standard orientation:
 ---------------------------------------------------------------------
 Center     Atomic      Atomic             Coordinates (Angstroms)
 Number     Number       Type             X           Y           Z
 ---------------------------------------------------------------------
      1         12           0        3.333533    1.332802    0.674238
      2          6           0        4.449547   -1.740995   -0.781269
      3          6           0        4.288861    2.875351   -2.215565
      4          6           0        2.779909    4.110023    2.101531
      5          6           0        3.530938   -0.237112    3.779405
      6          7           0        4.239858    0.557621   -1.190786
      7          6           0        4.562524   -0.649318   -1.645053
      8          6           0        4.960949   -0.656385   -3.151234
      9          6           0        5.412613    0.865481   -3.299285
     10          6           0        4.571374    1.477242   -2.192945
     11          6           0        6.886227    1.097374   -2.981183
     12          6           0        3.748745   -0.987680   -4.085330
     13          6           0        4.114009   -1.334702   -5.531536
     14          1           0        3.327908   -2.340198   -6.230372
     15          7           0        3.048694    3.131958   -0.090456
     16          6           0        3.494510    3.582974   -1.287586
     17          6           0        3.024539    4.980753   -1.397225
     18          6           0        2.432402    5.365881   -0.086064
     19          6           0        2.757800    4.211890    0.712560
     20          6           0        3.114551    5.782499   -2.659308
     21          6           0        1.700135    6.585541    0.376912
     22          8           0        1.475803    6.815400    1.614415
     23          6           0        1.324976    7.560792   -0.662888
     24          7           0        3.385976    1.938415    2.671265
     25          6           0        3.046326    3.183072    3.024043
     26          6           0        2.885580    3.304671    4.510419
     27          6           0        2.949518    1.816288    5.085206
     28          6           0        3.233572    1.064166    3.761613
     29          6           0        3.927917    4.173843    5.227415
     30          6           0        1.758640    1.348043    5.958690
     31          6           0        0.510977    1.241312    5.110725
     32          7           0        3.715246   -0.680290    1.390338
     33          6           0        3.771694   -1.103469    2.726155
     34          6           0        4.165300   -2.524373    2.712902
     35          6           0        4.327658   -2.826581    1.362290
     36          6           0        4.078439   -1.660971    0.582845
     37          6           0        4.384163   -3.339212    3.858577
     38          6           0        4.677703   -3.856637    0.397763
     39          8           0        4.894778   -5.067495    0.462528
     40          6           0        4.889394   -3.163980   -1.020418
     41          6           0        4.132254   -3.972306   -2.038582
     42          8           0        2.885519   -4.022689   -2.016737
     43          8           0        4.971405   -4.361093   -3.010803
     44          6           0        4.277554   -5.142845   -4.068909
     45          1           0        4.764493    3.497712   -2.976079
     46          1           0        2.485683    5.019315    2.629790
     47          1           0        3.530437   -0.815025    4.705401
     48          1           0        5.792073   -1.317112   -3.398412
     49          1           0        5.128807    1.282045   -4.265542
     50          1           0        7.353379    0.198281   -2.579536
     51          1           0        6.901783    1.897610   -2.240998
     52          1           0        7.414294    1.485067   -3.852743
     53          1           0        3.166362   -0.081774   -4.253334
     54          1           0        3.144826   -1.791660   -3.663165
     55          1           0        5.179292   -1.543212   -5.634514
     56          1           0        3.950441   -0.449910   -6.146831
     57          1           0        3.744808    5.292931   -3.400687
     58          1           0        3.646378    6.701896   -2.415221
     59          1           0        2.131220    6.022926   -3.063768
     60          1           0        2.224185    7.906637   -1.173146
     61          1           0        0.731579    8.323437   -0.159794
     62          1           0        0.719017    7.057517   -1.416862
     63          1           0        1.922256    3.744771    4.764867
     64          1           0        3.822267    1.659999    5.719680
     65          1           0        3.494515    4.992551    5.802381
     66          1           0        4.626532    4.548053    4.479621
     67          1           0        4.595717    3.629688    5.894765
     68          1           0        1.552929    2.077174    6.741631
     69          1           0        1.929995    0.384762    6.439293
     70          1           0        0.136837    2.264394    5.098304
     71          1           0       -0.209164    0.567887    5.576672
     72          1           0        0.750511    0.969450    4.082523
     73          1           0        3.909931   -4.297387    3.646505
     74          1           0        3.968016   -2.881190    4.755595
     75          1           0        5.473308   -3.375819    3.875253
     76          1           0        5.961864   -3.164552   -1.212590
     77          1           0        4.798199   -6.096477   -4.156940
     78          1           0        4.239220   -4.503949   -4.951375
     79          1           0        3.267484   -5.480711   -3.834507
     80         12           0       -4.328152   -0.421077   -0.402352
     81          6           0       -1.379184   -2.340809    0.302825
     82          6           0       -2.294333    2.293805   -0.759469
     83          6           0       -6.932686    1.382141   -0.581970
     84          6           0       -6.174982   -2.962667    1.106044
     85          7           0       -2.136373   -0.180975   -0.227136
     86          6           0       -1.111602   -0.993115   -0.015887
     87          6           0        0.280616   -0.341810   -0.232874
     88          6           0       -0.130769    1.191440    0.009627
     89          6           0       -1.604991    1.113819   -0.381907
     90          6           0       -0.045190    1.614270    1.466757
     91          6           0        0.825880   -0.567176   -1.686798
     92          6           0        2.305873   -0.228479   -1.878280
     93          1           0        3.093026   -1.043911   -2.799121
     94          7           0       -4.570680    1.418173   -1.107264
     95          6           0       -3.632730    2.383969   -1.200924
     96          6           0       -4.318158    3.557116   -1.764912
     97          6           0       -5.773775    3.257402   -1.842837
     98          6           0       -5.819148    1.987674   -1.145830
     99          6           0       -3.584561    4.777012   -2.241462
    100          6           0       -6.934874    3.997943   -2.434143
    101          8           0       -8.146113    3.666100   -2.178014
    102          6           0       -6.613220    5.180176   -3.246785
    103          7           0       -6.249056   -0.638419    0.362655
    104          6           0       -7.207257    0.265253    0.092187
    105          6           0       -8.566815   -0.238277    0.514609
    106          6           0       -8.353571   -1.774143    0.906033
    107          6           0       -6.823640   -1.872869    0.719073
    108          6           0       -9.215222    0.499781    1.685603
    109          6           0       -9.254754   -2.815258    0.187275
    110          6           0       -8.901324   -2.877339   -1.281272
    111          7           0       -3.913685   -2.394343    0.373852
    112          6           0       -4.827961   -3.279627    0.985775
    113          6           0       -4.055565   -4.449296    1.452346
    114          6           0       -2.731517   -4.150550    1.097164
    115          6           0       -2.679347   -2.875095    0.472680
    116          6           0       -4.584868   -5.570780    2.151091
    117          6           0       -1.364624   -4.619446    1.118050
    118          8           0       -0.811208   -5.669167    1.442950
    119          6           0       -0.410311   -3.412873    0.718251
    120          6           0        0.564716   -3.913500   -0.311901
    121          8           0        0.169160   -4.270810   -1.435500
    122          8           0        1.818288   -3.684187    0.119754
    123          6           0        2.821246   -4.153540   -0.873030
    124          1           0       -1.775712    3.248753   -0.670078
    125          1           0       -7.877276    1.914437   -0.715700
    126          1           0       -6.691720   -3.841262    1.498144
    127          1           0        1.038339   -0.640908    0.481382
    128          1           0        0.407519    1.855704   -0.661471
    129          1           0        0.165283    0.778305    2.117143
    130          1           0       -1.008603    2.045734    1.704916
    131          1           0        0.683572    2.421584    1.582821
    132          1           0        0.374878    0.175482   -2.357472
    133          1           0        0.640256   -1.572450   -2.011767
    134          1           0        2.829870   -0.114906   -0.921479
    135          1           0        2.378844    0.757999   -2.342565
    136          1           0       -2.540715    4.776048   -1.904125
    137          1           0       -4.033048    5.638241   -1.734495
    138          1           0       -3.664226    4.921521   -3.321019
    139          1           0       -6.054039    5.891617   -2.643777
    140          1           0       -7.566134    5.521900   -3.655499
    141          1           0       -5.952210    4.873025   -4.064919
    142          1           0       -9.272796   -0.179179   -0.304665
    143          1           0       -8.552051   -1.954085    1.972831
    144          1           0      -10.211705    0.914362    1.442265
    145          1           0       -8.544652    1.285562    2.007200
    146          1           0       -9.333781   -0.088805    2.593741
    147          1           0      -10.302804   -2.510636    0.241667
    148          1           0       -9.186520   -3.811503    0.611355
    149          1           0       -9.464993   -2.041451   -1.706293
    150          1           0       -9.217045   -3.825631   -1.711507
    151          1           0       -7.836353   -2.670786   -1.438839
    152          1           0       -4.133468   -6.451424    1.713834
    153          1           0       -5.670304   -5.604667    2.084390
    154          1           0       -4.242684   -5.347944    3.165252
    155          1           0        0.090724   -3.076546    1.626788
    156          1           0        3.487126   -4.847519   -0.350840
    157          1           0        3.277440   -3.237347   -1.292828
    158          1           0        2.467203   -4.773315   -1.688491
 ---------------------------------------------------------------------

 SCF Done:  E(RCAM-B3LYP) =  -4068.84157734     A.U. after   26 cycles

 Excitation energies and oscillator strengths:

 Excited State   1:      Singlet-A      0.8750 eV 1416.94 nm  f=0.0636  <S**2>=0.000
     311 -> 314       -0.10806
     312 -> 314        0.68249
     312 -> 317        0.12360
 This state for optimization and/or second-order correction.
 Total Energy, E(TD-HF/TD-DFT) =  -4068.80942116
 Copying the excited state density for this state as the 1-particle RhoCI density.

 Excited State   2:      Singlet-A      1.4809 eV  837.25 nm  f=0.0032  <S**2>=0.000
     311 -> 314       -0.15141
     312 -> 313        0.68295

 Excited State   3:      Singlet-A      1.4904 eV  831.87 nm  f=0.1140  <S**2>=0.000
     308 -> 316        0.11600
     310 -> 313        0.16872
     311 -> 314        0.63168
     312 -> 313        0.17397
     312 -> 316        0.12530

 Excited State   4:      Singlet-A      1.6750 eV  740.21 nm  f=0.4730  <S**2>=0.000
     309 -> 315        0.16287
     310 -> 313        0.66035
     311 -> 314       -0.16571

 Excited State   5:      Singlet-A      2.1270 eV  582.92 nm  f=0.0001  <S**2>=0.000
     311 -> 313        0.70524

 The electronic state is 1-A.
 Alpha  occ. eigenvalues --  -46.87588 -46.87464 -19.37959 -19.27030 -19.24461
 Alpha  occ. eigenvalues --  -19.20647 -19.18596 -19.18275 -19.18027 -19.17591
 Alpha  occ. eigenvalues --  -14.42178 -14.41853 -14.41185 -14.40205 -14.39165
 Alpha  occ. eigenvalues --  -14.38734 -14.38440 -14.38274 -10.39892 -10.35275
 Alpha  occ. eigenvalues --  -10.34944 -10.34695 -10.34280 -10.34213 -10.33308
 Alpha  occ. eigenvalues --  -10.33162 -10.31054 -10.31003 -10.30760 -10.30710
 Alpha  occ. eigenvalues --  -10.30354 -10.30241 -10.30173 -10.30044 -10.29967
 Alpha  occ. eigenvalues --  -10.29918 -10.29781 -10.29775 -10.29743 -10.29383
 Alpha  occ. eigenvalues --  -10.29261 -10.29251 -10.29065 -10.28857 -10.28712
 Alpha  occ. eigenvalues --  -10.28568 -10.28252 -10.27917 -10.27865 -10.27854
 Alpha  occ. eigenvalues --  -10.27741 -10.27532 -10.27434 -10.27405 -10.27398
 Alpha  occ. eigenvalues --  -10.27360 -10.27319 -10.27315 -10.27293 -10.27254
 Alpha  occ. eigenvalues --  -10.27122 -10.27061 -10.26847 -10.26820 -10.26796
 Alpha  occ. eigenvalues --  -10.26340 -10.26328 -10.26265 -10.26189 -10.26063
 Alpha  occ. eigenvalues --  -10.25776 -10.25768 -10.25684 -10.25430 -10.25301
 Alpha  occ. eigenvalues --  -10.25273 -10.25048 -10.24873 -10.24826 -10.24750
 Alpha  occ. eigenvalues --  -10.24687 -10.24524 -10.24266 -10.24170 -10.23735
 Alpha  occ. eigenvalues --  -10.22758  -3.16296  -3.16215  -1.91167  -1.91098
 Alpha  occ. eigenvalues --   -1.90794  -1.90685  -1.90593  -1.90524  -1.51998
 Alpha  occ. eigenvalues --   -1.17743  -1.14116  -1.09943  -1.08792  -1.08069
 Alpha  occ. eigenvalues --   -1.06850  -1.06712  -1.05694  -1.04214  -1.03440
 Alpha  occ. eigenvalues --   -1.03143  -1.02874  -1.02707  -1.01936  -1.01821
 Alpha  occ. eigenvalues --   -1.00359  -0.92158  -0.91749  -0.91684  -0.89414
 Alpha  occ. eigenvalues --   -0.89174  -0.88749  -0.88395  -0.88073  -0.87677
 Alpha  occ. eigenvalues --   -0.87636  -0.87427  -0.87220  -0.86974  -0.86823
 Alpha  occ. eigenvalues --   -0.86273  -0.85613  -0.84235  -0.83654  -0.83268
 Alpha  occ. eigenvalues --   -0.82785  -0.82692  -0.82417  -0.82026  -0.81378
 Alpha  occ. eigenvalues --   -0.80710  -0.80643  -0.78931  -0.78483  -0.78435
 Alpha  occ. eigenvalues --   -0.78136  -0.77918  -0.76880  -0.76361  -0.76291
 Alpha  occ. eigenvalues --   -0.75280  -0.74917  -0.74099  -0.72903  -0.72552
 Alpha  occ. eigenvalues --   -0.72381  -0.72072  -0.70924  -0.70456  -0.69466
 Alpha  occ. eigenvalues --   -0.69340  -0.68325  -0.68107  -0.67373  -0.67152
 Alpha  occ. eigenvalues --   -0.66975  -0.65612  -0.65070  -0.64612  -0.64392
 Alpha  occ. eigenvalues --   -0.64110  -0.63891  -0.63746  -0.63231  -0.61279
 Alpha  occ. eigenvalues --   -0.61095  -0.60206  -0.59922  -0.59478  -0.59234
 Alpha  occ. eigenvalues --   -0.58724  -0.58488  -0.58137  -0.57830  -0.57282
 Alpha  occ. eigenvalues --   -0.57126  -0.56961  -0.56767  -0.56490  -0.55994
 Alpha  occ. eigenvalues --   -0.55930  -0.55334  -0.55257  -0.55206  -0.54915
 Alpha  occ. eigenvalues --   -0.54783  -0.54678  -0.54296  -0.53740  -0.53455
 Alpha  occ. eigenvalues --   -0.53385  -0.53226  -0.52838  -0.52808  -0.52781
 Alpha  occ. eigenvalues --   -0.52504  -0.52337  -0.52285  -0.52119  -0.51750
 Alpha  occ. eigenvalues --   -0.51738  -0.51504  -0.51232  -0.51068  -0.50552
 Alpha  occ. eigenvalues --   -0.50344  -0.50287  -0.50113  -0.49844  -0.49777
 Alpha  occ. eigenvalues --   -0.49645  -0.49587  -0.49466  -0.49372  -0.49282
 Alpha  occ. eigenvalues --   -0.49155  -0.48940  -0.48819  -0.48551  -0.48328
 Alpha  occ. eigenvalues --   -0.48232  -0.47981  -0.47944  -0.47648  -0.47345
 Alpha  occ. eigenvalues --   -0.47195  -0.46800  -0.46741  -0.46653  -0.46559
 Alpha  occ. eigenvalues --   -0.46202  -0.46070  -0.45978  -0.45907  -0.45759
 Alpha  occ. eigenvalues --   -0.45492  -0.45214  -0.45099  -0.44817  -0.44687
 Alpha  occ. eigenvalues --   -0.44480  -0.44422  -0.44188  -0.44062  -0.43973
 Alpha  occ. eigenvalues --   -0.43879  -0.43842  -0.43671  -0.43437  -0.43136
 Alpha  occ. eigenvalues --   -0.43062  -0.42967  -0.42820  -0.42483  -0.42415
 Alpha  occ. eigenvalues --   -0.42348  -0.42231  -0.42097  -0.41900  -0.41801
 Alpha  occ. eigenvalues --   -0.41576  -0.41225  -0.41196  -0.41072  -0.40825
 Alpha  occ. eigenvalues --   -0.40566  -0.40448  -0.40386  -0.40267  -0.40094
 Alpha  occ. eigenvalues --   -0.39798  -0.39654  -0.39318  -0.39152  -0.38820
 Alpha  occ. eigenvalues --   -0.38349  -0.38061  -0.37694  -0.37240  -0.37201
 Alpha  occ. eigenvalues --   -0.36965  -0.36699  -0.36242  -0.36082  -0.35211
 Alpha  occ. eigenvalues --   -0.34502  -0.34052  -0.33705  -0.33056  -0.32885
 Alpha  occ. eigenvalues --   -0.31891  -0.31463  -0.31152  -0.30826  -0.30775
 Alpha  occ. eigenvalues --   -0.29945  -0.29294  -0.29182  -0.29076  -0.29040
 Alpha  occ. eigenvalues --   -0.28737  -0.28104  -0.23895  -0.23852  -0.20906
 Alpha  occ. eigenvalues --   -0.20413  -0.18054
 Alpha virt. eigenvalues --   -0.08628  -0.08410  -0.01501  -0.01242  -0.00363
 Alpha virt. eigenvalues --    0.00135   0.01805   0.02302   0.03297   0.03767
 Alpha virt. eigenvalues --    0.04273   0.04846   0.05004   0.05292   0.06545

 Mulliken charges:
               1
     1  Mg   0.604097
     2  C    0.010875
     3  C   -0.086556
     4  C   -0.058042
     5  C   -0.072180
     6  N   -0.262831
     7  C   -0.130849
     8  C   -0.079499
     9  C   -0.040910
    10  C    0.026013
    11  C    0.109186
    12  C    0.106338
    13  C   -0.022441
    14  H    0.047218
    15  N   -0.426181
    16  C    0.159815
    17  C   -0.182063
    18  C   -0.016046
    19  C    0.145466
    20  C    0.112057
    21  C    0.005887
    22  O   -0.252161
    23  C    0.064758
    24  N   -0.315333
    25  C    0.037501
    26  C   -0.023012
    27  C   -0.024468
    28  C    0.078235
    29  C    0.078153
    30  C    0.037600
    31  C   -0.004228
    32  N   -0.302215
    33  C    0.070513
    34  C   -0.198806
    35  C    0.093896
    36  C    0.086610
    37  C    0.128220
    38  C   -0.020512
    39  O   -0.216139
    40  C    0.136798
    41  C   -0.144408
    42  O    0.337103
    43  O   -0.305256
    44  C    0.152236
    45  H   -0.023314
    46  H   -0.022562
    47  H   -0.047982
    48  H    0.007374
    49  H   -0.011248
    50  H    0.027291
    51  H    0.022690
    52  H    0.014075
    53  H    0.031789
    54  H    0.060604
    55  H    0.027662
    56  H    0.024431
    57  H    0.002035
    58  H    0.024544
    59  H    0.032965
    60  H    0.037457
    61  H    0.033101
    62  H    0.024731
    63  H    0.012174
    64  H    0.007605
    65  H    0.020714
    66  H    0.012500
    67  H    0.002923
    68  H    0.004406
    69  H    0.002830
    70  H    0.007691
    71  H    0.015768
    72  H    0.024373
    73  H    0.047150
    74  H    0.008703
    75  H    0.045624
    76  H   -0.001581
    77  H    0.052794
    78  H    0.043426
    79  H    0.024060
    80  Mg   0.835944
    81  C   -0.021894
    82  C   -0.090088
    83  C   -0.045913
    84  C   -0.065393
    85  N   -0.257376
    86  C   -0.032369
    87  C   -0.058666
    88  C   -0.142726
    89  C    0.062102
    90  C    0.085239
    91  C    0.175746
    92  C   -0.237865
    93  H    0.103385
    94  N   -0.423889
    95  C    0.163034
    96  C   -0.173410
    97  C   -0.008337
    98  C    0.152567
    99  C    0.098859
   100  C    0.015232
   101  O   -0.253501
   102  C    0.061462
   103  N   -0.349922
   104  C    0.037634
   105  C   -0.019870
   106  C   -0.034522
   107  C    0.088464
   108  C    0.073653
   109  C    0.034927
   110  C   -0.007474
   111  N   -0.323476
   112  C    0.077556
   113  C   -0.164167
   114  C    0.003661
   115  C    0.093936
   116  C    0.131839
   117  C    0.037632
   118  O   -0.188211
   119  C   -0.001516
   120  C    0.237645
   121  O   -0.272484
   122  O   -0.246982
   123  C    0.005386
   124  H   -0.012469
   125  H   -0.016026
   126  H   -0.041398
   127  H    0.033929
   128  H    0.041434
   129  H    0.049927
   130  H    0.011972
   131  H    0.065841
   132  H   -0.017252
   133  H   -0.006194
   134  H    0.116173
   135  H    0.040271
   136  H    0.009724
   137  H    0.027497
   138  H    0.037314
   139  H    0.038856
   140  H    0.035825
   141  H    0.032694
   142  H    0.013772
   143  H    0.012172
   144  H    0.024704
   145  H    0.012308
   146  H    0.005473
   147  H    0.005921
   148  H    0.003241
   149  H    0.010718
   150  H    0.017034
   151  H    0.029867
   152  H    0.044653
   153  H    0.008139
   154  H    0.046815
   155  H    0.042418
   156  H    0.111485
   157  H   -0.065157
   158  H    0.031222
 Sum of Mulliken charges =  -0.00000

 Dipole moment (field-independent basis, Debye):
    X=              1.2250    Y=              2.5696    Z=             -5.4406  Tot=              6.1403
 Quadrupole moment (field-independent basis, Debye-Ang):
   XX=           -514.6458   YY=           -544.8923   ZZ=           -469.5232
   XY=             29.0644   XZ=            -34.5242   YZ=             -7.3885

 Normal termination of Gaussian 16 at Thu Sep  9 02:58:41 2021.
