 Gaussian 16, Revision A.03,
 Gaussian 16:  ES64L-G16RevA.03 25-Dec-2016

 -----------------------------------
 #p cam-b3lyp/Def2SVP td=(nstates=5)
 -----------------------------------

 --------------------------------
 TDDFT excited states in gaussian
 --------------------------------
 Symbolic Z-matrix:
 Charge =  0 Multiplicity = 1

                         Standard orientation:
 ---------------------------------------------------------------------
 Center     Atomic      Atomic             Coordinates (Angstroms)
 Number     Number       Type             X           Y           Z
 ---------------------------------------------------------------------
      1         12           0        7.652126   -1.065043    0.331540
      2          6           0        8.048888    2.315300   -0.776644
      3          6           0        8.451101    0.025310    3.464563
      4          6           0        7.753161   -4.100410    1.244208
      5          6           0        8.004380   -2.041360   -2.995378
      6          7           0        8.163065    0.940077    1.118357
      7          6           0        8.221554    2.163193    0.600924
      8          6           0        8.408804    3.278894    1.672150
      9          6           0        9.078106    2.408278    2.828031
     10          6           0        8.502919    1.048720    2.472102
     11          6           0       10.598913    2.337891    2.734798
     12          6           0        7.045140    3.893847    2.134732
     13          6           0        7.152689    5.199882    2.927235
     14          1           0        6.127346    6.216131    2.744868
     15          7           0        7.564181   -1.863852    2.136262
     16          6           0        7.913529   -1.269941    3.302672
     17          6           0        7.666778   -2.273086    4.360734
     18          6           0        7.325603   -3.561298    3.695751
     19          6           0        7.562660   -3.229161    2.314133
     20          6           0        7.716659   -1.955233    5.823687
     21          6           0        6.869916   -4.885164    4.222874
     22          8           0        6.853222   -5.937221    3.496601
     23          6           0        6.522939   -4.938023    5.654605
     24          7           0        8.068536   -2.840316   -0.684651
     25          6           0        7.986026   -4.024208   -0.067742
     26          6           0        8.047117   -5.156805   -1.049287
     27          6           0        7.944295   -4.492551   -2.497717
     28          6           0        7.922937   -3.003333   -2.073400
     29          6           0        9.303212   -6.036188   -0.979136
     30          6           0        6.820553   -5.009916   -3.430431
     31          6           0        5.470247   -4.618481   -2.873159
     32          7           0        7.793494   -0.062883   -1.588547
     33          6           0        7.958209   -0.665552   -2.844068
     34          6           0        8.110135    0.421592   -3.828500
     35          6           0        8.039374    1.588483   -3.070079
     36          6           0        7.881240    1.251100   -1.695503
     37          6           0        8.344541    0.257075   -5.222208
     38          6           0        8.085268    3.041397   -3.098190
     39          8           0        8.109194    3.891145   -3.989734
     40          6           0        8.215519    3.567658   -1.600888
     41          6           0        7.207920    4.669610   -1.417161
     42          8           0        5.983821    4.428561   -1.446218
     43          8           0        7.835238    5.781034   -1.002733
     44          6           0        6.888500    6.904879   -0.772923
     45          1           0        8.915763    0.207655    4.435532
     46          1           0        7.683945   -5.159476    1.501161
     47          1           0        8.033536   -2.268064   -4.062715
     48          1           0        9.080854    4.084702    1.376436
     49          1           0        8.739391    2.715869    3.817164
     50          1           0       10.963004    2.791893    1.813255
     51          1           0       10.843102    1.275668    2.758217
     52          1           0       11.061842    2.771385    3.621679
     53          1           0        6.600703    3.251565    2.895002
     54          1           0        6.380350    4.042601    1.283115
     55          1           0        8.146458    5.639604    2.837927
     56          1           0        7.054533    4.965269    3.987198
     57          1           0        8.154192   -0.974433    6.005736
     58          1           0        8.418701   -2.654347    6.277654
     59          1           0        6.740446   -2.054067    6.298631
     60          1           0        7.390134   -4.643780    6.246165
     61          1           0        6.134039   -5.939918    5.832972
     62          1           0        5.748024   -4.198277    5.857659
     63          1           0        7.210914   -5.840711   -0.909778
     64          1           0        8.856798   -4.632725   -3.077685
     65          1           0        9.089439   -7.092826   -0.816281
     66          1           0        9.947201   -5.641888   -0.193581
     67          1           0        9.956661   -5.970002   -1.848641
     68          1           0        6.842573   -6.097879   -3.483311
     69          1           0        6.895572   -4.626818   -4.448202
     70          1           0        5.269221   -5.405297   -2.146977
     71          1           0        4.718917   -4.615431   -3.663541
     72          1           0        5.522916   -3.676547   -2.326833
     73          1           0        7.696773    0.973604   -5.727136
     74          1           0        8.131975   -0.762863   -5.541808
     75          1           0        9.405573    0.499755   -5.278548
     76          1           0        9.238224    3.924024   -1.481727
     77          1           0        7.230634    7.742266   -1.381168
     78          1           0        6.837108    7.051024    0.306154
     79          1           0        5.877392    6.769926   -1.158653
     80         12           0       -8.201953   -0.357020   -0.305923
     81          6           0       -6.018463    2.490266   -0.372250
     82          6           0       -9.507548    0.899092    2.584101
     83          6           0       -9.819828   -3.066454    0.024045
     84          6           0       -5.996069   -1.925384   -2.501374
     85          7           0       -7.740097    1.467447    0.856096
     86          6           0       -6.933443    2.506493    0.701051
     87          6           0       -7.172856    3.662631    1.708812
     88          6           0       -7.857298    2.815231    2.888775
     89          6           0       -8.438434    1.670101    2.061949
     90          6           0       -6.854809    2.233774    3.871758
     91          6           0       -8.148677    4.754435    1.145113
     92          6           0       -8.185694    6.058513    1.944954
     93          1           0       -8.362599    7.314297    1.220947
     94          7           0       -9.796839   -0.774046    0.799061
     95          6           0      -10.190376   -0.148869    1.928470
     96          6           0      -11.409475   -0.844269    2.369362
     97          6           0      -11.610995   -2.034823    1.499484
     98          6           0      -10.378734   -2.015847    0.737078
     99          6           0      -12.294211   -0.321018    3.463367
    100          6           0      -12.722390   -3.033554    1.383107
    101          8           0      -12.581178   -4.124487    0.725272
    102          6           0      -13.948839   -2.740626    2.139091
    103          7           0       -7.842565   -2.301107   -0.949103
    104          6           0       -8.732712   -3.281764   -0.717001
    105          6           0       -8.393942   -4.523945   -1.506047
    106          6           0       -7.223247   -4.091679   -2.506148
    107          6           0       -7.017582   -2.633703   -2.039889
    108          6           0       -7.941431   -5.730992   -0.684666
    109          6           0       -7.455534   -4.358211   -4.018660
    110          6           0       -8.567619   -3.473193   -4.533843
    111          7           0       -6.443207    0.220253   -1.420203
    112          6           0       -5.657926   -0.600018   -2.259596
    113          6           0       -4.503750    0.208723   -2.702567
    114          6           0       -4.686877    1.445927   -2.066716
    115          6           0       -5.860720    1.404162   -1.266813
    116          6           0       -3.445290   -0.241518   -3.541069
    117          6           0       -4.148352    2.774277   -1.881912
    118          8           0       -3.218435    3.411054   -2.375371
    119          6           0       -4.918034    3.468466   -0.676880
    120          6           0       -5.312231    4.852842   -1.113497
    121          8           0       -6.135422    5.015697   -2.031349
    122          8           0       -4.821787    5.747809   -0.236649
    123          6           0       -5.195758    7.134995   -0.620932
    124          1           0       -9.828488    1.084522    3.609534
    125          1           0      -10.399705   -3.992275    0.016297
    126          1           0       -5.316045   -2.310353   -3.264290
    127          1           0       -6.272042    4.143609    2.070718
    128          1           0       -8.651834    3.379194    3.370474
    129          1           0       -5.836449    2.387977    3.547236
    130          1           0       -7.077811    1.176379    3.928488
    131          1           0       -7.033995    2.633764    4.873867
    132          1           0       -9.183560    4.417426    1.287207
    133          1           0       -7.929239    4.967249    0.116920
    134          1           0       -7.347150    6.134947    2.647762
    135          1           0       -9.071500    6.048203    2.584687
    136          1           0      -11.803719    0.481310    4.028246
    137          1           0      -12.415582   -1.130599    4.191181
    138          1           0      -13.279729   -0.021017    3.100850
    139          1           0      -13.708939   -2.651154    3.195923
    140          1           0      -14.658371   -3.521609    1.858920
    141          1           0      -14.332103   -1.765077    1.819689
    142          1           0       -9.245679   -4.858222   -2.085620
    143          1           0       -6.285892   -4.625537   -2.291210
    144          1           0       -8.560949   -6.631730   -0.854794
    145          1           0       -7.950925   -5.454960    0.361394
    146          1           0       -6.905508   -6.029954   -0.835311
    147          1           0       -7.781426   -5.389347   -4.175826
    148          1           0       -6.569411   -4.204496   -4.625410
    149          1           0       -9.470638   -4.026966   -4.260016
    150          1           0       -8.491415   -3.350943   -5.612397
    151          1           0       -8.591192   -2.517886   -3.996728
    152          1           0       -3.255460    0.549270   -4.254589
    153          1           0       -3.701885   -1.174229   -4.039054
    154          1           0       -2.653128   -0.376405   -2.799758
    155          1           0       -4.240634    3.486087    0.177753
    156          1           0       -4.265913    7.707045   -0.697345
    157          1           0       -5.930605    7.466968    0.136398
    158          1           0       -5.618132    7.285135   -1.607600
 ---------------------------------------------------------------------

 SCF Done:  E(RCAM-B3LYP) =  -4069.81133195     A.U. after   19 cycles

 Excitation energies and oscillator strengths:

 Excited State   1:      Singlet-A      1.6709 eV  742.01 nm  f=0.1628  <S**2>=0.000
     309 -> 315       -0.10327
     310 -> 316        0.13848
     311 -> 313        0.55104
     312 -> 314       -0.40905
 This state for optimization and/or second-order correction.
 Total Energy, E(TD-HF/TD-DFT) =  -4069.74992624
 Copying the excited state density for this state as the 1-particle RhoCI density.

 Excited State   2:      Singlet-A      1.6845 eV  736.01 nm  f=0.6083  <S**2>=0.000
     309 -> 315        0.14171
     310 -> 316        0.10469
     311 -> 313        0.40865
     312 -> 314        0.55032

 Excited State   3:      Singlet-A      2.1858 eV  567.22 nm  f=0.0435  <S**2>=0.000
     309 -> 314       -0.19032
     310 -> 313        0.61378
     311 -> 316       -0.26089

 Excited State   4:      Singlet-A      2.1924 eV  565.51 nm  f=0.1485  <S**2>=0.000
     309 -> 314        0.61194
     310 -> 313        0.18918
     312 -> 315       -0.26598

 Excited State   5:      Singlet-A      2.7746 eV  446.86 nm  f=0.0000  <S**2>=0.000
     312 -> 313        0.70691

 The electronic state is 1-A.
 Alpha  occ. eigenvalues --  -46.87681 -46.87572 -19.26232 -19.26095 -19.19043
 Alpha  occ. eigenvalues --  -19.18818 -19.18727 -19.18637 -19.18026 -19.17906
 Alpha  occ. eigenvalues --  -14.42413 -14.42335 -14.41340 -14.41271 -14.39291
 Alpha  occ. eigenvalues --  -14.39263 -14.38504 -14.38466 -10.38974 -10.38886
 Alpha  occ. eigenvalues --  -10.35362 -10.35316 -10.34244 -10.34086 -10.31644
 Alpha  occ. eigenvalues --  -10.31483 -10.31284 -10.31216 -10.30942 -10.30794
 Alpha  occ. eigenvalues --  -10.30449 -10.30392 -10.30301 -10.30261 -10.30109
 Alpha  occ. eigenvalues --  -10.30062 -10.29809 -10.29800 -10.29516 -10.29351
 Alpha  occ. eigenvalues --  -10.29304 -10.29148 -10.28645 -10.28626 -10.28593
 Alpha  occ. eigenvalues --  -10.28408 -10.28311 -10.28246 -10.28070 -10.28002
 Alpha  occ. eigenvalues --  -10.27897 -10.27676 -10.27616 -10.27584 -10.27475
 Alpha  occ. eigenvalues --  -10.27441 -10.27413 -10.27397 -10.27395 -10.27392
 Alpha  occ. eigenvalues --  -10.27374 -10.27362 -10.27298 -10.27283 -10.27010
 Alpha  occ. eigenvalues --  -10.26930 -10.26622 -10.26566 -10.26353 -10.26343
 Alpha  occ. eigenvalues --  -10.26131 -10.26105 -10.26064 -10.25968 -10.25911
 Alpha  occ. eigenvalues --  -10.25845 -10.25714 -10.25698 -10.25357 -10.25327
 Alpha  occ. eigenvalues --  -10.24766 -10.24710 -10.24679 -10.24658 -10.24611
 Alpha  occ. eigenvalues --  -10.24600  -3.16424  -3.16322  -1.91305  -1.91204
 Alpha  occ. eigenvalues --   -1.90892  -1.90793  -1.90734  -1.90629  -1.16526
 Alpha  occ. eigenvalues --   -1.16442  -1.08511  -1.08478  -1.07130  -1.06891
 Alpha  occ. eigenvalues --   -1.06826  -1.06444  -1.04465  -1.04408  -1.03650
 Alpha  occ. eigenvalues --   -1.03574  -1.03120  -1.02948  -1.02297  -1.02019
 Alpha  occ. eigenvalues --   -0.91886  -0.91845  -0.89418  -0.89408  -0.89077
 Alpha  occ. eigenvalues --   -0.89069  -0.88189  -0.88138  -0.87748  -0.87678
 Alpha  occ. eigenvalues --   -0.87597  -0.87559  -0.87175  -0.87038  -0.84921
 Alpha  occ. eigenvalues --   -0.84864  -0.83837  -0.83793  -0.82880  -0.82856
 Alpha  occ. eigenvalues --   -0.82572  -0.82532  -0.81493  -0.81441  -0.80471
 Alpha  occ. eigenvalues --   -0.80348  -0.78691  -0.78543  -0.77109  -0.77061
 Alpha  occ. eigenvalues --   -0.76813  -0.76810  -0.75796  -0.75749  -0.74794
 Alpha  occ. eigenvalues --   -0.74719  -0.72661  -0.72602  -0.71559  -0.71495
 Alpha  occ. eigenvalues --   -0.69816  -0.69679  -0.68758  -0.68745  -0.67526
 Alpha  occ. eigenvalues --   -0.67508  -0.67123  -0.67103  -0.65187  -0.65163
 Alpha  occ. eigenvalues --   -0.64730  -0.64679  -0.64563  -0.64499  -0.64165
 Alpha  occ. eigenvalues --   -0.64118  -0.62175  -0.62146  -0.60342  -0.60255
 Alpha  occ. eigenvalues --   -0.59714  -0.59686  -0.58900  -0.58871  -0.58384
 Alpha  occ. eigenvalues --   -0.58330  -0.57439  -0.57438  -0.57192  -0.57144
 Alpha  occ. eigenvalues --   -0.56194  -0.56107  -0.55823  -0.55787  -0.55411
 Alpha  occ. eigenvalues --   -0.55360  -0.55221  -0.55154  -0.54393  -0.54389
 Alpha  occ. eigenvalues --   -0.53836  -0.53774  -0.53191  -0.53137  -0.53106
 Alpha  occ. eigenvalues --   -0.53053  -0.52810  -0.52781  -0.52655  -0.52595
 Alpha  occ. eigenvalues --   -0.52343  -0.52320  -0.51786  -0.51753  -0.51578
 Alpha  occ. eigenvalues --   -0.51497  -0.51096  -0.51072  -0.50487  -0.50403
 Alpha  occ. eigenvalues --   -0.49939  -0.49903  -0.49818  -0.49786  -0.49407
 Alpha  occ. eigenvalues --   -0.49402  -0.49109  -0.49092  -0.49007  -0.48977
 Alpha  occ. eigenvalues --   -0.48462  -0.48460  -0.48364  -0.48327  -0.48286
 Alpha  occ. eigenvalues --   -0.48247  -0.47583  -0.47509  -0.47187  -0.47034
 Alpha  occ. eigenvalues --   -0.46686  -0.46622  -0.46476  -0.46435  -0.46246
 Alpha  occ. eigenvalues --   -0.46180  -0.46039  -0.45986  -0.45711  -0.45683
 Alpha  occ. eigenvalues --   -0.45126  -0.45102  -0.44446  -0.44421  -0.44406
 Alpha  occ. eigenvalues --   -0.44385  -0.44040  -0.44038  -0.43991  -0.43976
 Alpha  occ. eigenvalues --   -0.43895  -0.43844  -0.43454  -0.43354  -0.43296
 Alpha  occ. eigenvalues --   -0.43275  -0.42909  -0.42831  -0.42792  -0.42584
 Alpha  occ. eigenvalues --   -0.42500  -0.42472  -0.41899  -0.41882  -0.41583
 Alpha  occ. eigenvalues --   -0.41563  -0.41417  -0.41380  -0.41029  -0.40904
 Alpha  occ. eigenvalues --   -0.40761  -0.40729  -0.40648  -0.40624  -0.40468
 Alpha  occ. eigenvalues --   -0.40411  -0.40157  -0.40111  -0.39353  -0.39348
 Alpha  occ. eigenvalues --   -0.38370  -0.38272  -0.37624  -0.37578  -0.37217
 Alpha  occ. eigenvalues --   -0.37182  -0.37140  -0.37115  -0.36663  -0.36555
 Alpha  occ. eigenvalues --   -0.36127  -0.36054  -0.34169  -0.34161  -0.33749
 Alpha  occ. eigenvalues --   -0.33584  -0.33083  -0.33064  -0.31256  -0.31196
 Alpha  occ. eigenvalues --   -0.30920  -0.30883  -0.29883  -0.29810  -0.29339
 Alpha  occ. eigenvalues --   -0.29235  -0.29199  -0.29103  -0.23964  -0.23945
 Alpha  occ. eigenvalues --   -0.21026  -0.21015
 Alpha virt. eigenvalues --   -0.08697  -0.08661  -0.01640  -0.01597   0.00048
 Alpha virt. eigenvalues --    0.00059   0.02323   0.02327   0.03253   0.03308
 Alpha virt. eigenvalues --    0.04810   0.04834   0.05282   0.05283   0.06254

 Mulliken charges:
               1
     1  Mg   0.839025
     2  C   -0.002537
     3  C   -0.094171
     4  C   -0.046046
     5  C   -0.064093
     6  N   -0.256705
     7  C   -0.052345
     8  C   -0.014015
     9  C   -0.086992
    10  C    0.046326
    11  C    0.104882
    12  C    0.053470
    13  C   -0.071763
    14  H    0.036564
    15  N   -0.433041
    16  C    0.168339
    17  C   -0.177360
    18  C   -0.004240
    19  C    0.148645
    20  C    0.110276
    21  C    0.012094
    22  O   -0.249978
    23  C    0.062563
    24  N   -0.341140
    25  C    0.041150
    26  C   -0.028069
    27  C   -0.023981
    28  C    0.074943
    29  C    0.076259
    30  C    0.035172
    31  C   -0.004460
    32  N   -0.310635
    33  C    0.080745
    34  C   -0.169346
    35  C    0.008623
    36  C    0.083410
    37  C    0.127159
    38  C    0.046735
    39  O   -0.187811
    40  C   -0.005553
    41  C    0.212753
    42  O   -0.255627
    43  O   -0.305230
    44  C    0.157381
    45  H   -0.017898
    46  H   -0.017181
    47  H   -0.041540
    48  H    0.000916
    49  H   -0.004240
    50  H    0.025444
    51  H    0.016297
    52  H    0.016373
    53  H    0.011090
    54  H    0.045042
    55  H    0.017599
    56  H    0.017488
    57  H    0.005725
    58  H    0.026512
    59  H    0.039171
    60  H    0.037239
    61  H    0.035272
    62  H    0.031338
    63  H    0.016261
    64  H    0.009359
    65  H    0.022919
    66  H    0.012513
    67  H    0.004613
    68  H    0.006022
    69  H    0.004810
    70  H    0.008407
    71  H    0.017907
    72  H    0.029469
    73  H    0.048294
    74  H    0.008995
    75  H    0.045825
    76  H    0.034883
    77  H    0.042754
    78  H    0.045949
    79  H    0.054991
    80  Mg   0.837640
    81  C   -0.016754
    82  C   -0.087934
    83  C   -0.045600
    84  C   -0.064907
    85  N   -0.254511
    86  C   -0.049891
    87  C   -0.015036
    88  C   -0.090476
    89  C    0.045644
    90  C    0.114443
    91  C    0.062589
    92  C   -0.077739
    93  H    0.034861
    94  N   -0.423448
    95  C    0.162745
    96  C   -0.174873
    97  C   -0.007999
    98  C    0.151974
    99  C    0.099473
   100  C    0.015422
   101  O   -0.253408
   102  C    0.061268
   103  N   -0.350032
   104  C    0.037393
   105  C   -0.019758
   106  C   -0.034859
   107  C    0.089041
   108  C    0.073716
   109  C    0.034744
   110  C   -0.007654
   111  N   -0.324221
   112  C    0.078540
   113  C   -0.163015
   114  C    0.002758
   115  C    0.096137
   116  C    0.131663
   117  C    0.042776
   118  O   -0.185813
   119  C    0.000711
   120  C    0.211557
   121  O   -0.251117
   122  O   -0.305593
   123  C    0.151999
   124  H   -0.020033
   125  H   -0.015788
   126  H   -0.040283
   127  H   -0.000671
   128  H   -0.004560
   129  H    0.022457
   130  H    0.014331
   131  H    0.015801
   132  H    0.013847
   133  H    0.037843
   134  H    0.020589
   135  H    0.019363
   136  H    0.008518
   137  H    0.025815
   138  H    0.039557
   139  H    0.038091
   140  H    0.036173
   141  H    0.033823
   142  H    0.014260
   143  H    0.012459
   144  H    0.024940
   145  H    0.011546
   146  H    0.005651
   147  H    0.006092
   148  H    0.003732
   149  H    0.010813
   150  H    0.017914
   151  H    0.030206
   152  H    0.046823
   153  H    0.008175
   154  H    0.047854
   155  H    0.035304
   156  H    0.044231
   157  H    0.048994
   158  H    0.053677
 Sum of Mulliken charges =  -0.00000

 Dipole moment (field-independent basis, Debye):
    X=              0.1921    Y=             -0.2680    Z=              8.0783  Tot=              8.0850
 Quadrupole moment (field-independent basis, Debye-Ang):
   XX=           -470.2928   YY=           -511.2393   ZZ=           -482.3788
   XY=            -23.3157   XZ=             -2.7950   YZ=             59.6678

 Normal termination of Gaussian 16 at Sun Sep 12 03:56:06 2021.
