 Gaussian 16, Revision A.03,
 Gaussian 16:  ES64L-G16RevA.03 25-Dec-2016

 -----------------------------------
 #p cam-b3lyp/Def2SVP td=(nstates=5)
 -----------------------------------

 --------------------------------
 TDDFT excited states in gaussian
 --------------------------------
 Symbolic Z-matrix:
 Charge =  0 Multiplicity = 1

                         Standard orientation:
 ---------------------------------------------------------------------
 Center     Atomic      Atomic             Coordinates (Angstroms)
 Number     Number       Type             X           Y           Z
 ---------------------------------------------------------------------
      1         12           0       -7.943854   -0.556414    0.183035
      2          6           0       -8.036618    2.997139    0.602404
      3          6           0       -8.866350   -0.048101   -3.062529
      4          6           0       -8.310541   -3.694473   -0.090372
      5          6           0       -8.147241   -0.822993    3.651930
      6          7           0       -8.366156    1.287356   -0.967104
      7          6           0       -8.307533    2.589423   -0.705655
      8          6           0       -8.486639    3.482111   -1.969935
      9          6           0       -9.286827    2.456038   -2.891278
     10          6           0       -8.784172    1.152441   -2.296385
     11          6           0      -10.799735    2.527171   -2.710855
     12          6           0       -7.116734    3.882353   -2.614060
     13          6           0       -7.185556    5.009836   -3.648178
     14          1           0       -6.083572    5.956895   -3.726026
     15          7           0       -8.026970   -1.701338   -1.424787
     16          6           0       -8.409232   -1.324312   -2.668577
     17          6           0       -8.300172   -2.533618   -3.512596
     18          6           0       -8.005741   -3.687606   -2.618327
     19          6           0       -8.130181   -3.070499   -1.322537
     20          6           0       -8.422227   -2.508938   -5.005326
     21          6           0       -7.676425   -5.121731   -2.888450
     22          8           0       -7.684965   -6.006963   -1.966026
     23          6           0       -7.426693   -5.484709   -4.295192
     24          7           0       -8.414348   -2.056158    1.556730
     25          6           0       -8.452776   -3.341531    1.188866
     26          6           0       -8.527838   -4.248664    2.381097
     27          6           0       -8.286910   -3.321005    3.658264
     28          6           0       -8.191193   -1.951919    2.940831
     29          6           0       -9.842985   -5.021360    2.552380
     30          6           0       -7.143474   -3.731378    4.619809
     31          6           0       -5.808232   -3.567188    3.928963
     32          7           0       -7.892609    0.814288    1.865175
     33          6           0       -8.017008    0.487404    3.223242
     34          6           0       -8.030658    1.756612    3.973571
     35          6           0       -7.929271    2.740678    2.992153
     36          6           0       -7.883311    2.126143    1.708204
     37          6           0       -8.185614    1.890711    5.381562
     38          6           0       -7.873886    4.169297    2.727887
     39          8           0       -7.782296    5.177965    3.429094
     40          6           0       -8.063926    4.397188    1.163349
     41          6           0       -6.997303    5.356863    0.710967
     42          8           0       -5.793206    5.029397    0.727809
     43          8           0       -7.572576    6.410625    0.111645
     44          6           0       -6.568014    7.387418   -0.387239
     45          1           0       -9.378964   -0.025220   -4.026191
     46          1           0       -8.330519   -4.785530   -0.130781
     47          1           0       -8.123097   -0.830691    4.743173
     48          1           0       -9.081644    4.381564   -1.810639
     49          1           0       -8.992222    2.533533   -3.937664
     50          1           0      -11.071918    3.182330   -1.883447
     51          1           0      -11.116927    1.504319   -2.506760
     52          1           0      -11.288055    2.811927   -3.643183
     53          1           0       -6.767048    3.068793   -3.249593
     54          1           0       -6.389930    4.143306   -1.844004
     55          1           0       -8.139151    5.536450   -3.600813
     56          1           0       -7.172049    4.562815   -4.642255
     57          1           0       -8.802528   -1.551903   -5.360290
     58          1           0       -9.198140   -3.225799   -5.273241
     59          1           0       -7.487627   -2.777524   -5.497989
     60          1           0       -8.308011   -5.245208   -4.890562
     61          1           0       -7.119436   -6.529870   -4.286071
     62          1           0       -6.617717   -4.864132   -4.681704
     63          1           0       -7.751026   -5.011190    2.341816
     64          1           0       -9.167654   -3.270192    4.298874
     65          1           0       -9.712825   -6.102945    2.596386
     66          1           0      -10.507727   -4.740364    1.736015
     67          1           0      -10.433095   -4.732274    3.421642
     68          1           0       -7.236329   -4.782001    4.892784
     69          1           0       -7.126515   -3.149504    5.541430
     70          1           0       -5.708566   -4.495758    3.368022
     71          1           0       -5.009164   -3.467618    4.664345
     72          1           0       -5.831456   -2.751016    3.206599
     73          1           0       -7.459267    2.639014    5.698473
     74          1           0       -8.023112    0.940651    5.890074
     75          1           0       -9.221758    2.223668    5.439874
     76          1           0       -9.065435    4.803380    1.025113
     77          1           0       -6.812297    8.353295    0.055076
     78          1           0       -6.576280    7.312316   -1.474757
     79          1           0       -5.545775    7.251264   -0.032515
     80         12           0        7.927710   -1.009681   -0.125715
     81          6           0        8.611933    2.495108    0.231136
     82          6           0        6.338115   -0.249614   -3.046339
     83          6           0        6.921251   -4.016390   -0.244862
     84          6           0        8.539243   -1.335151    3.289811
     85          7           0        7.586018    0.911066   -1.167923
     86          6           0        7.945598    2.170194   -0.968805
     87          6           0        7.641045    3.121649   -2.156893
     88          6           0        6.448566    2.286255   -2.834391
     89          6           0        6.826548    0.886796   -2.353436
     90          6           0        5.078633    2.630198   -2.273741
     91          6           0        8.862344    3.272044   -3.130449
     92          6           0        8.744957    4.418683   -4.137027
     93          1           0        9.956238    5.143908   -4.510301
     94          7           0        7.233756   -2.072183   -1.651525
     95          6           0        6.638384   -1.601003   -2.767231
     96          6           0        6.293392   -2.784737   -3.569676
     97          6           0        6.585084   -4.000200   -2.762038
     98          6           0        6.912287   -3.396464   -1.485903
     99          6           0        5.818971   -2.694213   -4.990994
    100          6           0        6.559718   -5.464296   -3.081386
    101          8           0        6.618071   -6.355167   -2.161735
    102          6           0        6.370557   -5.823921   -4.494323
    103          7           0        7.546982   -2.428453    1.345507
    104          6           0        7.169036   -3.677213    1.020393
    105          6           0        7.221238   -4.592715    2.220186
    106          6           0        7.947500   -3.752195    3.370694
    107          6           0        8.116938   -2.406331    2.632236
    108          6           0        5.871771   -5.095650    2.732415
    109          6           0        9.197841   -4.396053    4.030060
    110          6           0       10.325741   -4.478189    3.026829
    111          7           0        8.653770    0.273527    1.453615
    112          6           0        8.808593   -0.056860    2.817777
    113          6           0        9.221861    1.175425    3.520001
    114          6           0        9.256771    2.150260    2.511549
    115          6           0        8.871529    1.571274    1.272245
    116          6           0        9.460320    1.296030    4.918109
    117          6           0        9.521641    3.539840    2.215572
    118          8           0        9.965731    4.494304    2.852384
    119          6           0        8.993732    3.853810    0.749584
    120          6           0       10.072431    4.605011    0.018414
    121          8           0       11.157309    4.056812   -0.244513
    122          8           0        9.568643    5.765916   -0.438605
    123          6           0       10.597997    6.541724   -1.180473
    124          1           0        5.623280   -0.096401   -3.855302
    125          1           0        6.688422   -5.083746   -0.249290
    126          1           0        8.844208   -1.376029    4.337667
    127          1           0        7.290121    4.106245   -1.871952
    128          1           0        6.493844    2.341888   -3.918922
    129          1           0        5.145695    3.296720   -1.426743
    130          1           0        4.636162    1.687557   -1.979289
    131          1           0        4.437353    3.030241   -3.064342
    132          1           0        8.878165    2.417929   -3.819633
    133          1           0        9.778542    3.366257   -2.580611
    134          1           0        7.943792    5.119330   -3.872108
    135          1           0        8.432295    4.005324   -5.099001
    136          1           0        5.543782   -1.666542   -5.258535
    137          1           0        4.877838   -3.251549   -5.050067
    138          1           0        6.529388   -3.124065   -5.700374
    139          1           0        5.434081   -5.402540   -4.851970
    140          1           0        6.469856   -6.910357   -4.535164
    141          1           0        7.169635   -5.360142   -5.083377
    142          1           0        7.809104   -5.476970    2.006618
    143          1           0        7.276693   -3.561643    4.221310
    144          1           0        5.800277   -6.199296    2.762899
    145          1           0        5.092972   -4.681311    2.106051
    146          1           0        5.589575   -4.735795    3.720381
    147          1           0        8.978832   -5.422144    4.335537
    148          1           0        9.543696   -3.864792    4.910483
    149          1           0       10.098967   -5.395385    2.475099
    150          1           0       11.285505   -4.550050    3.534498
    151          1           0       10.280783   -3.645708    2.315071
    152          1           0       10.362366    1.882676    5.030627
    153          1           0        9.557941    0.320726    5.390366
    154          1           0        8.547844    1.812551    5.227747
    155          1           0        8.080706    4.442068    0.849166
    156          1           0       10.655436    7.528055   -0.709800
    157          1           0       10.290035    6.507515   -2.242424
    158          1           0       11.627013    6.210536   -1.103771
 ---------------------------------------------------------------------

 SCF Done:  E(RCAM-B3LYP) =  -4069.81171192     A.U. after   19 cycles

 Excitation energies and oscillator strengths:

 Excited State   1:      Singlet-A      1.6700 eV  742.44 nm  f=0.0364  <S**2>=0.000
     309 -> 315       -0.10318
     310 -> 316        0.13818
     311 -> 313       -0.40915
     312 -> 314        0.55107
 This state for optimization and/or second-order correction.
 Total Energy, E(TD-HF/TD-DFT) =  -4069.75034202
 Copying the excited state density for this state as the 1-particle RhoCI density.

 Excited State   2:      Singlet-A      1.6849 eV  735.84 nm  f=0.7226  <S**2>=0.000
     309 -> 315        0.14209
     310 -> 316        0.10485
     311 -> 313        0.55025
     312 -> 314        0.40863

 Excited State   3:      Singlet-A      2.1853 eV  567.36 nm  f=0.0581  <S**2>=0.000
     309 -> 313       -0.13771
     310 -> 314        0.62789
     312 -> 316       -0.26616

 Excited State   4:      Singlet-A      2.1929 eV  565.38 nm  f=0.1352  <S**2>=0.000
     309 -> 313        0.62584
     310 -> 314        0.13662
     311 -> 315       -0.27215

 Excited State   5:      Singlet-A      2.7574 eV  449.65 nm  f=0.0000  <S**2>=0.000
     312 -> 313        0.70709

 The electronic state is 1-A.
 Alpha  occ. eigenvalues --  -46.87863 -46.87591 -19.26358 -19.26285 -19.19097
 Alpha  occ. eigenvalues --  -19.19095 -19.18878 -19.18660 -19.18231 -19.17979
 Alpha  occ. eigenvalues --  -14.42518 -14.42427 -14.41513 -14.41290 -14.39469
 Alpha  occ. eigenvalues --  -14.39285 -14.38652 -14.38530 -10.39154 -10.39025
 Alpha  occ. eigenvalues --  -10.35512 -10.35339 -10.34451 -10.34156 -10.31756
 Alpha  occ. eigenvalues --  -10.31698 -10.31473 -10.31236 -10.30980 -10.30955
 Alpha  occ. eigenvalues --  -10.30636 -10.30570 -10.30329 -10.30291 -10.30269
 Alpha  occ. eigenvalues --  -10.30075 -10.29980 -10.29824 -10.29695 -10.29371
 Alpha  occ. eigenvalues --  -10.29336 -10.29320 -10.28830 -10.28648 -10.28644
 Alpha  occ. eigenvalues --  -10.28606 -10.28432 -10.28337 -10.28192 -10.28063
 Alpha  occ. eigenvalues --  -10.27933 -10.27857 -10.27795 -10.27650 -10.27600
 Alpha  occ. eigenvalues --  -10.27559 -10.27552 -10.27499 -10.27471 -10.27453
 Alpha  occ. eigenvalues --  -10.27425 -10.27414 -10.27403 -10.27309 -10.27225
 Alpha  occ. eigenvalues --  -10.26976 -10.26803 -10.26635 -10.26480 -10.26377
 Alpha  occ. eigenvalues --  -10.26302 -10.26229 -10.26081 -10.26081 -10.25921
 Alpha  occ. eigenvalues --  -10.25894 -10.25867 -10.25777 -10.25479 -10.25325
 Alpha  occ. eigenvalues --  -10.24896 -10.24850 -10.24803 -10.24733 -10.24679
 Alpha  occ. eigenvalues --  -10.24621  -3.16606  -3.16341  -1.91488  -1.91223
 Alpha  occ. eigenvalues --   -1.91074  -1.90916  -1.90812  -1.90649  -1.16707
 Alpha  occ. eigenvalues --   -1.16579  -1.08689  -1.08586  -1.07279  -1.06913
 Alpha  occ. eigenvalues --   -1.06881  -1.06717  -1.04649  -1.04425  -1.03825
 Alpha  occ. eigenvalues --   -1.03594  -1.03298  -1.02970  -1.02476  -1.02042
 Alpha  occ. eigenvalues --   -0.92038  -0.91916  -0.89577  -0.89429  -0.89265
 Alpha  occ. eigenvalues --   -0.89078  -0.88343  -0.88155  -0.87931  -0.87742
 Alpha  occ. eigenvalues --   -0.87723  -0.87616  -0.87342  -0.87065  -0.85058
 Alpha  occ. eigenvalues --   -0.84932  -0.83991  -0.83812  -0.83032  -0.82879
 Alpha  occ. eigenvalues --   -0.82720  -0.82588  -0.81655  -0.81531  -0.80664
 Alpha  occ. eigenvalues --   -0.80378  -0.78864  -0.78574  -0.77285  -0.77079
 Alpha  occ. eigenvalues --   -0.77005  -0.76832  -0.75993  -0.75768  -0.74955
 Alpha  occ. eigenvalues --   -0.74735  -0.72837  -0.72631  -0.71736  -0.71509
 Alpha  occ. eigenvalues --   -0.69960  -0.69696  -0.68946  -0.68761  -0.67707
 Alpha  occ. eigenvalues --   -0.67537  -0.67300  -0.67142  -0.65361  -0.65204
 Alpha  occ. eigenvalues --   -0.64919  -0.64703  -0.64688  -0.64587  -0.64328
 Alpha  occ. eigenvalues --   -0.64139  -0.62366  -0.62213  -0.60507  -0.60280
 Alpha  occ. eigenvalues --   -0.59877  -0.59725  -0.59051  -0.58925  -0.58568
 Alpha  occ. eigenvalues --   -0.58358  -0.57651  -0.57485  -0.57371  -0.57172
 Alpha  occ. eigenvalues --   -0.56375  -0.56139  -0.56052  -0.55823  -0.55587
 Alpha  occ. eigenvalues --   -0.55398  -0.55391  -0.55182  -0.54586  -0.54423
 Alpha  occ. eigenvalues --   -0.53972  -0.53842  -0.53363  -0.53294  -0.53164
 Alpha  occ. eigenvalues --   -0.53078  -0.52983  -0.52838  -0.52828  -0.52613
 Alpha  occ. eigenvalues --   -0.52490  -0.52342  -0.51972  -0.51813  -0.51693
 Alpha  occ. eigenvalues --   -0.51596  -0.51260  -0.51134  -0.50643  -0.50426
 Alpha  occ. eigenvalues --   -0.50089  -0.49986  -0.49914  -0.49804  -0.49586
 Alpha  occ. eigenvalues --   -0.49425  -0.49281  -0.49167  -0.49135  -0.49031
 Alpha  occ. eigenvalues --   -0.48659  -0.48520  -0.48510  -0.48489  -0.48310
 Alpha  occ. eigenvalues --   -0.48281  -0.47763  -0.47531  -0.47362  -0.47057
 Alpha  occ. eigenvalues --   -0.46861  -0.46643  -0.46632  -0.46487  -0.46423
 Alpha  occ. eigenvalues --   -0.46224  -0.46206  -0.46018  -0.45886  -0.45753
 Alpha  occ. eigenvalues --   -0.45257  -0.45141  -0.44643  -0.44576  -0.44447
 Alpha  occ. eigenvalues --   -0.44410  -0.44207  -0.44160  -0.44086  -0.44057
 Alpha  occ. eigenvalues --   -0.44017  -0.43879  -0.43561  -0.43488  -0.43454
 Alpha  occ. eigenvalues --   -0.43318  -0.43091  -0.42866  -0.42833  -0.42766
 Alpha  occ. eigenvalues --   -0.42714  -0.42491  -0.42072  -0.41901  -0.41768
 Alpha  occ. eigenvalues --   -0.41609  -0.41600  -0.41394  -0.41207  -0.40940
 Alpha  occ. eigenvalues --   -0.40917  -0.40892  -0.40665  -0.40636  -0.40630
 Alpha  occ. eigenvalues --   -0.40427  -0.40322  -0.40168  -0.39493  -0.39365
 Alpha  occ. eigenvalues --   -0.38529  -0.38284  -0.37832  -0.37593  -0.37380
 Alpha  occ. eigenvalues --   -0.37339  -0.37200  -0.37132  -0.36782  -0.36707
 Alpha  occ. eigenvalues --   -0.36258  -0.36151  -0.34351  -0.34185  -0.33844
 Alpha  occ. eigenvalues --   -0.33797  -0.33252  -0.33107  -0.31407  -0.31219
 Alpha  occ. eigenvalues --   -0.31101  -0.30904  -0.30090  -0.29883  -0.29515
 Alpha  occ. eigenvalues --   -0.29385  -0.29263  -0.29142  -0.24146  -0.23966
 Alpha  occ. eigenvalues --   -0.21193  -0.21049
 Alpha virt. eigenvalues --   -0.08839  -0.08725  -0.01814  -0.01616  -0.00125
 Alpha virt. eigenvalues --    0.00034   0.02138   0.02277   0.03045   0.03288
 Alpha virt. eigenvalues --    0.04645   0.04799   0.05025   0.05231   0.06090

 Mulliken charges:
               1
     1  Mg   0.838578
     2  C   -0.003084
     3  C   -0.094364
     4  C   -0.045792
     5  C   -0.063853
     6  N   -0.256786
     7  C   -0.052540
     8  C   -0.013968
     9  C   -0.086972
    10  C    0.046228
    11  C    0.104800
    12  C    0.053563
    13  C   -0.071627
    14  H    0.035638
    15  N   -0.433149
    16  C    0.168322
    17  C   -0.177307
    18  C   -0.004017
    19  C    0.148674
    20  C    0.110208
    21  C    0.012276
    22  O   -0.249384
    23  C    0.062527
    24  N   -0.341130
    25  C    0.041234
    26  C   -0.028220
    27  C   -0.024007
    28  C    0.074845
    29  C    0.076119
    30  C    0.035099
    31  C   -0.004529
    32  N   -0.310496
    33  C    0.080418
    34  C   -0.169592
    35  C    0.008419
    36  C    0.082973
    37  C    0.127291
    38  C    0.046173
    39  O   -0.188222
    40  C   -0.005364
    41  C    0.212954
    42  O   -0.257320
    43  O   -0.304723
    44  C    0.157689
    45  H   -0.017641
    46  H   -0.016678
    47  H   -0.041311
    48  H    0.001046
    49  H   -0.004248
    50  H    0.025573
    51  H    0.016557
    52  H    0.016669
    53  H    0.010840
    54  H    0.043971
    55  H    0.018144
    56  H    0.017747
    57  H    0.005763
    58  H    0.026952
    59  H    0.039125
    60  H    0.037377
    61  H    0.035822
    62  H    0.031095
    63  H    0.016685
    64  H    0.009583
    65  H    0.023365
    66  H    0.012543
    67  H    0.004855
    68  H    0.006536
    69  H    0.004804
    70  H    0.008919
    71  H    0.018212
    72  H    0.028801
    73  H    0.047713
    74  H    0.009225
    75  H    0.046138
    76  H    0.035260
    77  H    0.043184
    78  H    0.046217
    79  H    0.053576
    80  Mg   0.838003
    81  C   -0.016816
    82  C   -0.087746
    83  C   -0.045462
    84  C   -0.064746
    85  N   -0.254595
    86  C   -0.049583
    87  C   -0.015127
    88  C   -0.090596
    89  C    0.045875
    90  C    0.114367
    91  C    0.062566
    92  C   -0.077761
    93  H    0.034623
    94  N   -0.423489
    95  C    0.162929
    96  C   -0.174667
    97  C   -0.007885
    98  C    0.152133
    99  C    0.099437
   100  C    0.015533
   101  O   -0.253199
   102  C    0.061242
   103  N   -0.350000
   104  C    0.037583
   105  C   -0.019867
   106  C   -0.034825
   107  C    0.088960
   108  C    0.073610
   109  C    0.034746
   110  C   -0.007638
   111  N   -0.324138
   112  C    0.078535
   113  C   -0.163015
   114  C    0.002383
   115  C    0.096207
   116  C    0.131444
   117  C    0.042512
   118  O   -0.187786
   119  C    0.000865
   120  C    0.211223
   121  O   -0.251189
   122  O   -0.305494
   123  C    0.152095
   124  H   -0.019811
   125  H   -0.015624
   126  H   -0.040451
   127  H   -0.000428
   128  H   -0.004704
   129  H    0.023072
   130  H    0.014824
   131  H    0.016186
   132  H    0.013755
   133  H    0.037609
   134  H    0.020908
   135  H    0.019358
   136  H    0.008557
   137  H    0.025889
   138  H    0.039497
   139  H    0.038086
   140  H    0.036248
   141  H    0.033742
   142  H    0.014249
   143  H    0.012564
   144  H    0.024990
   145  H    0.011940
   146  H    0.005755
   147  H    0.006170
   148  H    0.003632
   149  H    0.010856
   150  H    0.017802
   151  H    0.030115
   152  H    0.045905
   153  H    0.008415
   154  H    0.047382
   155  H    0.035510
   156  H    0.043932
   157  H    0.049384
   158  H    0.053443
 Sum of Mulliken charges =  -0.00000

 Dipole moment (field-independent basis, Debye):
    X=             -5.2632    Y=             -1.3555    Z=             -7.0479  Tot=              8.9001
 Quadrupole moment (field-independent basis, Debye-Ang):
   XX=           -536.3715   YY=           -542.4900   ZZ=           -454.0955
   XY=            -10.7600   XZ=              8.6771   YZ=            -52.6363

 Normal termination of Gaussian 16 at Sat Sep 11 22:34:36 2021.
