 Gaussian 16, Revision A.03,
 Gaussian 16:  ES64L-G16RevA.03 25-Dec-2016

 -----------------------------------
 #p cam-b3lyp/Def2SVP td=(nstates=5)
 -----------------------------------

 --------------------------------
 TDDFT excited states in gaussian
 --------------------------------
 Symbolic Z-matrix:
 Charge =  0 Multiplicity = 1

                         Standard orientation:
 ---------------------------------------------------------------------
 Center     Atomic      Atomic             Coordinates (Angstroms)
 Number     Number       Type             X           Y           Z
 ---------------------------------------------------------------------
      1         12           0        4.903176   -1.282465    0.483620
      2          6           0        5.597602    1.971609   -0.835846
      3          6           0        5.661732   -0.031298    3.566190
      4          6           0        4.738431   -4.243750    1.606235
      5          6           0        5.307775   -2.518159   -2.749803
      6          7           0        5.534241    0.731291    1.152344
      7          6           0        5.705213    1.906571    0.555137
      8          6           0        5.935338    3.079626    1.554316
      9          6           0        6.491763    2.247685    2.795391
     10          6           0        5.829138    0.911717    2.508962
     11          6           0        8.005296    2.059945    2.773666
     12          6           0        4.605530    3.824108    1.913604
     13          6           0        4.781389    5.172310    2.618429
     14          1           0        3.843893    6.244987    2.322096
     15          7           0        4.685638   -1.941120    2.333403
     16          6           0        5.034017   -1.292116    3.470378
     17          6           0        4.671405   -2.196032    4.583091
     18          6           0        4.259223   -3.500296    3.993943
     19          6           0        4.573671   -3.286377    2.604432
     20          6           0        4.689066   -1.778487    6.021525
     21          6           0        3.684473   -4.746103    4.590398
     22          8           0        3.615873   -5.843541    3.938096
     23          6           0        3.279777   -4.670589    6.005870
     24          7           0        5.222350   -3.151747   -0.389046
     25          6           0        5.026602   -4.279115    0.303564
     26          6           0        5.039192   -5.480672   -0.594235
     27          6           0        5.042764   -4.916363   -2.087987
     28          6           0        5.118221   -3.402956   -1.768339
     29          6           0        6.221299   -6.442103   -0.409080
     30          6           0        3.919634   -5.415914   -3.031092
     31          6           0        2.582537   -4.887955   -2.561489
     32          7           0        5.193805   -0.433706   -1.492789
     33          6           0        5.360383   -1.135349   -2.695545
     34          6           0        5.632062   -0.135668   -3.744781
     35          6           0        5.621005    1.084693   -3.072145
     36          6           0        5.385067    0.859289   -1.685848
     37          6           0        5.906637   -0.416468   -5.112332
     38          6           0        5.778084    2.524605   -3.197993
     39          8           0        5.900644    3.304149   -4.143922
     40          6           0        5.890323    3.146060   -1.736137
     41          6           0        4.962957    4.328971   -1.672705
     42          8           0        3.726115    4.176471   -1.738517
     43          8           0        5.656446    5.418502   -1.308647
     44          6           0        4.789613    6.622055   -1.198134
     45          1           0        6.101273    0.185857    4.541684
     46          1           0        4.579220   -5.273756    1.932087
     47          1           0        5.360594   -2.822409   -3.796748
     48          1           0        6.677464    3.810910    1.233541
     49          1           0        6.139648    2.649383    3.745325
     50          1           0        8.437903    2.418836    1.839873
     51          1           0        8.167081    0.987158    2.880650
     52          1           0        8.465401    2.521021    3.648017
     53          1           0        4.084769    3.272216    2.696090
     54          1           0        3.987133    3.959490    1.025582
     55          1           0        5.808360    5.530759    2.542567
     56          1           0        4.625090    5.022175    3.686712
     57          1           0        5.192464   -0.821718    6.154669
     58          1           0        5.318075   -2.492598    6.552658
     59          1           0        3.690656   -1.771441    6.459086
     60          1           0        4.143451   -4.398744    6.613090
     61          1           0        2.809397   -5.626024    6.235517
     62          1           0        2.556019   -3.863581    6.123606
     63          1           0        4.148756   -6.089922   -0.444684
     64          1           0        5.963587   -5.164048   -2.616581
     65          1           0        5.921853   -7.465893   -0.183490
     66          1           0        6.862723   -6.040508    0.374876
     67          1           0        6.910785   -6.486382   -1.251734
     68          1           0        3.861031   -6.503564   -3.008080
     69          1           0        4.062530   -5.113357   -4.068537
     70          1           0        2.294643   -5.603838   -1.792424
     71          1           0        1.864503   -4.886799   -3.382243
     72          1           0        2.685531   -3.915603   -2.079400
     73          1           0        5.334984    0.307346   -5.693085
     74          1           0        5.629700   -1.438467   -5.370063
     75          1           0        6.984406   -0.256570   -5.138860
     76          1           0        6.931795    3.434441   -1.597231
     77          1           0        5.217413    7.386406   -1.846970
     78          1           0        4.708073    6.848636   -0.134923
     79          1           0        3.786735    6.533943   -1.617432
     80         12           0       -5.577319   -0.068729   -0.434787
     81          6           0       -3.056996    2.484179   -0.336479
     82          6           0       -7.130659    1.575659    2.118195
     83          6           0       -7.565387   -2.529593   -0.191542
     84          6           0       -3.287667   -2.069045   -2.138296
     85          7           0       -5.063144    1.781029    0.663512
     86          6           0       -4.113950    2.700290    0.572125
     87          6           0       -4.350589    3.958610    1.449732
     88          6           0       -5.310277    3.302221    2.557441
     89          6           0       -5.903614    2.167301    1.725221
     90          6           0       -4.552547    2.692573    3.725142
     91          6           0       -5.079214    5.105863    0.665553
     92          6           0       -5.066791    6.468814    1.361231
     93          1           0       -4.966956    7.670100    0.536956
     94          7           0       -7.361706   -0.198122    0.424158
     95          6           0       -7.836923    0.563555    1.431774
     96          6           0       -9.188779    0.057497    1.715596
     97          6           0       -9.409544   -1.170926    0.905070
     98          6           0       -8.084192   -1.363118    0.351366
     99          6           0      -10.153211    0.773402    2.616022
    100          6           0      -10.610986   -2.037494    0.677470
    101          8           0      -10.515072   -3.189748    0.124339
    102          6           0      -11.889054   -1.537977    1.205205
    103          7           0       -5.380933   -2.089541   -0.882102
    104          6           0       -6.416001   -2.934570   -0.732122
    105          6           0       -6.126333   -4.271042   -1.372681
    106          6           0       -4.771490   -4.067428   -2.197623
    107          6           0       -4.450711   -2.609487   -1.801543
    108          6           0       -5.964500   -5.448363   -0.411377
    109          6           0       -4.804770   -4.433092   -3.706888
    110          6           0       -5.701186   -3.470146   -4.451580
    111          7           0       -3.610100    0.199017   -1.287100
    112          6           0       -2.820356   -0.777167   -1.933204
    113          6           0       -1.517033   -0.151476   -2.236998
    114          6           0       -1.631645    1.148537   -1.721912
    115          6           0       -2.908401    1.314494   -1.120377
    116          6           0       -0.411559   -0.793829   -2.862658
    117          6           0       -0.958983    2.414812   -1.540867
    118          8           0        0.109855    2.892566   -1.919136
    119          6           0       -1.805229    3.295715   -0.523870
    120          6           0       -1.945083    4.674502   -1.108588
    121          8           0       -2.591503    4.854399   -2.155687
    122          8           0       -1.480758    5.576933   -0.225202
    123          6           0       -1.608372    6.960600   -0.755313
    124          1           0       -7.576263    1.884820    3.064098
    125          1           0       -8.252971   -3.377591   -0.231444
    126          1           0       -2.555949   -2.595598   -2.754740
    127          1           0       -3.460096    4.358899    1.919381
    128          1           0       -6.088297    3.995310    2.866718
    129          1           0       -3.485480    2.696925    3.559299
    130          1           0       -4.917352    1.677728    3.814862
    131          1           0       -4.827778    3.195243    4.656760
    132          1           0       -6.158656    4.907001    0.661150
    133          1           0       -4.680794    5.202455   -0.325683
    134          1           0       -4.341604    6.505420    2.183253
    135          1           0       -6.032959    6.618110    1.849329
    136          1           0       -9.653656    1.557475    3.198307
    137          1           0      -10.487779    0.049131    3.366603
    138          1           0      -11.024912    1.155694    2.080613
    139          1           0      -11.802364   -1.387382    2.278645
    140          1           0      -12.643569   -2.250685    0.866624
    141          1           0      -12.089199   -0.554898    0.764643
    142          1           0       -6.916680   -4.550615   -2.058450
    143          1           0       -3.955087   -4.688017   -1.799880
    144          1           0       -6.663070   -6.280757   -0.619214
    145          1           0       -6.096263   -5.084641    0.599005
    146          1           0       -4.965562   -5.879515   -0.373282
    147          1           0       -5.234575   -5.428103   -3.846089
    148          1           0       -3.824605   -4.437734   -4.171904
    149          1           0       -6.699589   -3.887774   -4.290738
    150          1           0       -5.447280   -3.450532   -5.509489
    151          1           0       -5.681214   -2.476321   -3.989467
    152          1           0       -0.014534   -0.095028   -3.586910
    153          1           0       -0.709030   -1.728824   -3.332833
    154          1           0        0.234826   -0.957497   -1.996253
    155          1           0       -1.268592    3.306187    0.425598
    156          1           0       -0.611197    7.410022   -0.718633
    157          1           0       -2.399857    7.440726   -0.149696
    158          1           0       -1.853267    7.074619   -1.804826
 ---------------------------------------------------------------------

 SCF Done:  E(RCAM-B3LYP) =  -4069.80792704     A.U. after   19 cycles

 Excitation energies and oscillator strengths:

 Excited State   1:      Singlet-A      1.6580 eV  747.80 nm  f=0.2096  <S**2>=0.000
     309 -> 315       -0.11021
     310 -> 316        0.12069
     311 -> 313        0.50549
     312 -> 314       -0.46248
 This state for optimization and/or second-order correction.
 Total Energy, E(TD-HF/TD-DFT) =  -4069.74699705
 Copying the excited state density for this state as the 1-particle RhoCI density.

 Excited State   2:      Singlet-A      1.6964 eV  730.86 nm  f=0.5556  <S**2>=0.000
     309 -> 315        0.12885
     310 -> 316        0.11746
     311 -> 313        0.46071
     312 -> 314        0.50341

 Excited State   3:      Singlet-A      2.1827 eV  568.04 nm  f=0.0010  <S**2>=0.000
     309 -> 313        0.10982
     309 -> 314       -0.42525
     310 -> 313        0.46004
     310 -> 314        0.10148
     311 -> 316       -0.19800
     312 -> 315        0.18257

 Excited State   4:      Singlet-A      2.1950 eV  564.84 nm  f=0.1748  <S**2>=0.000
     309 -> 313        0.10462
     309 -> 314        0.45502
     310 -> 313        0.42077
     310 -> 314       -0.11308
     311 -> 316       -0.18975
     312 -> 315       -0.20699

 Excited State   5:      Singlet-A      2.4980 eV  496.33 nm  f=0.0000  <S**2>=0.000
     312 -> 313        0.70381

 The electronic state is 1-A.
 Alpha  occ. eigenvalues --  -46.87535 -46.87424 -19.26031 -19.25663 -19.18807
 Alpha  occ. eigenvalues --  -19.18617 -19.18500 -19.18211 -19.17771 -19.17456
 Alpha  occ. eigenvalues --  -14.42281 -14.42184 -14.41208 -14.41122 -14.39148
 Alpha  occ. eigenvalues --  -14.39111 -14.38338 -14.38295 -10.38748 -10.38323
 Alpha  occ. eigenvalues --  -10.35257 -10.35182 -10.33980 -10.33651 -10.31525
 Alpha  occ. eigenvalues --  -10.31188 -10.31107 -10.31058 -10.30810 -10.30623
 Alpha  occ. eigenvalues --  -10.30276 -10.30240 -10.30134 -10.30083 -10.30017
 Alpha  occ. eigenvalues --  -10.29946 -10.29675 -10.29640 -10.29358 -10.29220
 Alpha  occ. eigenvalues --  -10.29133 -10.29022 -10.28546 -10.28531 -10.28444
 Alpha  occ. eigenvalues --  -10.28262 -10.28140 -10.28062 -10.27973 -10.27844
 Alpha  occ. eigenvalues --  -10.27705 -10.27509 -10.27474 -10.27449 -10.27383
 Alpha  occ. eigenvalues --  -10.27333 -10.27324 -10.27310 -10.27293 -10.27274
 Alpha  occ. eigenvalues --  -10.27239 -10.27209 -10.27178 -10.27096 -10.26706
 Alpha  occ. eigenvalues --  -10.26672 -10.26528 -10.26341 -10.26267 -10.26244
 Alpha  occ. eigenvalues --  -10.26159 -10.25995 -10.25985 -10.25913 -10.25794
 Alpha  occ. eigenvalues --  -10.25709 -10.25574 -10.25538 -10.25305 -10.25210
 Alpha  occ. eigenvalues --  -10.24754 -10.24575 -10.24573 -10.24538 -10.24524
 Alpha  occ. eigenvalues --  -10.24443  -3.16278  -3.16174  -1.91160  -1.91057
 Alpha  occ. eigenvalues --   -1.90746  -1.90646  -1.90588  -1.90481  -1.16314
 Alpha  occ. eigenvalues --   -1.15990  -1.08199  -1.08060  -1.07025  -1.06756
 Alpha  occ. eigenvalues --   -1.06579  -1.05874  -1.04303  -1.04266  -1.03514
 Alpha  occ. eigenvalues --   -1.03425  -1.02968  -1.02794  -1.02145  -1.01861
 Alpha  occ. eigenvalues --   -0.91695  -0.91635  -0.89340  -0.89269  -0.88973
 Alpha  occ. eigenvalues --   -0.88900  -0.88107  -0.88010  -0.87588  -0.87509
 Alpha  occ. eigenvalues --   -0.87458  -0.87411  -0.87048  -0.86894  -0.84802
 Alpha  occ. eigenvalues --   -0.84704  -0.83778  -0.83667  -0.82786  -0.82729
 Alpha  occ. eigenvalues --   -0.82447  -0.82370  -0.81328  -0.81213  -0.80284
 Alpha  occ. eigenvalues --   -0.80197  -0.78551  -0.78390  -0.76999  -0.76940
 Alpha  occ. eigenvalues --   -0.76686  -0.76653  -0.75610  -0.75609  -0.74688
 Alpha  occ. eigenvalues --   -0.74584  -0.72519  -0.72450  -0.71410  -0.71354
 Alpha  occ. eigenvalues --   -0.69800  -0.69571  -0.68618  -0.68603  -0.67367
 Alpha  occ. eigenvalues --   -0.67339  -0.67003  -0.66940  -0.65053  -0.64992
 Alpha  occ. eigenvalues --   -0.64575  -0.64535  -0.64419  -0.64326  -0.64062
 Alpha  occ. eigenvalues --   -0.63979  -0.62003  -0.61874  -0.60224  -0.60108
 Alpha  occ. eigenvalues --   -0.59588  -0.59521  -0.58742  -0.58715  -0.58212
 Alpha  occ. eigenvalues --   -0.58157  -0.57212  -0.57209  -0.56978  -0.56957
 Alpha  occ. eigenvalues --   -0.56042  -0.55952  -0.55626  -0.55545  -0.55273
 Alpha  occ. eigenvalues --   -0.55215  -0.55082  -0.55000  -0.54235  -0.54159
 Alpha  occ. eigenvalues --   -0.53723  -0.53596  -0.53063  -0.52994  -0.52942
 Alpha  occ. eigenvalues --   -0.52909  -0.52657  -0.52580  -0.52531  -0.52475
 Alpha  occ. eigenvalues --   -0.52231  -0.52194  -0.51610  -0.51587  -0.51454
 Alpha  occ. eigenvalues --   -0.51325  -0.50905  -0.50888  -0.50395  -0.50282
 Alpha  occ. eigenvalues --   -0.49890  -0.49785  -0.49691  -0.49653  -0.49277
 Alpha  occ. eigenvalues --   -0.49239  -0.48963  -0.48892  -0.48816  -0.48805
 Alpha  occ. eigenvalues --   -0.48313  -0.48296  -0.48192  -0.48147  -0.48135
 Alpha  occ. eigenvalues --   -0.47970  -0.47439  -0.47347  -0.47037  -0.46897
 Alpha  occ. eigenvalues --   -0.46562  -0.46488  -0.46358  -0.46262  -0.46116
 Alpha  occ. eigenvalues --   -0.46033  -0.45840  -0.45832  -0.45534  -0.45470
 Alpha  occ. eigenvalues --   -0.45008  -0.44990  -0.44313  -0.44308  -0.44240
 Alpha  occ. eigenvalues --   -0.44194  -0.43948  -0.43885  -0.43852  -0.43830
 Alpha  occ. eigenvalues --   -0.43681  -0.43626  -0.43308  -0.43158  -0.43144
 Alpha  occ. eigenvalues --   -0.43128  -0.42754  -0.42672  -0.42592  -0.42544
 Alpha  occ. eigenvalues --   -0.42347  -0.42130  -0.41789  -0.41757  -0.41399
 Alpha  occ. eigenvalues --   -0.41316  -0.41265  -0.41261  -0.40881  -0.40748
 Alpha  occ. eigenvalues --   -0.40654  -0.40620  -0.40529  -0.40514  -0.40354
 Alpha  occ. eigenvalues --   -0.40277  -0.40059  -0.39941  -0.39360  -0.39242
 Alpha  occ. eigenvalues --   -0.38292  -0.38156  -0.37472  -0.37462  -0.37114
 Alpha  occ. eigenvalues --   -0.37054  -0.36978  -0.36966  -0.36474  -0.36297
 Alpha  occ. eigenvalues --   -0.35971  -0.35691  -0.34010  -0.34002  -0.33529
 Alpha  occ. eigenvalues --   -0.33132  -0.32924  -0.32780  -0.31146  -0.31061
 Alpha  occ. eigenvalues --   -0.30743  -0.30735  -0.29621  -0.29356  -0.29195
 Alpha  occ. eigenvalues --   -0.29072  -0.29013  -0.28889  -0.23800  -0.23794
 Alpha  occ. eigenvalues --   -0.20875  -0.20868
 Alpha virt. eigenvalues --   -0.08528  -0.08504  -0.01505  -0.01458   0.00199
 Alpha virt. eigenvalues --    0.00219   0.02495   0.02531   0.03185   0.03460
 Alpha virt. eigenvalues --    0.04927   0.04979   0.05529   0.05761   0.06336

 Mulliken charges:
               1
     1  Mg   0.837418
     2  C    0.002176
     3  C   -0.094327
     4  C   -0.046681
     5  C   -0.065162
     6  N   -0.256367
     7  C   -0.052180
     8  C   -0.014247
     9  C   -0.086912
    10  C    0.046094
    11  C    0.105044
    12  C    0.052930
    13  C   -0.070666
    14  H    0.035121
    15  N   -0.433021
    16  C    0.167831
    17  C   -0.177839
    18  C   -0.004798
    19  C    0.148350
    20  C    0.110437
    21  C    0.011618
    22  O   -0.250753
    23  C    0.062789
    24  N   -0.341057
    25  C    0.040574
    26  C   -0.027889
    27  C   -0.023963
    28  C    0.074789
    29  C    0.076387
    30  C    0.035515
    31  C   -0.004767
    32  N   -0.311729
    33  C    0.081351
    34  C   -0.169460
    35  C    0.009376
    36  C    0.086804
    37  C    0.126742
    38  C    0.051319
    39  O   -0.187160
    40  C   -0.007055
    41  C    0.208179
    42  O   -0.241266
    43  O   -0.307184
    44  C    0.158162
    45  H   -0.018420
    46  H   -0.017941
    47  H   -0.042510
    48  H    0.000788
    49  H   -0.004955
    50  H    0.025379
    51  H    0.016001
    52  H    0.015743
    53  H    0.009747
    54  H    0.050480
    55  H    0.017104
    56  H    0.016175
    57  H    0.005350
    58  H    0.026068
    59  H    0.038272
    60  H    0.037113
    61  H    0.034779
    62  H    0.030896
    63  H    0.015352
    64  H    0.009399
    65  H    0.022496
    66  H    0.012777
    67  H    0.004350
    68  H    0.005919
    69  H    0.004772
    70  H    0.008459
    71  H    0.015108
    72  H    0.029155
    73  H    0.049214
    74  H    0.007927
    75  H    0.045518
    76  H    0.033511
    77  H    0.040711
    78  H    0.043785
    79  H    0.055930
    80  Mg   0.836859
    81  C   -0.016737
    82  C   -0.088016
    83  C   -0.045817
    84  C   -0.065441
    85  N   -0.254111
    86  C   -0.050321
    87  C   -0.014623
    88  C   -0.090336
    89  C    0.045065
    90  C    0.114653
    91  C    0.062699
    92  C   -0.077296
    93  H    0.034519
    94  N   -0.423301
    95  C    0.162206
    96  C   -0.175293
    97  C   -0.008404
    98  C    0.151695
    99  C    0.099658
   100  C    0.015132
   101  O   -0.253895
   102  C    0.061380
   103  N   -0.350146
   104  C    0.037134
   105  C   -0.019618
   106  C   -0.034833
   107  C    0.089427
   108  C    0.073741
   109  C    0.034884
   110  C   -0.007537
   111  N   -0.324421
   112  C    0.079037
   113  C   -0.165937
   114  C    0.004800
   115  C    0.095905
   116  C    0.132708
   117  C    0.038766
   118  O   -0.169055
   119  C    0.000694
   120  C    0.214422
   121  O   -0.251444
   122  O   -0.305986
   123  C    0.153252
   124  H   -0.020712
   125  H   -0.016208
   126  H   -0.040913
   127  H   -0.001383
   128  H   -0.004946
   129  H    0.021528
   130  H    0.014245
   131  H    0.015035
   132  H    0.013829
   133  H    0.038234
   134  H    0.019827
   135  H    0.019109
   136  H    0.008032
   137  H    0.025276
   138  H    0.039094
   139  H    0.037855
   140  H    0.035762
   141  H    0.033643
   142  H    0.013933
   143  H    0.012450
   144  H    0.024564
   145  H    0.011547
   146  H    0.005742
   147  H    0.005762
   148  H    0.002976
   149  H    0.010782
   150  H    0.017501
   151  H    0.030570
   152  H    0.050024
   153  H    0.006948
   154  H    0.046820
   155  H    0.034258
   156  H    0.041783
   157  H    0.047802
   158  H    0.054184
 Sum of Mulliken charges =  -0.00000

 Dipole moment (field-independent basis, Debye):
    X=             -0.2180    Y=              0.9762    Z=              7.3378  Tot=              7.4057
 Quadrupole moment (field-independent basis, Debye-Ang):
   XX=           -493.5494   YY=           -498.2146   ZZ=           -492.5080
   XY=            -27.6345   XZ=              1.9036   YZ=             55.9829

 Normal termination of Gaussian 16 at Fri Sep 10 20:16:10 2021.
