 Gaussian 16, Revision A.03,
 Gaussian 16:  ES64L-G16RevA.03 25-Dec-2016

 -----------------------------------
 #p cam-b3lyp/Def2SVP td=(nstates=5)
 -----------------------------------

 --------------------------------
 TDDFT excited states in gaussian
 --------------------------------
 Symbolic Z-matrix:
 Charge =  0 Multiplicity = 1

                         Standard orientation:
 ---------------------------------------------------------------------
 Center     Atomic      Atomic             Coordinates (Angstroms)
 Number     Number       Type             X           Y           Z
 ---------------------------------------------------------------------
      1         12           0        6.319961   -0.951726    0.155516
      2          6           0        6.700615    2.067780   -1.728603
      3          6           0        7.218023    0.835744    2.919842
      4          6           0        6.432779   -3.687980    1.754518
      5          6           0        6.567368   -2.687856   -2.856179
      6          7           0        6.864493    1.175963    0.433135
      7          6           0        6.913703    2.242128   -0.359355
      8          6           0        7.138670    3.576289    0.413160
      9          6           0        7.837848    2.994217    1.722489
     10          6           0        7.245310    1.596098    1.713132
     11          6           0        9.354799    2.885576    1.606046
     12          6           0        5.792642    4.299201    0.755702
     13          6           0        5.930566    5.753688    1.214831
     14          1           0        4.905428    6.710716    0.826840
     15          7           0        6.282052   -1.302184    2.099376
     16          6           0        6.669226   -0.454660    3.082780
     17          6           0        6.449165   -1.177535    4.353885
     18          6           0        6.081635   -2.581876    4.020956
     19          6           0        6.278881   -2.587147    2.593916
     20          6           0        6.544486   -0.524891    5.698771
     21          6           0        5.635186   -3.738895    4.857688
     22          8           0        5.591357   -4.932062    4.400517
     23          6           0        5.331001   -3.449095    6.270675
     24          7           0        6.696651   -2.921185   -0.424975
     25          6           0        6.626612   -3.925528    0.455578
     26          6           0        6.652472   -5.257987   -0.232770
     27          6           0        6.509691   -4.952135   -1.793482
     28          6           0        6.508672   -3.404738   -1.731589
     29          6           0        7.905592   -6.111193    0.007519
     30          6           0        5.355874   -5.660950   -2.546281
     31          6           0        4.024893   -5.133132   -2.059459
     32          7           0        6.408851   -0.431441   -1.949822
     33          6           0        6.532787   -1.314635   -3.032081
     34          6           0        6.660702   -0.491656   -4.248803
     35          6           0        6.618665    0.821729   -3.785018
     36          6           0        6.500069    0.819296   -2.365785
     37          6           0        6.852395   -0.982404   -5.570489
     38          6           0        6.671124    2.226546   -4.155955
     39          8           0        6.672669    2.842219   -5.222931
     40          6           0        6.848873    3.088846   -2.829052
     41          6           0        5.852879    4.215119   -2.882093
     42          8           0        4.627243    3.988744   -2.819348
     43          8           0        6.498008    5.385236   -2.758897
     44          6           0        5.564340    6.542901   -2.774028
     45          1           0        7.712497    1.235907    3.807145
     46          1           0        6.365879   -4.655899    2.255612
     47          1           0        6.563368   -3.159751   -3.840431
     48          1           0        7.805668    4.281710   -0.082742
     49          1           0        7.530502    3.530035    2.620353
     50          1           0        9.693428    3.105500    0.593680
     51          1           0        9.594145    1.855852    1.872269
     52          1           0        9.846305    3.510042    2.352531
     53          1           0        5.367908    3.859308    1.658008
     54          1           0        5.103400    4.251310   -0.088086
     55          1           0        6.923448    6.148050    0.996718
     56          1           0        5.863018    5.776356    2.302546
     57          1           0        6.992287    0.465868    5.632302
     58          1           0        7.256233   -1.105900    6.284905
     59          1           0        5.582451   -0.497408    6.210694
     60          1           0        6.217026   -3.034331    6.751798
     61          1           0        4.942503   -4.376105    6.690879
     62          1           0        4.566311   -2.673074    6.315258
     63          1           0        5.817339   -5.879733    0.087248
     64          1           0        7.403677   -5.235848   -2.349333
     65          1           0        7.691396   -7.097163    0.420665
     66          1           0        8.574839   -5.550845    0.659753
     67          1           0        8.533023   -6.259393   -0.870993
     68          1           0        5.370737   -6.730977   -2.341910
     69          1           0        5.402319   -5.529107   -3.627350
     70          1           0        3.841697   -5.724439   -1.163007
     71          1           0        3.250241   -5.307170   -2.807013
     72          1           0        4.098724   -4.089774   -1.752152
     73          1           0        6.193460   -0.397118   -6.211748
     74          1           0        6.625136   -2.046280   -5.634700
     75          1           0        7.912489   -0.772583   -5.712023
     76          1           0        7.876498    3.450920   -2.825815
     77          1           0        5.892370    7.209416   -3.571767
     78          1           0        5.546054    6.939537   -1.758770
     79          1           0        4.541451    6.333118   -3.088716
     80         12           0       -6.894786   -0.342508   -0.135207
     81          6           0       -4.389940    1.967181    0.991806
     82          6           0       -9.228978    1.953485    0.821107
     83          6           0       -9.127802   -2.525265   -0.697934
     84          6           0       -4.478730   -2.846054    0.066337
     85          7           0       -6.709579    1.664569    0.775603
     86          6           0       -5.705342    2.464184    1.101925
     87          6           0       -6.131483    3.903686    1.496658
     88          6           0       -7.639679    3.591773    1.951544
     89          6           0       -7.896791    2.345266    1.107275
     90          6           0       -7.759210    3.208890    3.417299
     91          6           0       -6.091570    4.893685    0.279980
     92          6           0       -6.195419    6.374400    0.652065
     93          1           0       -5.442600    7.344980   -0.137700
     94          7           0       -8.847302   -0.137122   -0.425136
     95          6           0       -9.633795    0.867994    0.013548
     96          6           0      -10.993753    0.543854   -0.444291
     97          6           0      -10.973979   -0.816695   -1.046983
     98          6           0       -9.623799   -1.229883   -0.720842
     99          6           0      -12.133652    1.517134   -0.362000
    100          6           0      -12.004423   -1.618796   -1.782535
    101          8           0      -11.847912   -2.870688   -2.008620
    102          6           0      -13.243349   -0.916787   -2.148221
    103          7           0       -6.877635   -2.420998   -0.091097
    104          6           0       -7.969801   -3.128685   -0.429167
    105          6           0       -7.642106   -4.594003   -0.589913
    106          6           0       -6.046876   -4.687070   -0.525623
    107          6           0       -5.718397   -3.205806   -0.236903
    108          6           0       -8.248770   -5.529893    0.455300
    109          6           0       -5.333955   -5.383657   -1.716923
    110          6           0       -5.488225   -4.550844   -2.969130
    111          7           0       -4.769197   -0.425923    0.242933
    112          6           0       -3.958889   -1.580648    0.306942
    113          6           0       -2.605365   -1.141257    0.703593
    114          6           0       -2.728729    0.246807    0.866515
    115          6           0       -4.069619    0.641751    0.610507
    116          6           0       -1.482962   -1.991170    0.913314
    117          6           0       -2.032023    1.466327    1.207208
    118          8           0       -0.859464    1.762899    1.432774
    119          6           0       -3.105913    2.617416    1.426659
    120          6           0       -2.644942    3.833070    0.670219
    121          8           0       -2.580335    3.817882   -0.571637
    122          8           0       -2.565566    4.875339    1.517411
    123          6           0       -2.122888    6.107249    0.811534
    124          1           0      -10.044071    2.503028    1.292815
    125          1           0       -9.832960   -3.305449   -0.993779
    126          1           0       -3.646523   -3.553165    0.055670
    127          1           0       -5.575238    4.331897    2.321889
    128          1           0       -8.313465    4.394011    1.662068
    129          1           0       -6.792113    3.094491    3.883978
    130          1           0       -8.300278    2.271853    3.433390
    131          1           0       -8.389767    3.930101    3.945100
    132          1           0       -7.014483    4.781389   -0.303437
    133          1           0       -5.213767    4.731242   -0.314762
    134          1           0       -6.033326    6.542463    1.723708
    135          1           0       -7.223255    6.703784    0.481572
    136          1           0      -11.886261    2.373191    0.277812
    137          1           0      -12.949191    1.010575    0.165402
    138          1           0      -12.490330    1.832153   -1.344964
    139          1           0      -13.719418   -0.532402   -1.249297
    140          1           0      -13.817546   -1.628679   -2.744372
    141          1           0      -12.984533   -0.047813   -2.763447
    142          1           0       -7.977103   -4.961919   -1.551950
    143          1           0       -5.707110   -5.260598    0.349286
    144          1           0       -8.869890   -6.332394    0.014526
    145          1           0       -8.830073   -4.936446    1.148449
    146          1           0       -7.529952   -6.015367    1.113184
    147          1           0       -5.801852   -6.348713   -1.926414
    148          1           0       -4.279489   -5.568422   -1.541021
    149          1           0       -6.474790   -4.843954   -3.340448
    150          1           0       -4.708104   -4.792265   -3.688271
    151          1           0       -5.530757   -3.482261   -2.728347
    152          1           0       -0.635027   -1.508055    0.446287
    153          1           0       -1.653064   -2.983459    0.500781
    154          1           0       -1.447547   -2.001430    2.005981
    155          1           0       -3.172187    2.803452    2.499308
    156          1           0       -1.237278    6.476364    1.337960
    157          1           0       -3.007250    6.771352    0.786500
    158          1           0       -1.739408    5.997167   -0.196072
 ---------------------------------------------------------------------

 SCF Done:  E(RCAM-B3LYP) =  -4069.81113498     A.U. after   19 cycles

 Excitation energies and oscillator strengths:

 Excited State   1:      Singlet-A      1.6739 eV  740.70 nm  f=0.3684  <S**2>=0.000
     309 -> 315        0.15858
     311 -> 313        0.62852
     312 -> 314        0.27526
 This state for optimization and/or second-order correction.
 Total Energy, E(TD-HF/TD-DFT) =  -4069.74962071
 Copying the excited state density for this state as the 1-particle RhoCI density.

 Excited State   2:      Singlet-A      1.6810 eV  737.56 nm  f=0.4194  <S**2>=0.000
     310 -> 316        0.16052
     311 -> 313       -0.27505
     312 -> 314        0.62803

 Excited State   3:      Singlet-A      2.1840 eV  567.70 nm  f=0.0157  <S**2>=0.000
     309 -> 313        0.56168
     310 -> 314       -0.31404
     311 -> 315       -0.23720
     312 -> 316        0.13193

 Excited State   4:      Singlet-A      2.1920 eV  565.62 nm  f=0.1700  <S**2>=0.000
     309 -> 313        0.31208
     310 -> 314        0.55911
     311 -> 315       -0.13526
     312 -> 316       -0.24294

 Excited State   5:      Singlet-A      2.5867 eV  479.31 nm  f=0.0000  <S**2>=0.000
     312 -> 313        0.70641

 The electronic state is 1-A.
 Alpha  occ. eigenvalues --  -46.87561 -46.87405 -19.26214 -19.25876 -19.18987
 Alpha  occ. eigenvalues --  -19.18626 -19.18560 -19.18504 -19.17929 -19.17801
 Alpha  occ. eigenvalues --  -14.42403 -14.42063 -14.41262 -14.41091 -14.39253
 Alpha  occ. eigenvalues --  -14.39020 -14.38495 -14.38201 -10.38930 -10.38632
 Alpha  occ. eigenvalues --  -10.35304 -10.35141 -10.34106 -10.34018 -10.31635
 Alpha  occ. eigenvalues --  -10.31312 -10.31211 -10.31021 -10.30932 -10.30520
 Alpha  occ. eigenvalues --  -10.30295 -10.30256 -10.30191 -10.30145 -10.30051
 Alpha  occ. eigenvalues --  -10.29872 -10.29794 -10.29581 -10.29342 -10.29298
 Alpha  occ. eigenvalues --  -10.29273 -10.28893 -10.28637 -10.28576 -10.28343
 Alpha  occ. eigenvalues --  -10.28304 -10.28135 -10.28064 -10.27982 -10.27896
 Alpha  occ. eigenvalues --  -10.27737 -10.27577 -10.27430 -10.27429 -10.27384
 Alpha  occ. eigenvalues --  -10.27384 -10.27366 -10.27355 -10.27289 -10.27234
 Alpha  occ. eigenvalues --  -10.27225 -10.27183 -10.27136 -10.27024 -10.26939
 Alpha  occ. eigenvalues --  -10.26772 -10.26598 -10.26338 -10.26211 -10.26124
 Alpha  occ. eigenvalues --  -10.26047 -10.25971 -10.25964 -10.25906 -10.25835
 Alpha  occ. eigenvalues --  -10.25730 -10.25673 -10.25525 -10.25323 -10.25199
 Alpha  occ. eigenvalues --  -10.24765 -10.24631 -10.24592 -10.24484 -10.24464
 Alpha  occ. eigenvalues --  -10.24437  -3.16310  -3.16145  -1.91193  -1.91025
 Alpha  occ. eigenvalues --   -1.90781  -1.90618  -1.90614  -1.90456  -1.16500
 Alpha  occ. eigenvalues --   -1.16216  -1.08530  -1.08255  -1.06910  -1.06879
 Alpha  occ. eigenvalues --   -1.06779  -1.06193  -1.04400  -1.04196  -1.03566
 Alpha  occ. eigenvalues --   -1.03398  -1.02940  -1.02863  -1.02043  -1.02011
 Alpha  occ. eigenvalues --   -0.91882  -0.91595  -0.89398  -0.89210  -0.89069
 Alpha  occ. eigenvalues --   -0.88796  -0.88128  -0.87983  -0.87685  -0.87589
 Alpha  occ. eigenvalues --   -0.87516  -0.87298  -0.87028  -0.86927  -0.84911
 Alpha  occ. eigenvalues --   -0.84601  -0.83781  -0.83651  -0.82844  -0.82658
 Alpha  occ. eigenvalues --   -0.82563  -0.82288  -0.81486  -0.81217  -0.80341
 Alpha  occ. eigenvalues --   -0.80233  -0.78539  -0.78446  -0.77054  -0.76883
 Alpha  occ. eigenvalues --   -0.76804  -0.76575  -0.75744  -0.75561  -0.74711
 Alpha  occ. eigenvalues --   -0.74593  -0.72599  -0.72423  -0.71489  -0.71326
 Alpha  occ. eigenvalues --   -0.69665  -0.69638  -0.68737  -0.68507  -0.67502
 Alpha  occ. eigenvalues --   -0.67286  -0.67110  -0.66827  -0.65178  -0.64899
 Alpha  occ. eigenvalues --   -0.64670  -0.64553  -0.64494  -0.64267  -0.64108
 Alpha  occ. eigenvalues --   -0.63949  -0.62162  -0.61925  -0.60246  -0.60105
 Alpha  occ. eigenvalues --   -0.59708  -0.59421  -0.58893  -0.58632  -0.58322
 Alpha  occ. eigenvalues --   -0.58148  -0.57433  -0.57202  -0.57137  -0.56969
 Alpha  occ. eigenvalues --   -0.56103  -0.55958  -0.55776  -0.55595  -0.55353
 Alpha  occ. eigenvalues --   -0.55181  -0.55145  -0.55021  -0.54378  -0.54182
 Alpha  occ. eigenvalues --   -0.53826  -0.53502  -0.53131  -0.53043  -0.52961
 Alpha  occ. eigenvalues --   -0.52858  -0.52791  -0.52583  -0.52549  -0.52412
 Alpha  occ. eigenvalues --   -0.52304  -0.52164  -0.51768  -0.51572  -0.51568
 Alpha  occ. eigenvalues --   -0.51233  -0.51096  -0.50845  -0.50391  -0.50249
 Alpha  occ. eigenvalues --   -0.49893  -0.49778  -0.49745  -0.49575  -0.49396
 Alpha  occ. eigenvalues --   -0.49156  -0.49101  -0.49011  -0.48854  -0.48736
 Alpha  occ. eigenvalues --   -0.48452  -0.48279  -0.48243  -0.48240  -0.48145
 Alpha  occ. eigenvalues --   -0.48106  -0.47500  -0.47351  -0.47024  -0.46959
 Alpha  occ. eigenvalues --   -0.46613  -0.46466  -0.46458  -0.46170  -0.46170
 Alpha  occ. eigenvalues --   -0.46013  -0.45980  -0.45817  -0.45712  -0.45466
 Alpha  occ. eigenvalues --   -0.45117  -0.44902  -0.44416  -0.44382  -0.44221
 Alpha  occ. eigenvalues --   -0.44179  -0.44035  -0.43981  -0.43842  -0.43826
 Alpha  occ. eigenvalues --   -0.43731  -0.43664  -0.43445  -0.43289  -0.43135
 Alpha  occ. eigenvalues --   -0.43032  -0.42822  -0.42782  -0.42679  -0.42461
 Alpha  occ. eigenvalues --   -0.42391  -0.42287  -0.41869  -0.41686  -0.41564
 Alpha  occ. eigenvalues --   -0.41369  -0.41348  -0.41163  -0.40899  -0.40794
 Alpha  occ. eigenvalues --   -0.40636  -0.40612  -0.40527  -0.40494  -0.40402
 Alpha  occ. eigenvalues --   -0.40255  -0.40142  -0.39805  -0.39332  -0.39180
 Alpha  occ. eigenvalues --   -0.38262  -0.38159  -0.37564  -0.37351  -0.37172
 Alpha  occ. eigenvalues --   -0.37104  -0.36994  -0.36868  -0.36635  -0.36329
 Alpha  occ. eigenvalues --   -0.36107  -0.35819  -0.34152  -0.33913  -0.33700
 Alpha  occ. eigenvalues --   -0.33323  -0.33072  -0.32811  -0.31185  -0.31035
 Alpha  occ. eigenvalues --   -0.30874  -0.30669  -0.29833  -0.29658  -0.29228
 Alpha  occ. eigenvalues --   -0.29103  -0.29084  -0.28950  -0.23937  -0.23704
 Alpha  occ. eigenvalues --   -0.21019  -0.20762
 Alpha virt. eigenvalues --   -0.08692  -0.08409  -0.01588  -0.01389   0.00066
 Alpha virt. eigenvalues --    0.00297   0.02318   0.02559   0.03349   0.03662
 Alpha virt. eigenvalues --    0.04819   0.05093   0.05318   0.05532   0.06268

 Mulliken charges:
               1
     1  Mg   0.842493
     2  C   -0.001189
     3  C   -0.093054
     4  C   -0.046569
     5  C   -0.064663
     6  N   -0.256646
     7  C   -0.051303
     8  C   -0.014759
     9  C   -0.087403
    10  C    0.047497
    11  C    0.105043
    12  C    0.053362
    13  C   -0.070817
    14  H    0.034608
    15  N   -0.432869
    16  C    0.169675
    17  C   -0.176654
    18  C   -0.004084
    19  C    0.149085
    20  C    0.110391
    21  C    0.012152
    22  O   -0.250882
    23  C    0.062316
    24  N   -0.341166
    25  C    0.041173
    26  C   -0.027906
    27  C   -0.023837
    28  C    0.074897
    29  C    0.076466
    30  C    0.035413
    31  C   -0.004537
    32  N   -0.310544
    33  C    0.080876
    34  C   -0.169814
    35  C    0.008197
    36  C    0.084136
    37  C    0.127249
    38  C    0.046793
    39  O   -0.188960
    40  C   -0.005832
    41  C    0.212028
    42  O   -0.253673
    43  O   -0.305524
    44  C    0.157931
    45  H   -0.018350
    46  H   -0.017923
    47  H   -0.042401
    48  H    0.000019
    49  H   -0.004034
    50  H    0.025019
    51  H    0.015958
    52  H    0.015818
    53  H    0.014261
    54  H    0.046903
    55  H    0.016399
    56  H    0.017582
    57  H    0.005743
    58  H    0.025696
    59  H    0.040215
    60  H    0.036915
    61  H    0.034443
    62  H    0.032433
    63  H    0.015615
    64  H    0.008895
    65  H    0.022331
    66  H    0.012512
    67  H    0.004195
    68  H    0.005308
    69  H    0.004507
    70  H    0.007659
    71  H    0.016872
    72  H    0.030663
    73  H    0.047693
    74  H    0.008463
    75  H    0.045267
    76  H    0.034229
    77  H    0.041681
    78  H    0.045734
    79  H    0.054543
    80  Mg   0.838164
    81  C   -0.016549
    82  C   -0.087880
    83  C   -0.045576
    84  C   -0.064965
    85  N   -0.254495
    86  C   -0.049902
    87  C   -0.015058
    88  C   -0.090455
    89  C    0.045692
    90  C    0.114505
    91  C    0.062540
    92  C   -0.077753
    93  H    0.035088
    94  N   -0.423414
    95  C    0.162857
    96  C   -0.174813
    97  C   -0.007927
    98  C    0.152065
    99  C    0.099463
   100  C    0.015513
   101  O   -0.253379
   102  C    0.061219
   103  N   -0.350110
   104  C    0.037427
   105  C   -0.019764
   106  C   -0.034835
   107  C    0.089007
   108  C    0.073743
   109  C    0.034728
   110  C   -0.007635
   111  N   -0.324286
   112  C    0.078703
   113  C   -0.162452
   114  C    0.002437
   115  C    0.096670
   116  C    0.131266
   117  C    0.043405
   118  O   -0.187278
   119  C    0.000378
   120  C    0.211773
   121  O   -0.248970
   122  O   -0.306552
   123  C    0.151891
   124  H   -0.020009
   125  H   -0.015767
   126  H   -0.040259
   127  H   -0.001101
   128  H   -0.004462
   129  H    0.022026
   130  H    0.014346
   131  H    0.015894
   132  H    0.014015
   133  H    0.038409
   134  H    0.020209
   135  H    0.019391
   136  H    0.008555
   137  H    0.025834
   138  H    0.039702
   139  H    0.038074
   140  H    0.036220
   141  H    0.033949
   142  H    0.014345
   143  H    0.012363
   144  H    0.024956
   145  H    0.011464
   146  H    0.005543
   147  H    0.005996
   148  H    0.003709
   149  H    0.010785
   150  H    0.017981
   151  H    0.030499
   152  H    0.046811
   153  H    0.008917
   154  H    0.046323
   155  H    0.033877
   156  H    0.042526
   157  H    0.048800
   158  H    0.055638
 Sum of Mulliken charges =  -0.00000

 Dipole moment (field-independent basis, Debye):
    X=             -1.9230    Y=              2.3158    Z=              5.7081  Tot=              6.4531
 Quadrupole moment (field-independent basis, Debye-Ang):
   XX=           -459.2352   YY=           -473.0441   ZZ=           -515.9554
   XY=            -30.5169   XZ=              9.7513   YZ=             37.9818

 Normal termination of Gaussian 16 at Sat Sep 11 10:43:54 2021.
