 Gaussian 16, Revision A.03,
 Gaussian 16:  ES64L-G16RevA.03 25-Dec-2016

 -----------------------------------
 #p cam-b3lyp/Def2SVP td=(nstates=5)
 -----------------------------------

 --------------------------------
 TDDFT excited states in gaussian
 --------------------------------
 Symbolic Z-matrix:
 Charge =  0 Multiplicity = 1

                         Standard orientation:
 ---------------------------------------------------------------------
 Center     Atomic      Atomic             Coordinates (Angstroms)
 Number     Number       Type             X           Y           Z
 ---------------------------------------------------------------------
      1         12           0       -5.037850   -1.320146    0.156265
      2          6           0       -6.145654    2.082709    0.081682
      3          6           0       -5.951702   -1.533568   -3.124343
      4          6           0       -4.493015   -4.439912    0.320082
      5          6           0       -5.279429   -1.167996    3.629614
      6          7           0       -5.923239    0.156303   -1.235435
      7          6           0       -6.244163    1.443911   -1.156413
      8          6           0       -6.623661    2.071530   -2.530985
      9          6           0       -7.068395    0.746680   -3.298436
     10          6           0       -6.239099   -0.268249   -2.531552
     11          6           0       -8.545113    0.407540   -3.122967
     12          6           0       -5.400923    2.755511   -3.230137
     13          6           0       -5.749140    3.668142   -4.409630
     14          1           0       -4.957654    4.870517   -4.622213
     15          7           0       -4.737482   -2.645303   -1.277816
     16          6           0       -5.166734   -2.562293   -2.560055
     17          6           0       -4.690803   -3.791878   -3.229600
     18          6           0       -4.113910   -4.684105   -2.185942
     19          6           0       -4.453127   -3.960740   -0.987170
     20          6           0       -4.762305   -4.002487   -4.710910
     21          6           0       -3.383487   -5.987777   -2.257024
     22          8           0       -3.173955   -6.707384   -1.221246
     23          6           0       -2.992075   -6.449044   -3.601297
     24          7           0       -5.113368   -2.694371    1.725800
     25          6           0       -4.774061   -3.974588    1.538989
     26          6           0       -4.631595   -4.697905    2.845302
     27          6           0       -4.707668   -3.578203    3.981187
     28          6           0       -4.977561   -2.347100    3.081291
     29          6           0       -5.679975   -5.782981    3.127295
     30          6           0       -3.529409   -3.513830    4.985169
     31          6           0       -2.271554   -3.070033    4.272467
     32          7           0       -5.435181    0.220183    1.632937
     33          6           0       -5.509801    0.055772    3.023648
     34          6           0       -5.907906    1.356878    3.591718
     35          6           0       -6.054287    2.188864    2.483469
     36          6           0       -5.791445    1.447178    1.296411
     37          6           0       -6.143834    1.628028    4.968399
     38          6           0       -6.395595    3.525497    2.024362
     39          8           0       -6.617469    4.602686    2.579274
     40          6           0       -6.587166    3.478847    0.444188
     41          6           0       -5.819975    4.633128   -0.140930
     42          8           0       -4.573786    4.667350   -0.084309
     43          8           0       -6.648130    5.389630   -0.877413
     44          6           0       -5.943634    6.536283   -1.510679
     45          1           0       -6.415685   -1.786451   -4.079702
     46          1           0       -4.202442   -5.486702    0.430698
     47          1           0       -5.292469   -1.022744    4.711365
     48          1           0       -7.453795    2.777212   -2.494735
     49          1           0       -6.771100    0.764426   -4.346779
     50          1           0       -9.020244    1.062429   -2.392699
     51          1           0       -8.567318   -0.626485   -2.778305
     52          1           0       -9.060908    0.414347   -4.083533
     53          1           0       -4.813483    1.997939   -3.748847
     54          1           0       -4.805016    3.312966   -2.506628
     55          1           0       -6.813730    3.902858   -4.431230
     56          1           0       -5.574933    3.114930   -5.332564
     57          1           0       -5.384817   -3.249671   -5.192877
     58          1           0       -5.294114   -4.939666   -4.873963
     59          1           0       -3.773183   -4.057123   -5.165866
     60          1           0       -3.883656   -6.552104   -4.220176
     61          1           0       -2.402525   -7.352483   -3.449384
     62          1           0       -2.378362   -5.681220   -4.073263
     63          1           0       -3.670092   -5.205820    2.908232
     64          1           0       -5.588828   -3.695208    4.612488
     65          1           0       -5.251123   -6.766763    3.319557
     66          1           0       -6.367902   -5.814492    2.282869
     67          1           0       -6.357899   -5.560525    3.950914
     68          1           0       -3.331137   -4.501148    5.400907
     69          1           0       -3.709971   -2.833607    5.817602
     70          1           0       -1.893907   -3.998009    3.844593
     71          1           0       -1.559553   -2.649829    4.983588
     72          1           0       -2.499053   -2.398318    3.444501
     73          1           0       -5.670147    2.587481    5.175855
     74          1           0       -5.737473    0.840321    5.602428
     75          1           0       -7.233218    1.656870    4.984722
     76          1           0       -7.657134    3.560829    0.255588
     77          1           0       -6.466283    7.442659   -1.204813
     78          1           0       -5.892107    6.317448   -2.577385
     79          1           0       -4.937710    6.745443   -1.145017
     80         12           0        5.202314    1.375281   -0.039198
     81          6           0        5.898671   -2.112008   -0.521885
     82          6           0        4.553360    0.640350    3.227817
     83          6           0        4.149756    4.347260    0.316988
     84          6           0        4.790917    1.628459   -3.490621
     85          7           0        5.254508   -0.527034    1.088075
     86          6           0        5.593110   -1.777850    0.813930
     87          6           0        5.682891   -2.706532    2.054524
     88          6           0        4.702522   -1.894970    3.033869
     89          6           0        4.868081   -0.496853    2.441803
     90          6           0        3.244583   -2.301560    2.898162
     91          6           0        7.137846   -2.787692    2.636366
     92          6           0        7.362506   -3.909815    3.652299
     93          1           0        8.658762   -4.581984    3.671644
     94          7           0        4.933745    2.454238    1.604673
     95          6           0        4.704651    1.993255    2.852184
     96          6           0        4.556754    3.185732    3.700889
     97          6           0        4.553296    4.388104    2.823968
     98          6           0        4.523925    3.761512    1.517594
     99          6           0        4.515659    3.117583    5.199924
    100          6           0        4.560621    5.858606    3.113422
    101          8           0        4.315041    6.725535    2.201854
    102          6           0        4.771504    6.249868    4.514829
    103          7           0        4.356115    2.739241   -1.360520
    104          6           0        4.036618    3.982487   -0.960297
    105          6           0        3.703504    4.866159   -2.138662
    106          6           0        4.101869    4.020337   -3.436144
    107          6           0        4.531994    2.701844   -2.756470
    108          6           0        2.244183    5.307651   -2.247553
    109          6           0        5.081876    4.689079   -4.438670
    110          6           0        6.446426    4.837790   -3.805210
    111          7           0        5.495294    0.075472   -1.739997
    112          6           0        5.237165    0.373685   -3.095922
    113          6           0        5.481228   -0.862179   -3.867601
    114          6           0        5.845065   -1.807310   -2.896594
    115          6           0        5.809320   -1.208475   -1.608342
    116          6           0        5.311937   -1.012535   -5.272892
    117          6           0        6.240936   -3.178231   -2.667350
    118          8           0        6.521875   -4.133685   -3.389796
    119          6           0        6.170728   -3.470247   -1.106527
    120          6           0        7.444226   -4.163198   -0.705880
    121          8           0        8.535321   -3.570594   -0.776185
    122          8           0        7.141585   -5.328027   -0.104257
    123          6           0        8.371963   -6.046994    0.321274
    124          1           0        4.108576    0.484500    4.211053
    125          1           0        3.884279    5.405583    0.371247
    126          1           0        4.779417    1.651311   -4.582419
    127          1           0        5.305689   -3.710161    1.898904
    128          1           0        5.060303   -1.919362    4.059912
    129          1           0        3.092407   -2.988225    2.078726
    130          1           0        2.697627   -1.383287    2.728842
    131          1           0        2.875051   -2.701955    3.846565
    132          1           0        7.316160   -1.915042    3.277789
    133          1           0        7.860081   -2.864935    1.847042
    134          1           0        6.548567   -4.644889    3.641258
    135          1           0        7.323203   -3.481483    4.656794
    136          1           0        4.371705    2.088649    5.552019
    137          1           0        3.609225    3.643238    5.519174
    138          1           0        5.381844    3.591120    5.666996
    139          1           0        3.995785    5.806072    5.134318
    140          1           0        4.833503    7.339813    4.507764
    141          1           0        5.724715    5.830437    4.855518
    142          1           0        4.291013    5.775842   -2.118153
    143          1           0        3.223069    3.783400   -4.053722
    144          1           0        2.121530    6.406894   -2.273881
    145          1           0        1.696394    4.883703   -1.416456
    146          1           0        1.704647    4.911352   -3.106065
    147          1           0        4.742124    5.698206   -4.684394
    148          1           0        5.181257    4.146340   -5.372769
    149          1           0        6.350459    5.761258   -3.226344
    150          1           0        7.215637    4.929125   -4.569418
    151          1           0        6.642578    4.023983   -3.097463
    152          1           0        6.166786   -1.570285   -5.631567
    153          1           0        5.229223   -0.047684   -5.768875
    154          1           0        4.371046   -1.568761   -5.297582
    155          1           0        5.292726   -4.092430   -0.928810
    156          1           0        8.332087   -7.043213   -0.129996
    157          1           0        8.381563   -5.994546    1.426221
    158          1           0        9.320803   -5.682402   -0.054534
 ---------------------------------------------------------------------

 SCF Done:  E(RCAM-B3LYP) =  -4069.81167483     A.U. after   19 cycles

 Excitation energies and oscillator strengths:

 Excited State   1:      Singlet-A      1.6574 eV  748.05 nm  f=0.0074  <S**2>=0.000
     309 -> 315        0.11174
     310 -> 316        0.12745
     311 -> 313        0.45241
     312 -> 314        0.51721
 This state for optimization and/or second-order correction.
 Total Energy, E(TD-HF/TD-DFT) =  -4069.75076498
 Copying the excited state density for this state as the 1-particle RhoCI density.

 Excited State   2:      Singlet-A      1.6972 eV  730.54 nm  f=0.7129  <S**2>=0.000
     309 -> 315        0.13550
     310 -> 316       -0.11811
     311 -> 313        0.51528
     312 -> 314       -0.45077

 Excited State   3:      Singlet-A      2.1838 eV  567.75 nm  f=0.0218  <S**2>=0.000
     309 -> 313        0.27944
     310 -> 314        0.58043
     311 -> 315       -0.11669
     312 -> 316       -0.24370

 Excited State   4:      Singlet-A      2.1956 eV  564.68 nm  f=0.1591  <S**2>=0.000
     309 -> 313        0.57655
     310 -> 314       -0.27636
     311 -> 315       -0.25297
     312 -> 316        0.12224

 Excited State   5:      Singlet-A      2.4875 eV  498.42 nm  f=0.0000  <S**2>=0.000
     312 -> 313        0.70710

 The electronic state is 1-A.
 Alpha  occ. eigenvalues --  -46.87878 -46.87493 -19.26325 -19.26233 -19.19064
 Alpha  occ. eigenvalues --  -19.19042 -19.18849 -19.18514 -19.18231 -19.17916
 Alpha  occ. eigenvalues --  -14.42529 -14.42332 -14.41540 -14.41189 -14.39478
 Alpha  occ. eigenvalues --  -14.39181 -14.38668 -14.38441 -10.39126 -10.38968
 Alpha  occ. eigenvalues --  -10.35477 -10.35189 -10.34452 -10.34094 -10.31711
 Alpha  occ. eigenvalues --  -10.31654 -10.31485 -10.31162 -10.30975 -10.30850
 Alpha  occ. eigenvalues --  -10.30651 -10.30590 -10.30300 -10.30234 -10.30214
 Alpha  occ. eigenvalues --  -10.30020 -10.29962 -10.29725 -10.29704 -10.29329
 Alpha  occ. eigenvalues --  -10.29261 -10.29245 -10.28815 -10.28608 -10.28570
 Alpha  occ. eigenvalues --  -10.28544 -10.28433 -10.28237 -10.28183 -10.27991
 Alpha  occ. eigenvalues --  -10.27865 -10.27843 -10.27804 -10.27649 -10.27646
 Alpha  occ. eigenvalues --  -10.27579 -10.27512 -10.27507 -10.27478 -10.27352
 Alpha  occ. eigenvalues --  -10.27319 -10.27300 -10.27288 -10.27218 -10.27173
 Alpha  occ. eigenvalues --  -10.26908 -10.26774 -10.26564 -10.26398 -10.26386
 Alpha  occ. eigenvalues --  -10.26293 -10.26205 -10.26117 -10.26014 -10.25946
 Alpha  occ. eigenvalues --  -10.25860 -10.25782 -10.25774 -10.25547 -10.25107
 Alpha  occ. eigenvalues --  -10.24962 -10.24905 -10.24873 -10.24719 -10.24613
 Alpha  occ. eigenvalues --  -10.24507  -3.16621  -3.16243  -1.91503  -1.91125
 Alpha  occ. eigenvalues --   -1.91090  -1.90931  -1.90714  -1.90551  -1.16675
 Alpha  occ. eigenvalues --   -1.16526  -1.08688  -1.08528  -1.07248  -1.06826
 Alpha  occ. eigenvalues --   -1.06761  -1.06687  -1.04657  -1.04332  -1.03847
 Alpha  occ. eigenvalues --   -1.03496  -1.03314  -1.02871  -1.02493  -1.01945
 Alpha  occ. eigenvalues --   -0.92045  -0.91832  -0.89646  -0.89336  -0.89258
 Alpha  occ. eigenvalues --   -0.89002  -0.88409  -0.88046  -0.87954  -0.87753
 Alpha  occ. eigenvalues --   -0.87663  -0.87524  -0.87322  -0.86942  -0.85054
 Alpha  occ. eigenvalues --   -0.84847  -0.84075  -0.83704  -0.83020  -0.82745
 Alpha  occ. eigenvalues --   -0.82710  -0.82492  -0.81652  -0.81461  -0.80663
 Alpha  occ. eigenvalues --   -0.80291  -0.78859  -0.78474  -0.77314  -0.77016
 Alpha  occ. eigenvalues --   -0.76993  -0.76746  -0.75992  -0.75691  -0.75004
 Alpha  occ. eigenvalues --   -0.74612  -0.72861  -0.72546  -0.71753  -0.71407
 Alpha  occ. eigenvalues --   -0.70071  -0.69601  -0.68943  -0.68675  -0.67712
 Alpha  occ. eigenvalues --   -0.67440  -0.67279  -0.67046  -0.65362  -0.65124
 Alpha  occ. eigenvalues --   -0.64936  -0.64707  -0.64616  -0.64503  -0.64383
 Alpha  occ. eigenvalues --   -0.64041  -0.62365  -0.62141  -0.60509  -0.60162
 Alpha  occ. eigenvalues --   -0.59875  -0.59645  -0.59072  -0.58831  -0.58584
 Alpha  occ. eigenvalues --   -0.58268  -0.57649  -0.57419  -0.57395  -0.57070
 Alpha  occ. eigenvalues --   -0.56380  -0.56057  -0.56034  -0.55749  -0.55580
 Alpha  occ. eigenvalues --   -0.55447  -0.55294  -0.55090  -0.54620  -0.54336
 Alpha  occ. eigenvalues --   -0.53964  -0.53763  -0.53378  -0.53275  -0.53071
 Alpha  occ. eigenvalues --   -0.52994  -0.52985  -0.52803  -0.52755  -0.52602
 Alpha  occ. eigenvalues --   -0.52487  -0.52263  -0.52004  -0.51780  -0.51673
 Alpha  occ. eigenvalues --   -0.51505  -0.51285  -0.51059  -0.50608  -0.50289
 Alpha  occ. eigenvalues --   -0.50156  -0.49970  -0.49813  -0.49683  -0.49570
 Alpha  occ. eigenvalues --   -0.49322  -0.49278  -0.49163  -0.49050  -0.48958
 Alpha  occ. eigenvalues --   -0.48667  -0.48554  -0.48490  -0.48414  -0.48202
 Alpha  occ. eigenvalues --   -0.48155  -0.47768  -0.47434  -0.47365  -0.46943
 Alpha  occ. eigenvalues --   -0.46895  -0.46621  -0.46556  -0.46445  -0.46401
 Alpha  occ. eigenvalues --   -0.46251  -0.46111  -0.45928  -0.45899  -0.45690
 Alpha  occ. eigenvalues --   -0.45312  -0.45004  -0.44657  -0.44577  -0.44372
 Alpha  occ. eigenvalues --   -0.44325  -0.44248  -0.44155  -0.44073  -0.43975
 Alpha  occ. eigenvalues --   -0.43918  -0.43775  -0.43567  -0.43470  -0.43418
 Alpha  occ. eigenvalues --   -0.43227  -0.43112  -0.42821  -0.42795  -0.42749
 Alpha  occ. eigenvalues --   -0.42733  -0.42387  -0.42129  -0.41817  -0.41782
 Alpha  occ. eigenvalues --   -0.41610  -0.41516  -0.41308  -0.41220  -0.40969
 Alpha  occ. eigenvalues --   -0.40864  -0.40821  -0.40685  -0.40566  -0.40524
 Alpha  occ. eigenvalues --   -0.40326  -0.40299  -0.40076  -0.39621  -0.39274
 Alpha  occ. eigenvalues --   -0.38588  -0.38175  -0.37822  -0.37513  -0.37430
 Alpha  occ. eigenvalues --   -0.37334  -0.37104  -0.37046  -0.36784  -0.36638
 Alpha  occ. eigenvalues --   -0.36276  -0.36056  -0.34368  -0.34093  -0.33821
 Alpha  occ. eigenvalues --   -0.33734  -0.33265  -0.33013  -0.31382  -0.31113
 Alpha  occ. eigenvalues --   -0.31073  -0.30804  -0.30092  -0.29823  -0.29514
 Alpha  occ. eigenvalues --   -0.29395  -0.29158  -0.29058  -0.24162  -0.23871
 Alpha  occ. eigenvalues --   -0.21209  -0.20952
 Alpha virt. eigenvalues --   -0.08847  -0.08626  -0.01831  -0.01511  -0.00111
 Alpha virt. eigenvalues --    0.00148   0.02126   0.02355   0.03015   0.03384
 Alpha virt. eigenvalues --    0.04638   0.04886   0.05049   0.05290   0.06106

 Mulliken charges:
               1
     1  Mg   0.838624
     2  C   -0.002740
     3  C   -0.093907
     4  C   -0.046048
     5  C   -0.064409
     6  N   -0.256713
     7  C   -0.052577
     8  C   -0.013996
     9  C   -0.087025
    10  C    0.046324
    11  C    0.104750
    12  C    0.053476
    13  C   -0.071774
    14  H    0.035815
    15  N   -0.433261
    16  C    0.168532
    17  C   -0.176766
    18  C   -0.003660
    19  C    0.148747
    20  C    0.110087
    21  C    0.012567
    22  O   -0.249683
    23  C    0.062282
    24  N   -0.340991
    25  C    0.041151
    26  C   -0.028234
    27  C   -0.023760
    28  C    0.074405
    29  C    0.076104
    30  C    0.035372
    31  C   -0.004444
    32  N   -0.310396
    33  C    0.080103
    34  C   -0.170220
    35  C    0.008499
    36  C    0.082807
    37  C    0.127404
    38  C    0.046137
    39  O   -0.188272
    40  C   -0.005351
    41  C    0.212929
    42  O   -0.256906
    43  O   -0.304840
    44  C    0.157482
    45  H   -0.017243
    46  H   -0.016832
    47  H   -0.042152
    48  H    0.001103
    49  H   -0.003891
    50  H    0.025562
    51  H    0.016491
    52  H    0.016901
    53  H    0.011044
    54  H    0.044081
    55  H    0.018132
    56  H    0.017958
    57  H    0.005899
    58  H    0.027196
    59  H    0.040350
    60  H    0.037307
    61  H    0.036643
    62  H    0.032366
    63  H    0.016049
    64  H    0.009623
    65  H    0.023241
    66  H    0.013018
    67  H    0.004782
    68  H    0.006129
    69  H    0.004387
    70  H    0.008596
    71  H    0.015231
    72  H    0.029800
    73  H    0.047294
    74  H    0.008338
    75  H    0.046187
    76  H    0.035266
    77  H    0.043197
    78  H    0.046228
    79  H    0.054109
    80  Mg   0.838038
    81  C   -0.016953
    82  C   -0.087586
    83  C   -0.044089
    84  C   -0.065119
    85  N   -0.254611
    86  C   -0.049990
    87  C   -0.015106
    88  C   -0.090625
    89  C    0.046003
    90  C    0.114171
    91  C    0.062609
    92  C   -0.077690
    93  H    0.034392
    94  N   -0.423819
    95  C    0.163376
    96  C   -0.173710
    97  C   -0.006778
    98  C    0.152326
    99  C    0.098993
   100  C    0.016374
   101  O   -0.252416
   102  C    0.061088
   103  N   -0.349965
   104  C    0.038139
   105  C   -0.020245
   106  C   -0.034253
   107  C    0.088751
   108  C    0.072890
   109  C    0.034851
   110  C   -0.007551
   111  N   -0.323900
   112  C    0.078196
   113  C   -0.163894
   114  C    0.001918
   115  C    0.095949
   116  C    0.131630
   117  C    0.041820
   118  O   -0.188920
   119  C    0.001045
   120  C    0.211060
   121  O   -0.251273
   122  O   -0.305445
   123  C    0.152192
   124  H   -0.019703
   125  H   -0.014571
   126  H   -0.041482
   127  H   -0.000520
   128  H   -0.004808
   129  H    0.023230
   130  H    0.015211
   131  H    0.015578
   132  H    0.013760
   133  H    0.037512
   134  H    0.020816
   135  H    0.019329
   136  H    0.008339
   137  H    0.027499
   138  H    0.039501
   139  H    0.039136
   140  H    0.036478
   141  H    0.033173
   142  H    0.013984
   143  H    0.011651
   144  H    0.024855
   145  H    0.016242
   146  H    0.005022
   147  H    0.005887
   148  H    0.002753
   149  H    0.011019
   150  H    0.017296
   151  H    0.030229
   152  H    0.045523
   153  H    0.007986
   154  H    0.045494
   155  H    0.035273
   156  H    0.043692
   157  H    0.049452
   158  H    0.053284
 Sum of Mulliken charges =  -0.00000

 Dipole moment (field-independent basis, Debye):
    X=             -3.8553    Y=             -1.5747    Z=              0.1971  Tot=              4.1691
 Quadrupole moment (field-independent basis, Debye-Ang):
   XX=           -525.3062   YY=           -545.8446   ZZ=           -448.7440
   XY=             21.0047   XZ=             56.7630   YZ=            -40.2301

 Normal termination of Gaussian 16 at Sat Sep  4 02:38:06 2021.
