 Gaussian 16, Revision A.03,
 Gaussian 16:  ES64L-G16RevA.03 25-Dec-2016

 -----------------------------------
 #p cam-b3lyp/Def2SVP td=(nstates=5)
 -----------------------------------

 --------------------------------
 TDDFT excited states in gaussian
 --------------------------------
 Symbolic Z-matrix:
 Charge =  0 Multiplicity = 1

                         Standard orientation:
 ---------------------------------------------------------------------
 Center     Atomic      Atomic             Coordinates (Angstroms)
 Number     Number       Type             X           Y           Z
 ---------------------------------------------------------------------
      1         12           0       -5.122909   -0.854933    0.138372
      2          6           0       -5.404516    1.972555    2.315118
      3          6           0       -6.126312    1.189212   -2.402832
      4          6           0       -5.320464   -3.426500   -1.706793
      5          6           0       -5.253109   -2.869024    2.979524
      6          7           0       -5.665496    1.290681    0.087509
      7          6           0       -5.674414    2.276766    0.978984
      8          6           0       -5.923657    3.678817    0.346920
      9          6           0       -6.681356    3.225387   -0.980593
     10          6           0       -6.097655    1.831440   -1.129351
     11          6           0       -8.192647    3.109434   -0.810134
     12          6           0       -4.588906    4.428123    0.017207
     13          6           0       -4.737143    5.919970   -0.295481
     14          1           0       -3.690540    6.833559    0.137328
     15          7           0       -5.169680   -1.019054   -1.829806
     16          6           0       -5.592951   -0.081031   -2.710852
     17          6           0       -5.431511   -0.680242   -4.053076
     18          6           0       -5.058922   -2.110665   -3.870975
     19          6           0       -5.195478   -2.251176   -2.443744
     20          6           0       -5.579744    0.097527   -5.324631
     21          6           0       -4.655571   -3.183841   -4.832085
     22          8           0       -4.599802   -4.415164   -4.492512
     23          6           0       -4.409810   -2.761658   -6.222913
     24          7           0       -5.486865   -2.869849    0.544927
     25          6           0       -5.460489   -3.786063   -0.429157
     26          6           0       -5.465403   -5.177877    0.130099
     27          6           0       -5.254641   -5.022118    1.705241
     28          6           0       -5.246632   -3.475853    1.790497
     29          6           0       -6.732867   -6.001668   -0.136195
     30          6           0       -4.074353   -5.801785    2.337269
     31          6           0       -2.761968   -5.232938    1.846190
     32          7           0       -5.119167   -0.537000    2.285451
     33          6           0       -5.202564   -1.518828    3.283315
     34          6           0       -5.273628   -0.814996    4.577007
     35          6           0       -5.243144    0.536444    4.238590
     36          6           0       -5.184882    0.668713    2.821762
     37          6           0       -5.412124   -1.428777    5.853144
     38          6           0       -5.271088    1.899736    4.743082
     39          8           0       -5.223539    2.411169    5.862756
     40          6           0       -5.499607    2.884677    3.512839
     41          6           0       -4.495280    3.998655    3.629830
     42          8           0       -3.274840    3.776632    3.493457
     43          8           0       -5.137770    5.176572    3.645980
     44          6           0       -4.197124    6.325539    3.730916
     45          1           0       -6.655488    1.672995   -3.226159
     46          1           0       -5.280899   -4.342530   -2.299889
     47          1           0       -5.210289   -3.432376    3.913470
     48          1           0       -6.564620    4.335325    0.935637
     49          1           0       -6.409054    3.843486   -1.835886
     50          1           0       -8.486650    3.232831    0.232103
     51          1           0       -8.449467    2.110207   -1.162386
     52          1           0       -8.711490    3.803107   -1.472249
     53          1           0       -4.205576    4.075104   -0.940131
     54          1           0       -3.864799    4.298733    0.822349
     55          1           0       -5.717407    6.293944    0.001391
     56          1           0       -4.715661    6.045813   -1.378025
     57          1           0       -6.018156    1.078438   -5.145318
     58          1           0       -6.319313   -0.423584   -5.932242
     59          1           0       -4.640141    0.171488   -5.872360
     60          1           0       -5.312853   -2.301118   -6.624117
     61          1           0       -4.045257   -3.645348   -6.745449
     62          1           0       -3.642892   -1.986562   -6.226352
     63          1           0       -4.648478   -5.768175   -0.282949
     64          1           0       -6.125986   -5.355471    2.269429
     65          1           0       -6.542522   -6.944346   -0.649842
     66          1           0       -7.425687   -5.380401   -0.703045
     67          1           0       -7.323372   -6.231377    0.750346
     68          1           0       -4.104521   -6.847497    2.033094
     69          1           0       -4.074072   -5.773232    3.426964
     70          1           0       -2.620647   -5.736721    0.890646
     71          1           0       -1.957396   -5.478936    2.539990
     72          1           0       -2.842285   -4.164930    1.642734
     73          1           0       -4.722952   -0.908537    6.518246
     74          1           0       -5.188960   -2.494426    5.806306
     75          1           0       -6.463934   -1.231081    6.059218
     76          1           0       -6.524174    3.247631    3.587989
     77          1           0       -4.486868    6.913887    4.601622
     78          1           0       -4.219462    6.816873    2.758035
     79          1           0       -3.163130    6.084581    3.980181
     80         12           0        5.446051   -0.413443   -0.035870
     81          6           0        4.075967    1.871379   -2.440352
     82          6           0        7.395954    2.156260    1.072786
     83          6           0        6.990396   -2.502509    1.785729
     84          6           0        4.265591   -3.010581   -2.037639
     85          7           0        5.622067    1.695092   -0.680360
     86          6           0        5.006622    2.466812   -1.563555
     87          6           0        5.352218    3.975886   -1.450341
     88          6           0        6.784379    3.841698   -0.736360
     89          6           0        6.584709    2.497815   -0.038669
     90          6           0        7.935839    3.703601   -1.718403
     91          6           0        4.332139    4.756732   -0.549378
     92          6           0        4.426878    6.281182   -0.643342
     93          1           0        3.196836    7.062275   -0.546609
     94          7           0        6.600557   -0.125555    1.552462
     95          6           0        7.300859    0.986721    1.858572
     96          6           0        8.003289    0.686601    3.115823
     97          6           0        7.790927   -0.750157    3.440377
     98          6           0        7.121744   -1.196570    2.234966
     99          6           0        8.714875    1.735083    3.920653
    100          6           0        8.144491   -1.587089    4.632322
    101          8           0        8.076349   -2.866623    4.600749
    102          6           0        8.661850   -0.869847    5.806790
    103          7           0        5.793120   -2.455373   -0.215930
    104          6           0        6.448360   -3.132476    0.743288
    105          6           0        6.337342   -4.623485    0.531275
    106          6           0        5.263813   -4.812270   -0.638972
    107          6           0        4.994367   -3.329478   -0.976822
    108          6           0        7.633471   -5.339949    0.152988
    109          6           0        4.050358   -5.734286   -0.338847
    110          6           0        3.168616   -5.100859    0.713149
    111          7           0        4.209954   -0.578890   -1.800174
    112          6           0        3.861437   -1.760903   -2.489707
    113          6           0        3.103349   -1.356462   -3.691435
    114          6           0        3.083048    0.045048   -3.629301
    115          6           0        3.796658    0.483911   -2.481418
    116          6           0        2.585070   -2.236178   -4.683197
    117          6           0        2.629313    1.253402   -4.279456
    118          8           0        1.904848    1.502327   -5.242226
    119          6           0        3.360057    2.494230   -3.606598
    120          6           0        2.321258    3.541659   -3.312779
    121          8           0        1.425464    3.326557   -2.477383
    122          8           0        2.681415    4.696736   -3.901367
    123          6           0        1.687743    5.769377   -3.629547
    124          1           0        8.211324    2.826829    1.345527
    125          1           0        7.411381   -3.270397    2.438870
    126          1           0        3.779446   -3.764847   -2.660074
    127          1           0        5.455986    4.490484   -2.398076
    128          1           0        6.937021    4.631717   -0.005655
    129          1           0        7.587756    3.599468   -2.735336
    130          1           0        8.479255    2.819333   -1.412104
    131          1           0        8.631550    4.539741   -1.603584
    132          1           0        4.604609    4.616158    0.504531
    133          1           0        3.326548    4.443927   -0.753277
    134          1           0        5.020737    6.604823   -1.506791
    135          1           0        4.987339    6.647904    0.220025
    136          1           0        8.842911    2.662716    3.349253
    137          1           0        9.735943    1.373995    4.084687
    138          1           0        8.243555    1.914448    4.889337
    139          1           0        9.555913   -0.317416    5.527645
    140          1           0        8.772949   -1.626596    6.585802
    141          1           0        7.918341   -0.128125    6.119279
    142          1           0        5.973073   -5.115110    1.424982
    143          1           0        5.713904   -5.262206   -1.536091
    144          1           0        7.898857   -6.158316    0.848634
    145          1           0        8.427914   -4.606926    0.107476
    146          1           0        7.651584   -5.762846   -0.850021
    147          1           0        4.391451   -6.686642    0.074473
    148          1           0        3.451813   -5.959472   -1.215216
    149          1           0        3.660464   -5.381854    1.649213
    150          1           0        2.159478   -5.504528    0.660866
    151          1           0        3.194953   -4.007263    0.642301
    152          1           0        1.586161   -1.890847   -4.914360
    153          1           0        2.579713   -3.267396   -4.336312
    154          1           0        3.311490   -2.076403   -5.484478
    155          1           0        4.113854    2.851087   -4.309455
    156          1           0        1.361979    6.156492   -4.599964
    157          1           0        2.193217    6.479141   -2.948026
    158          1           0        0.741389    5.476282   -3.190280
 ---------------------------------------------------------------------

 SCF Done:  E(RCAM-B3LYP) =  -4069.81204625     A.U. after   19 cycles

 Excitation energies and oscillator strengths:

 Excited State   1:      Singlet-A      1.6575 eV  748.02 nm  f=0.0835  <S**2>=0.000
     309 -> 315        0.12848
     310 -> 316        0.10993
     311 -> 313        0.52177
     312 -> 314        0.44713
 This state for optimization and/or second-order correction.
 Total Energy, E(TD-HF/TD-DFT) =  -4069.75113433
 Copying the excited state density for this state as the 1-particle RhoCI density.

 Excited State   2:      Singlet-A      1.6961 eV  730.98 nm  f=0.6551  <S**2>=0.000
     309 -> 315       -0.11632
     310 -> 316        0.13617
     311 -> 313       -0.44555
     312 -> 314        0.51992

 Excited State   3:      Singlet-A      2.1827 eV  568.03 nm  f=0.0215  <S**2>=0.000
     309 -> 313        0.57815
     310 -> 314       -0.28397
     311 -> 315       -0.24272
     312 -> 316        0.11821

 Excited State   4:      Singlet-A      2.1945 eV  564.98 nm  f=0.1592  <S**2>=0.000
     309 -> 313        0.28114
     310 -> 314        0.57451
     311 -> 315       -0.12334
     312 -> 316       -0.25116

 Excited State   5:      Singlet-A      2.4859 eV  498.76 nm  f=0.0000  <S**2>=0.000
     312 -> 313        0.70683

 The electronic state is 1-A.
 Alpha  occ. eigenvalues --  -46.87559 -46.87401 -19.26375 -19.25995 -19.19153
 Alpha  occ. eigenvalues --  -19.18695 -19.18614 -19.18446 -19.18042 -19.17836
 Alpha  occ. eigenvalues --  -14.42399 -14.42060 -14.41267 -14.41084 -14.39253
 Alpha  occ. eigenvalues --  -14.39004 -14.38508 -14.38206 -10.39080 -10.38756
 Alpha  occ. eigenvalues --  -10.35290 -10.35075 -10.34217 -10.34057 -10.31832
 Alpha  occ. eigenvalues --  -10.31441 -10.31227 -10.31031 -10.30929 -10.30510
 Alpha  occ. eigenvalues --  -10.30310 -10.30278 -10.30191 -10.30144 -10.30038
 Alpha  occ. eigenvalues --  -10.29844 -10.29811 -10.29589 -10.29337 -10.29316
 Alpha  occ. eigenvalues --  -10.29260 -10.28865 -10.28632 -10.28571 -10.28361
 Alpha  occ. eigenvalues --  -10.28319 -10.28196 -10.28059 -10.27976 -10.27923
 Alpha  occ. eigenvalues --  -10.27745 -10.27577 -10.27423 -10.27417 -10.27399
 Alpha  occ. eigenvalues --  -10.27376 -10.27359 -10.27342 -10.27289 -10.27223
 Alpha  occ. eigenvalues --  -10.27196 -10.27180 -10.27030 -10.27022 -10.27007
 Alpha  occ. eigenvalues --  -10.26824 -10.26573 -10.26296 -10.26248 -10.26030
 Alpha  occ. eigenvalues --  -10.25982 -10.25965 -10.25955 -10.25912 -10.25837
 Alpha  occ. eigenvalues --  -10.25800 -10.25661 -10.25545 -10.25325 -10.25195
 Alpha  occ. eigenvalues --  -10.24800 -10.24612 -10.24603 -10.24475 -10.24465
 Alpha  occ. eigenvalues --  -10.24432  -3.16308  -3.16141  -1.91189  -1.91022
 Alpha  occ. eigenvalues --   -1.90779  -1.90616  -1.90610  -1.90452  -1.16662
 Alpha  occ. eigenvalues --   -1.16336  -1.08657  -1.08300  -1.06943  -1.06865
 Alpha  occ. eigenvalues --   -1.06850  -1.06322  -1.04402  -1.04193  -1.03570
 Alpha  occ. eigenvalues --   -1.03392  -1.02947  -1.02855  -1.02038  -1.02022
 Alpha  occ. eigenvalues --   -0.91918  -0.91609  -0.89404  -0.89204  -0.89064
 Alpha  occ. eigenvalues --   -0.88809  -0.88130  -0.87979  -0.87722  -0.87592
 Alpha  occ. eigenvalues --   -0.87520  -0.87293  -0.87021  -0.86865  -0.84913
 Alpha  occ. eigenvalues --   -0.84609  -0.83792  -0.83653  -0.82833  -0.82592
 Alpha  occ. eigenvalues --   -0.82572  -0.82285  -0.81563  -0.81263  -0.80380
 Alpha  occ. eigenvalues --   -0.80242  -0.78546  -0.78407  -0.77059  -0.76876
 Alpha  occ. eigenvalues --   -0.76837  -0.76602  -0.75782  -0.75582  -0.74730
 Alpha  occ. eigenvalues --   -0.74595  -0.72616  -0.72418  -0.71506  -0.71330
 Alpha  occ. eigenvalues --   -0.69661  -0.69631  -0.68745  -0.68508  -0.67524
 Alpha  occ. eigenvalues --   -0.67280  -0.67103  -0.66828  -0.65195  -0.64916
 Alpha  occ. eigenvalues --   -0.64698  -0.64587  -0.64508  -0.64284  -0.64119
 Alpha  occ. eigenvalues --   -0.63946  -0.62250  -0.61984  -0.60246  -0.60064
 Alpha  occ. eigenvalues --   -0.59711  -0.59427  -0.58915  -0.58637  -0.58357
 Alpha  occ. eigenvalues --   -0.58154  -0.57522  -0.57249  -0.57158  -0.56973
 Alpha  occ. eigenvalues --   -0.56132  -0.55949  -0.55855  -0.55659  -0.55386
 Alpha  occ. eigenvalues --   -0.55185  -0.55155  -0.55043  -0.54435  -0.54227
 Alpha  occ. eigenvalues --   -0.53826  -0.53517  -0.53148  -0.53073  -0.52949
 Alpha  occ. eigenvalues --   -0.52845  -0.52835  -0.52574  -0.52570  -0.52359
 Alpha  occ. eigenvalues --   -0.52304  -0.52165  -0.51829  -0.51589  -0.51572
 Alpha  occ. eigenvalues --   -0.51229  -0.51144  -0.50862  -0.50369  -0.50152
 Alpha  occ. eigenvalues --   -0.49890  -0.49780  -0.49718  -0.49535  -0.49402
 Alpha  occ. eigenvalues --   -0.49147  -0.49135  -0.49047  -0.48855  -0.48750
 Alpha  occ. eigenvalues --   -0.48507  -0.48318  -0.48266  -0.48251  -0.48152
 Alpha  occ. eigenvalues --   -0.48075  -0.47519  -0.47341  -0.47038  -0.46939
 Alpha  occ. eigenvalues --   -0.46627  -0.46470  -0.46458  -0.46192  -0.46188
 Alpha  occ. eigenvalues --   -0.46019  -0.46004  -0.45838  -0.45780  -0.45506
 Alpha  occ. eigenvalues --   -0.45129  -0.44898  -0.44462  -0.44392  -0.44251
 Alpha  occ. eigenvalues --   -0.44145  -0.44069  -0.43997  -0.43862  -0.43811
 Alpha  occ. eigenvalues --   -0.43747  -0.43655  -0.43525  -0.43311  -0.43176
 Alpha  occ. eigenvalues --   -0.43032  -0.42912  -0.42841  -0.42688  -0.42459
 Alpha  occ. eigenvalues --   -0.42394  -0.42369  -0.41876  -0.41696  -0.41612
 Alpha  occ. eigenvalues --   -0.41372  -0.41359  -0.41176  -0.40915  -0.40797
 Alpha  occ. eigenvalues --   -0.40628  -0.40601  -0.40530  -0.40441  -0.40407
 Alpha  occ. eigenvalues --   -0.40261  -0.40124  -0.39823  -0.39324  -0.39174
 Alpha  occ. eigenvalues --   -0.38259  -0.38159  -0.37565  -0.37375  -0.37177
 Alpha  occ. eigenvalues --   -0.37112  -0.36990  -0.36881  -0.36755  -0.36403
 Alpha  occ. eigenvalues --   -0.36146  -0.35865  -0.34168  -0.33915  -0.33837
 Alpha  occ. eigenvalues --   -0.33434  -0.33089  -0.32817  -0.31174  -0.30979
 Alpha  occ. eigenvalues --   -0.30886  -0.30669  -0.29949  -0.29698  -0.29238
 Alpha  occ. eigenvalues --   -0.29135  -0.29060  -0.28946  -0.23945  -0.23704
 Alpha  occ. eigenvalues --   -0.21027  -0.20752
 Alpha virt. eigenvalues --   -0.08706  -0.08394  -0.01588  -0.01377   0.00060
 Alpha virt. eigenvalues --    0.00329   0.02263   0.02546   0.03385   0.03688
 Alpha virt. eigenvalues --    0.04818   0.05084   0.05176   0.05425   0.06256

 Mulliken charges:
               1
     1  Mg   0.842046
     2  C   -0.002032
     3  C   -0.092009
     4  C   -0.046599
     5  C   -0.064560
     6  N   -0.256714
     7  C   -0.051741
     8  C   -0.014703
     9  C   -0.087500
    10  C    0.047666
    11  C    0.104989
    12  C    0.053169
    13  C   -0.070725
    14  H    0.033725
    15  N   -0.433108
    16  C    0.170378
    17  C   -0.175007
    18  C   -0.003451
    19  C    0.149250
    20  C    0.109925
    21  C    0.012345
    22  O   -0.251348
    23  C    0.061431
    24  N   -0.341160
    25  C    0.041472
    26  C   -0.027986
    27  C   -0.023652
    28  C    0.074552
    29  C    0.076487
    30  C    0.035446
    31  C   -0.004745
    32  N   -0.310205
    33  C    0.080134
    34  C   -0.170456
    35  C    0.007787
    36  C    0.083131
    37  C    0.127471
    38  C    0.045756
    39  O   -0.190016
    40  C   -0.005471
    41  C    0.212402
    42  O   -0.255977
    43  O   -0.305045
    44  C    0.158302
    45  H   -0.018009
    46  H   -0.017878
    47  H   -0.042600
    48  H   -0.000254
    49  H   -0.003687
    50  H    0.024909
    51  H    0.016137
    52  H    0.015935
    53  H    0.015662
    54  H    0.045557
    55  H    0.016520
    56  H    0.017578
    57  H    0.005705
    58  H    0.025453
    59  H    0.044180
    60  H    0.036830
    61  H    0.034283
    62  H    0.035692
    63  H    0.015505
    64  H    0.008808
    65  H    0.022322
    66  H    0.012588
    67  H    0.004212
    68  H    0.005180
    69  H    0.004463
    70  H    0.007240
    71  H    0.017440
    72  H    0.030729
    73  H    0.046771
    74  H    0.008467
    75  H    0.045182
    76  H    0.034346
    77  H    0.041723
    78  H    0.046204
    79  H    0.053193
    80  Mg   0.839647
    81  C   -0.016457
    82  C   -0.087536
    83  C   -0.045403
    84  C   -0.064803
    85  N   -0.254635
    86  C   -0.049409
    87  C   -0.015494
    88  C   -0.090662
    89  C    0.046318
    90  C    0.114452
    91  C    0.062372
    92  C   -0.077655
    93  H    0.034386
    94  N   -0.423473
    95  C    0.163660
    96  C   -0.174336
    97  C   -0.007462
    98  C    0.152488
    99  C    0.099388
   100  C    0.015993
   101  O   -0.253240
   102  C    0.060939
   103  N   -0.350095
   104  C    0.037662
   105  C   -0.019829
   106  C   -0.034805
   107  C    0.088840
   108  C    0.073747
   109  C    0.034686
   110  C   -0.008012
   111  N   -0.323970
   112  C    0.078398
   113  C   -0.163059
   114  C    0.001267
   115  C    0.096665
   116  C    0.131689
   117  C    0.042169
   118  O   -0.190750
   119  C    0.001042
   120  C    0.210106
   121  O   -0.249849
   122  O   -0.305671
   123  C    0.152733
   124  H   -0.019796
   125  H   -0.015612
   126  H   -0.040219
   127  H   -0.001384
   128  H   -0.004137
   129  H    0.022086
   130  H    0.014368
   131  H    0.016061
   132  H    0.015315
   133  H    0.038692
   134  H    0.019944
   135  H    0.019873
   136  H    0.008742
   137  H    0.025915
   138  H    0.040643
   139  H    0.037991
   140  H    0.036413
   141  H    0.034785
   142  H    0.014460
   143  H    0.012212
   144  H    0.024995
   145  H    0.011483
   146  H    0.005515
   147  H    0.005794
   148  H    0.004191
   149  H    0.010559
   150  H    0.018351
   151  H    0.030744
   152  H    0.044401
   153  H    0.009839
   154  H    0.046261
   155  H    0.034501
   156  H    0.042283
   157  H    0.050072
   158  H    0.052582
 Sum of Mulliken charges =  -0.00000

 Dipole moment (field-independent basis, Debye):
    X=              1.7145    Y=              3.0883    Z=             -2.4500  Tot=              4.2988
 Quadrupole moment (field-independent basis, Debye-Ang):
   XX=           -465.1345   YY=           -462.9900   ZZ=           -537.7362
   XY=             17.9081   XZ=             20.0719   YZ=            -14.1043

 Normal termination of Gaussian 16 at Fri Sep 10 15:14:06 2021.
