 Gaussian 16, Revision A.03,
 Gaussian 16:  ES64L-G16RevA.03 25-Dec-2016

 -----------------------------------
 #p cam-b3lyp/Def2SVP td=(nstates=5)
 -----------------------------------

 --------------------------------
 TDDFT excited states in gaussian
 --------------------------------
 Symbolic Z-matrix:
 Charge =  0 Multiplicity = 1

                         Standard orientation:
 ---------------------------------------------------------------------
 Center     Atomic      Atomic             Coordinates (Angstroms)
 Number     Number       Type             X           Y           Z
 ---------------------------------------------------------------------
      1         12           0       -7.980481   -0.510565    0.044010
      2          6           0       -8.065753    3.067466    0.095402
      3          6           0       -8.822738   -0.334860   -3.257928
      4          6           0       -8.355964   -3.659219    0.084141
      5          6           0       -8.267914   -0.420189    3.516023
      6          7           0       -8.366140    1.206829   -1.298552
      7          6           0       -8.307372    2.528671   -1.170286
      8          6           0       -8.451859    3.287702   -2.523197
      9          6           0       -9.234865    2.174679   -3.353907
     10          6           0       -8.752968    0.937591   -2.616809
     11          6           0      -10.751280    2.267610   -3.218440
     12          6           0       -7.065019    3.616557   -3.171471
     13          6           0       -7.103594    4.632438   -4.316833
     14          1           0       -5.995422    5.563853   -4.464382
     15          7           0       -8.030827   -1.813835   -1.439837
     16          6           0       -8.381434   -1.565162   -2.724564
     17          6           0       -8.258209   -2.854768   -3.437594
     18          6           0       -7.990883   -3.911881   -2.423127
     19          6           0       -8.143180   -3.165082   -1.200639
     20          6           0       -8.344477   -2.982706   -4.927540
     21          6           0       -7.662270   -5.366925   -2.537108
     22          8           0       -7.697177   -6.153070   -1.529471
     23          6           0       -7.380821   -5.872593   -3.892884
     24          7           0       -8.490997   -1.860672    1.552061
     25          6           0       -8.526954   -3.176848    1.316751
     26          6           0       -8.634910   -3.957000    2.593327
     27          6           0       -8.419976   -2.904084    3.774395
     28          6           0       -8.300432   -1.615858    2.923246
     29          6           0       -9.957555   -4.704884    2.810794
     30          6           0       -7.301848   -3.216682    4.800305
     31          6           0       -5.949705   -3.127336    4.128868
     32          7           0       -7.962660    1.024983    1.577901
     33          6           0       -8.121044    0.839125    2.958859
     34          6           0       -8.146357    2.178496    3.574905
     35          6           0       -8.016737    3.056690    2.500746
     36          6           0       -7.943168    2.313855    1.287867
     37          6           0       -8.334214    2.456383    4.957628
     38          6           0       -7.948036    4.450618    2.093188
     39          8           0       -7.868251    5.525533    2.689581
     40          6           0       -8.099557    4.517640    0.509402
     41          6           0       -7.017734    5.423356   -0.012754
     42          8           0       -5.816008    5.096385    0.066676
     43          8           0       -7.573350    6.411647   -0.730469
     44          6           0       -6.552376    7.329784   -1.302125
     45          1           0       -9.312087   -0.409477   -4.231022
     46          1           0       -8.380336   -4.748630    0.155048
     47          1           0       -8.269860   -0.316213    4.602595
     48          1           0       -9.046067    4.200191   -2.471193
     49          1           0       -8.914990    2.143943   -4.395280
     50          1           0      -11.039909    3.004681   -2.469214
     51          1           0      -11.078279    1.271800   -2.918563
     52          1           0      -11.215802    2.456638   -4.186565
     53          1           0       -6.704269    2.741367   -3.711807
     54          1           0       -6.355528    3.953178   -2.414745
     55          1           0       -8.055447    5.163468   -4.346705
     56          1           0       -7.068563    4.085985   -5.259362
     57          1           0       -8.711487   -2.066100   -5.387630
     58          1           0       -9.117290   -3.721321   -5.139474
     59          1           0       -7.399717   -3.302595   -5.367347
     60          1           0       -8.246490   -5.693130   -4.530818
     61          1           0       -7.079012   -6.912080   -3.769480
     62          1           0       -6.559809   -5.296819   -4.321104
     63          1           0       -7.861142   -4.721443    2.651078
     64          1           0       -9.315499   -2.785812    4.384906
     65          1           0       -9.833802   -5.776600    2.968321
     66          1           0      -10.601232   -4.507295    1.954098
     67          1           0      -10.566815   -4.326899    3.631371
     68          1           0       -7.406356   -4.233617    5.176959
     69          1           0       -7.304030   -2.543577    5.657728
     70          1           0       -5.841246   -4.108686    3.668411
     71          1           0       -5.167937   -2.954977    4.869370
     72          1           0       -5.951668   -2.389333    3.326476
     73          1           0       -7.611967    3.231412    5.213869
     74          1           0       -8.188569    1.562967    5.564422
     75          1           0       -9.369805    2.796096    4.956445
     76          1           0       -9.095472    4.910001    0.306110
     77          1           0       -6.802394    8.336456   -0.966958
     78          1           0       -6.535052    7.143784   -2.376140
     79          1           0       -5.539577    7.228149   -0.910657
     80         12           0        7.894737   -1.032510    0.171481
     81          6           0        8.617133    2.481327    0.272193
     82          6           0        7.835785   -0.770946   -3.228917
     83          6           0        6.817552   -4.014905    0.059989
     84          6           0        6.894430   -0.780955    3.500417
     85          7           0        8.202408    0.686567   -1.185849
     86          6           0        8.531841    1.960666   -1.035886
     87          6           0        8.862664    2.699649   -2.360282
     88          6           0        8.035955    1.764321   -3.370523
     89          6           0        8.050844    0.464855   -2.568127
     90          6           0        6.590843    2.199738   -3.547711
     91          6           0       10.397241    2.682484   -2.687096
     92          6           0       10.829306    3.644062   -3.796349
     93          1           0       12.132104    4.294361   -3.685387
     94          7           0        7.872886   -2.334950   -1.325769
     95          6           0        7.874928   -2.056801   -2.646337
     96          6           0        7.832949   -3.357873   -3.331599
     97          6           0        7.639626   -4.420980   -2.308294
     98          6           0        7.410011   -3.612111   -1.127998
     99          6           0        8.049532   -3.506471   -4.809581
    100          6           0        7.646011   -5.917865   -2.382430
    101          8           0        7.219765   -6.641798   -1.414418
    102          6           0        8.078548   -6.509280   -3.657040
    103          7           0        6.790406   -2.183540    1.504871
    104          6           0        6.501479   -3.468534    1.234245
    105          6           0        5.943102   -4.169715    2.449555
    106          6           0        6.143722   -3.149167    3.664378
    107          6           0        6.727677   -1.946640    2.890870
    108          6           0        4.472344   -4.577324    2.365223
    109          6           0        6.915788   -3.675216    4.905287
    110          6           0        8.362279   -3.926450    4.544829
    111          7           0        7.938462    0.496436    1.697406
    112          6           0        7.443678    0.399506    3.016451
    113          6           0        7.594945    1.731509    3.637175
    114          6           0        8.150429    2.523151    2.620693
    115          6           0        8.313783    1.744963    1.442876
    116          6           0        7.194515    2.084729    4.956650
    117          6           0        8.625890    3.842897    2.272962
    118          8           0        8.812305    4.889989    2.891493
    119          6           0        8.831913    3.907154    0.698217
    120          6           0       10.177803    4.523189    0.430619
    121          8           0       11.220278    3.936865    0.771304
    122          8           0       10.021591    5.591712   -0.372017
    123          6           0       11.330111    6.230293   -0.674993
    124          1           0        7.570113   -0.754560   -4.286290
    125          1           0        6.529315   -5.067479    0.109962
    126          1           0        6.696787   -0.645847    4.565953
    127          1           0        8.498861    3.718683   -2.414985
    128          1           0        8.563511    1.637022   -4.312240
    129          1           0        6.325072    2.998878   -2.871783
    130          1           0        5.992170    1.320623   -3.348193
    131          1           0        6.401695    2.462416   -4.592489
    132          1           0       10.652178    1.724765   -3.158811
    133          1           0       10.977044    2.866185   -1.803513
    134          1           0       10.050806    4.380538   -4.029796
    135          1           0       10.946727    3.075589   -4.722132
    136          1           0        8.002588   -2.537859   -5.322397
    137          1           0        7.193192   -4.064287   -5.203756
    138          1           0        8.965880   -4.050478   -5.048416
    139          1           0        7.434938   -6.152401   -4.457584
    140          1           0        8.101337   -7.587313   -3.486183
    141          1           0        9.089497   -6.152267   -3.883175
    142          1           0        6.494269   -5.078223    2.659142
    143          1           0        5.181321   -2.817421    4.080999
    144          1           0        4.309696   -5.660072    2.524220
    145          1           0        4.088500   -4.272741    1.400640
    146          1           0        3.808552   -4.056263    3.053029
    147          1           0        6.505094   -4.635110    5.227923
    148          1           0        6.873391   -3.004256    5.756759
    149          1           0        8.334724   -4.922887    4.093774
    150          1           0        8.986876   -3.913625    5.435757
    151          1           0        8.703414   -3.225199    3.774427
    152          1           0        7.994446    2.680474    5.375803
    153          1           0        6.995957    1.202386    5.561486
    154          1           0        6.282586    2.647380    4.739677
    155          1           0        8.018567    4.505279    0.285560
    156          1           0       11.248035    7.281545   -0.382055
    157          1           0       11.525560    6.018801   -1.743087
    158          1           0       12.188335    5.915005   -0.093171
 ---------------------------------------------------------------------

 SCF Done:  E(RCAM-B3LYP) =  -4069.81169879     A.U. after   19 cycles

 Excitation energies and oscillator strengths:

 Excited State   1:      Singlet-A      1.6698 eV  742.50 nm  f=0.0165  <S**2>=0.000
     309 -> 315        0.10343
     310 -> 316       -0.13799
     311 -> 313        0.41024
     312 -> 314        0.55026
 This state for optimization and/or second-order correction.
 Total Energy, E(TD-HF/TD-DFT) =  -4069.75033397
 Copying the excited state density for this state as the 1-particle RhoCI density.

 Excited State   2:      Singlet-A      1.6853 eV  735.69 nm  f=0.7403  <S**2>=0.000
     309 -> 315        0.14188
     310 -> 316        0.10522
     311 -> 313        0.54944
     312 -> 314       -0.40971

 Excited State   3:      Singlet-A      2.1854 eV  567.34 nm  f=0.0611  <S**2>=0.000
     309 -> 313       -0.13551
     310 -> 314        0.62831
     312 -> 316        0.26654

 Excited State   4:      Singlet-A      2.1929 eV  565.38 nm  f=0.1327  <S**2>=0.000
     309 -> 313        0.62631
     310 -> 314        0.13442
     311 -> 315       -0.27232

 Excited State   5:      Singlet-A      2.7705 eV  447.51 nm  f=0.0000  <S**2>=0.000
     312 -> 313        0.70709

 The electronic state is 1-A.
 Alpha  occ. eigenvalues --  -46.87818 -46.87589 -19.26298 -19.26285 -19.19096
 Alpha  occ. eigenvalues --  -19.19035 -19.18833 -19.18657 -19.18183 -19.17973
 Alpha  occ. eigenvalues --  -14.42472 -14.42427 -14.41470 -14.41286 -14.39424
 Alpha  occ. eigenvalues --  -14.39282 -14.38607 -14.38526 -10.39095 -10.39024
 Alpha  occ. eigenvalues --  -10.35467 -10.35336 -10.34404 -10.34151 -10.31698
 Alpha  occ. eigenvalues --  -10.31692 -10.31427 -10.31237 -10.30958 -10.30932
 Alpha  occ. eigenvalues --  -10.30590 -10.30527 -10.30324 -10.30287 -10.30228
 Alpha  occ. eigenvalues --  -10.30071 -10.29940 -10.29818 -10.29650 -10.29368
 Alpha  occ. eigenvalues --  -10.29330 -10.29275 -10.28775 -10.28657 -10.28609
 Alpha  occ. eigenvalues --  -10.28576 -10.28385 -10.28335 -10.28142 -10.28076
 Alpha  occ. eigenvalues --  -10.27928 -10.27812 -10.27749 -10.27605 -10.27601
 Alpha  occ. eigenvalues --  -10.27522 -10.27508 -10.27468 -10.27443 -10.27424
 Alpha  occ. eigenvalues --  -10.27420 -10.27413 -10.27399 -10.27300 -10.27174
 Alpha  occ. eigenvalues --  -10.26974 -10.26738 -10.26639 -10.26430 -10.26374
 Alpha  occ. eigenvalues --  -10.26257 -10.26208 -10.26071 -10.26040 -10.25955
 Alpha  occ. eigenvalues --  -10.25861 -10.25856 -10.25756 -10.25451 -10.25313
 Alpha  occ. eigenvalues --  -10.24851 -10.24808 -10.24798 -10.24717 -10.24670
 Alpha  occ. eigenvalues --  -10.24618  -3.16561  -3.16339  -1.91443  -1.91221
 Alpha  occ. eigenvalues --   -1.91029  -1.90871  -1.90809  -1.90646  -1.16647
 Alpha  occ. eigenvalues --   -1.16579  -1.08640  -1.08580  -1.07234  -1.06911
 Alpha  occ. eigenvalues --   -1.06880  -1.06657  -1.04603  -1.04425  -1.03781
 Alpha  occ. eigenvalues --   -1.03592  -1.03254  -1.02966  -1.02432  -1.02039
 Alpha  occ. eigenvalues --   -0.91991  -0.91914  -0.89541  -0.89423  -0.89213
 Alpha  occ. eigenvalues --   -0.89087  -0.88308  -0.88148  -0.87888  -0.87714
 Alpha  occ. eigenvalues --   -0.87696  -0.87615  -0.87295  -0.87061  -0.85007
 Alpha  occ. eigenvalues --   -0.84936  -0.83957  -0.83805  -0.82988  -0.82875
 Alpha  occ. eigenvalues --   -0.82671  -0.82590  -0.81604  -0.81528  -0.80616
 Alpha  occ. eigenvalues --   -0.80376  -0.78818  -0.78569  -0.77241  -0.77078
 Alpha  occ. eigenvalues --   -0.76957  -0.76832  -0.75944  -0.75772  -0.74918
 Alpha  occ. eigenvalues --   -0.74730  -0.72794  -0.72626  -0.71692  -0.71509
 Alpha  occ. eigenvalues --   -0.69930  -0.69688  -0.68896  -0.68763  -0.67661
 Alpha  occ. eigenvalues --   -0.67533  -0.67246  -0.67142  -0.65310  -0.65206
 Alpha  occ. eigenvalues --   -0.64874  -0.64700  -0.64642  -0.64587  -0.64290
 Alpha  occ. eigenvalues --   -0.64133  -0.62315  -0.62211  -0.60463  -0.60275
 Alpha  occ. eigenvalues --   -0.59828  -0.59730  -0.59007  -0.58921  -0.58523
 Alpha  occ. eigenvalues --   -0.58355  -0.57601  -0.57481  -0.57328  -0.57167
 Alpha  occ. eigenvalues --   -0.56329  -0.56135  -0.55997  -0.55822  -0.55540
 Alpha  occ. eigenvalues --   -0.55389  -0.55358  -0.55176  -0.54542  -0.54419
 Alpha  occ. eigenvalues --   -0.53920  -0.53849  -0.53319  -0.53244  -0.53160
 Alpha  occ. eigenvalues --   -0.53078  -0.52934  -0.52837  -0.52779  -0.52614
 Alpha  occ. eigenvalues --   -0.52462  -0.52334  -0.51930  -0.51799  -0.51640
 Alpha  occ. eigenvalues --   -0.51599  -0.51215  -0.51130  -0.50595  -0.50422
 Alpha  occ. eigenvalues --   -0.50054  -0.49940  -0.49917  -0.49798  -0.49536
 Alpha  occ. eigenvalues --   -0.49426  -0.49234  -0.49136  -0.49118  -0.49035
 Alpha  occ. eigenvalues --   -0.48611  -0.48490  -0.48480  -0.48463  -0.48302
 Alpha  occ. eigenvalues --   -0.48279  -0.47716  -0.47531  -0.47317  -0.47053
 Alpha  occ. eigenvalues --   -0.46819  -0.46640  -0.46580  -0.46492  -0.46379
 Alpha  occ. eigenvalues --   -0.46201  -0.46181  -0.46011  -0.45839  -0.45748
 Alpha  occ. eigenvalues --   -0.45221  -0.45135  -0.44595  -0.44530  -0.44446
 Alpha  occ. eigenvalues --   -0.44411  -0.44166  -0.44111  -0.44060  -0.44038
 Alpha  occ. eigenvalues --   -0.44012  -0.43877  -0.43512  -0.43486  -0.43408
 Alpha  occ. eigenvalues --   -0.43317  -0.43047  -0.42864  -0.42829  -0.42717
 Alpha  occ. eigenvalues --   -0.42675  -0.42486  -0.42032  -0.41898  -0.41723
 Alpha  occ. eigenvalues --   -0.41597  -0.41559  -0.41395  -0.41162  -0.40919
 Alpha  occ. eigenvalues --   -0.40894  -0.40845  -0.40665  -0.40637  -0.40593
 Alpha  occ. eigenvalues --   -0.40423  -0.40263  -0.40172  -0.39465  -0.39357
 Alpha  occ. eigenvalues --   -0.38491  -0.38279  -0.37776  -0.37595  -0.37342
 Alpha  occ. eigenvalues --   -0.37288  -0.37196  -0.37134  -0.36730  -0.36704
 Alpha  occ. eigenvalues --   -0.36212  -0.36147  -0.34307  -0.34182  -0.33795
 Alpha  occ. eigenvalues --   -0.33786  -0.33206  -0.33104  -0.31363  -0.31216
 Alpha  occ. eigenvalues --   -0.31056  -0.30903  -0.30043  -0.29877  -0.29469
 Alpha  occ. eigenvalues --   -0.29340  -0.29260  -0.29136  -0.24101  -0.23964
 Alpha  occ. eigenvalues --   -0.21148  -0.21046
 Alpha virt. eigenvalues --   -0.08794  -0.08721  -0.01771  -0.01613  -0.00078
 Alpha virt. eigenvalues --    0.00035   0.02183   0.02283   0.03095   0.03291
 Alpha virt. eigenvalues --    0.04694   0.04798   0.05083   0.05233   0.06148

 Mulliken charges:
               1
     1  Mg   0.838666
     2  C   -0.003001
     3  C   -0.094223
     4  C   -0.045839
     5  C   -0.063983
     6  N   -0.256766
     7  C   -0.052478
     8  C   -0.014009
     9  C   -0.086977
    10  C    0.046288
    11  C    0.104810
    12  C    0.053516
    13  C   -0.071713
    14  H    0.035946
    15  N   -0.433145
    16  C    0.168392
    17  C   -0.177219
    18  C   -0.003992
    19  C    0.148683
    20  C    0.110203
    21  C    0.012310
    22  O   -0.249518
    23  C    0.062477
    24  N   -0.341146
    25  C    0.041216
    26  C   -0.028177
    27  C   -0.024007
    28  C    0.074858
    29  C    0.076145
    30  C    0.035125
    31  C   -0.004491
    32  N   -0.310500
    33  C    0.080410
    34  C   -0.169680
    35  C    0.008423
    36  C    0.082989
    37  C    0.127297
    38  C    0.046177
    39  O   -0.188220
    40  C   -0.005341
    41  C    0.212902
    42  O   -0.257109
    43  O   -0.304791
    44  C    0.157634
    45  H   -0.017647
    46  H   -0.016780
    47  H   -0.041450
    48  H    0.001002
    49  H   -0.004161
    50  H    0.025534
    51  H    0.016487
    52  H    0.016634
    53  H    0.011027
    54  H    0.044132
    55  H    0.017983
    56  H    0.017784
    57  H    0.005785
    58  H    0.026860
    59  H    0.039369
    60  H    0.037312
    61  H    0.035780
    62  H    0.031376
    63  H    0.016569
    64  H    0.009532
    65  H    0.023271
    66  H    0.012570
    67  H    0.004793
    68  H    0.006412
    69  H    0.004750
    70  H    0.008832
    71  H    0.017892
    72  H    0.028973
    73  H    0.047705
    74  H    0.009099
    75  H    0.046086
    76  H    0.035195
    77  H    0.043110
    78  H    0.046253
    79  H    0.053785
    80  Mg   0.837962
    81  C   -0.016842
    82  C   -0.087872
    83  C   -0.045514
    84  C   -0.064586
    85  N   -0.254559
    86  C   -0.049682
    87  C   -0.015120
    88  C   -0.090541
    89  C    0.045818
    90  C    0.114392
    91  C    0.062581
    92  C   -0.077794
    93  H    0.034730
    94  N   -0.423446
    95  C    0.162875
    96  C   -0.174814
    97  C   -0.007917
    98  C    0.152073
    99  C    0.099474
   100  C    0.015461
   101  O   -0.253230
   102  C    0.061246
   103  N   -0.350010
   104  C    0.037580
   105  C   -0.019867
   106  C   -0.034867
   107  C    0.088986
   108  C    0.073594
   109  C    0.034734
   110  C   -0.007647
   111  N   -0.324194
   112  C    0.078560
   113  C   -0.162856
   114  C    0.002401
   115  C    0.096268
   116  C    0.131437
   117  C    0.042613
   118  O   -0.187645
   119  C    0.000849
   120  C    0.211205
   121  O   -0.251131
   122  O   -0.305542
   123  C    0.152065
   124  H   -0.019965
   125  H   -0.015626
   126  H   -0.040277
   127  H   -0.000560
   128  H   -0.004609
   129  H    0.022871
   130  H    0.014569
   131  H    0.015900
   132  H    0.013820
   133  H    0.037668
   134  H    0.020785
   135  H    0.019415
   136  H    0.008553
   137  H    0.025809
   138  H    0.039570
   139  H    0.038051
   140  H    0.036235
   141  H    0.033805
   142  H    0.014232
   143  H    0.012754
   144  H    0.025013
   145  H    0.011830
   146  H    0.005958
   147  H    0.006178
   148  H    0.003699
   149  H    0.010845
   150  H    0.017814
   151  H    0.030091
   152  H    0.045922
   153  H    0.008468
   154  H    0.047770
   155  H    0.035400
   156  H    0.043937
   157  H    0.049352
   158  H    0.053497
 Sum of Mulliken charges =  -0.00000

 Dipole moment (field-independent basis, Debye):
    X=             -3.4460    Y=             -2.2381    Z=             -7.9432  Tot=              8.9431
 Quadrupole moment (field-independent basis, Debye-Ang):
   XX=           -506.0071   YY=           -554.6604   ZZ=           -446.2039
   XY=             -2.1884   XZ=            -16.6503   YZ=            -42.2050

 Normal termination of Gaussian 16 at Sat Sep 11 22:46:30 2021.
