 Gaussian 16, Revision A.03,
 Gaussian 16:  ES64L-G16RevA.03 25-Dec-2016

 -----------------------------------
 #p cam-b3lyp/Def2SVP td=(nstates=5)
 -----------------------------------

 --------------------------------
 TDDFT excited states in gaussian
 --------------------------------
 Symbolic Z-matrix:
 Charge =  0 Multiplicity = 1

                         Standard orientation:
 ---------------------------------------------------------------------
 Center     Atomic      Atomic             Coordinates (Angstroms)
 Number     Number       Type             X           Y           Z
 ---------------------------------------------------------------------
      1         12           0       -3.766823   -0.998607    0.349105
      2          6           0       -4.069417    1.819263    2.535485
      3          6           0       -5.021164    0.979991   -2.131791
      4          6           0       -3.936118   -3.584529   -1.478726
      5          6           0       -3.626837   -3.005067    3.195186
      6          7           0       -4.422897    1.115571    0.327506
      7          6           0       -4.431747    2.103501    1.216936
      8          6           0       -4.790134    3.488043    0.598894
      9          6           0       -5.598660    2.990276   -0.681930
     10          6           0       -4.952458    1.628061   -0.862809
     11          6           0       -7.089415    2.796382   -0.423943
     12          6           0       -3.517719    4.304565    0.191485
     13          6           0       -3.761615    5.785357   -0.113677
     14          1           0       -2.740920    6.754044    0.256694
     15          7           0       -3.918802   -1.173021   -1.612867
     16          6           0       -4.440836   -0.261968   -2.468875
     17          6           0       -4.326253   -0.857450   -3.817560
     18          6           0       -3.869459   -2.265741   -3.655849
     19          6           0       -3.915632   -2.407321   -2.222950
     20          6           0       -4.588313   -0.093695   -5.079207
     21          6           0       -3.466856   -3.320363   -4.637590
     22          8           0       -3.327213   -4.545698   -4.300504
     23          6           0       -3.324433   -2.891652   -6.040788
     24          7           0       -4.000772   -3.028072    0.778256
     25          6           0       -3.982954   -3.945656   -0.194732
     26          6           0       -3.882699   -5.333526    0.365361
     27          6           0       -3.589542   -5.160525    1.925452
     28          6           0       -3.657479   -3.615608    2.008439
     29          6           0       -5.118639   -6.223369    0.173943
     30          6           0       -2.335494   -5.874988    2.488767
     31          6           0       -1.085282   -5.240507    1.921756
     32          7           0       -3.655427   -0.672100    2.492007
     33          6           0       -3.629464   -1.652837    3.494082
     34          6           0       -3.662227   -0.948362    4.788961
     35          6           0       -3.722095    0.401428    4.447894
     36          6           0       -3.752944    0.530738    3.029931
     37          6           0       -3.694332   -1.563287    6.071642
     38          6           0       -3.792037    1.763467    4.951694
     39          8           0       -3.706561    2.281276    6.066172
     40          6           0       -4.142580    2.730095    3.735726
     41          6           0       -3.192793    3.895396    3.793048
     42          8           0       -1.972356    3.736751    3.586329
     43          8           0       -3.893985    5.038266    3.845186
     44          6           0       -3.011370    6.235056    3.874164
     45          1           0       -5.621686    1.432140   -2.923546
     46          1           0       -3.883106   -4.499676   -2.072134
     47          1           0       -3.500626   -3.561581    4.125679
     48          1           0       -5.429393    4.112648    1.223105
     49          1           0       -5.409021    3.618217   -1.552246
     50          1           0       -7.328641    2.908558    0.633463
     51          1           0       -7.313593    1.783686   -0.759628
     52          1           0       -7.681279    3.459335   -1.055583
     53          1           0       -3.172515    3.968086   -0.786102
     54          1           0       -2.742444    4.216413    0.953394
     55          1           0       -4.741263    6.108926    0.239171
     56          1           0       -3.809446    5.907705   -1.195778
     57          1           0       -5.066302    0.863750   -4.875812
     58          1           0       -5.333552   -0.655149   -5.642322
     59          1           0       -3.687148    0.026909   -5.680611
     60          1           0       -4.272032   -2.480475   -6.389413
     61          1           0       -2.945031   -3.757269   -6.582647
     62          1           0       -2.600582   -2.077643   -6.089553
     63          1           0       -3.061307   -5.882116   -0.093757
     64          1           0       -4.408141   -5.536539    2.539605
     65          1           0       -4.909314   -7.156940   -0.348870
     66          1           0       -5.874648   -5.641404   -0.352419
     67          1           0       -5.644012   -6.479914    1.093500
     68          1           0       -2.328497   -6.922091    2.187979
     69          1           0       -2.273627   -5.841987    3.576579
     70          1           0       -0.973363   -5.740154    0.960164
     71          1           0       -0.230135   -5.441369    2.567968
     72          1           0       -1.232979   -4.178984    1.722157
     73          1           0       -2.995963   -1.005095    6.695077
     74          1           0       -3.418836   -2.616034    6.013080
     75          1           0       -4.741346   -1.419858    6.338187
     76          1           0       -5.178655    3.039439    3.869808
     77          1           0       -3.280593    6.811065    4.759583
     78          1           0       -3.115651    6.720559    2.903691
     79          1           0       -1.953497    6.049365    4.063272
     80         12           0        4.108936   -0.253512   -0.240486
     81          6           0        2.756271    1.957284   -2.722757
     82          6           0        5.805261    2.428954    1.009107
     83          6           0        5.661508   -2.252451    1.672951
     84          6           0        3.240749   -2.904998   -2.328927
     85          7           0        4.188224    1.867583   -0.862518
     86          6           0        3.584157    2.604893   -1.782204
     87          6           0        3.820731    4.132366   -1.639322
     88          6           0        5.207133    4.086317   -0.830222
     89          6           0        5.050126    2.726175   -0.153456
     90          6           0        6.428902    4.032761   -1.732304
     91          6           0        2.692722    4.836590   -0.806459
     92          6           0        2.692556    6.364735   -0.887263
     93          1           0        1.409829    7.062461   -0.871032
     94          7           0        5.131949    0.095705    1.423872
     95          6           0        5.734864    1.248870    1.781615
     96          6           0        6.369082    0.984572    3.082411
     97          6           0        6.230774   -0.465824    3.385648
     98          6           0        5.675541   -0.944678    2.135642
     99          6           0        6.953778    2.070468    3.938218
    100          6           0        6.557609   -1.288109    4.595280
    101          8           0        6.576545   -2.569016    4.553696
    102          6           0        6.945881   -0.548719    5.805254
    103          7           0        4.601671   -2.266572   -0.405241
    104          6           0        5.233979   -2.907523    0.593407
    105          6           0        5.236392   -4.400696    0.367977
    106          6           0        4.259206   -4.649366   -0.873331
    107          6           0        3.915705   -3.184588   -1.222388
    108          6           0        6.599658   -5.027130    0.075618
    109          6           0        3.091893   -5.651706   -0.660316
    110          6           0        2.101153   -5.086796    0.331997
    111          7           0        3.008492   -0.484390   -2.085413
    112          6           0        2.786293   -1.680672   -2.802080
    113          6           0        2.086010   -1.316418   -4.050823
    114          6           0        1.968911    0.080128   -3.984236
    115          6           0        2.572761    0.554883   -2.788632
    116          6           0        1.695226   -2.219589   -5.079267
    117          6           0        1.481187    1.261694   -4.658569
    118          8           0        0.808540    1.470888   -5.667284
    119          6           0        2.081132    2.541930   -3.932303
    120          6           0        0.957866    3.516233   -3.705316
    121          8           0        0.023884    3.235450   -2.933665
    122          8           0        1.279768    4.697587   -4.263121
    123          6           0        0.201235    5.700193   -4.054903
    124          1           0        6.554204    3.149238    1.339499
    125          1           0        6.087283   -2.996704    2.349921
    126          1           0        2.848709   -3.684110   -2.986172
    127          1           0        3.954020    4.660930   -2.575602
    128          1           0        5.257476    4.878240   -0.087464
    129          1           0        6.157962    3.914884   -2.770971
    130          1           0        7.007691    3.183474   -1.393547
    131          1           0        7.058435    4.911776   -1.566895
    132          1           0        2.902094    4.705015    0.262925
    133          1           0        1.726098    4.460188   -1.079566
    134          1           0        3.320666    6.734231   -1.706958
    135          1           0        3.167934    6.759929    0.013767
    136          1           0        7.058476    3.009467    3.380801
    137          1           0        7.983069    1.775820    4.169730
    138          1           0        6.407275    2.209997    4.873381
    139          1           0        7.818267    0.063686    5.589882
    140          1           0        7.053916   -1.303307    6.586783
    141          1           0        6.135537    0.139802    6.069653
    142          1           0        4.845910   -4.922994    1.232747
    143          1           0        4.797626   -5.060907   -1.739690
    144          1           0        6.870999   -5.832333    0.784188
    145          1           0        7.345133   -4.243116    0.087336
    146          1           0        6.713406   -5.439130   -0.925643
    147          1           0        3.466538   -6.583171   -0.228838
    148          1           0        2.570124   -5.908062   -1.576299
    149          1           0        2.546156   -5.343043    1.298128
    150          1           0        1.126767   -5.555427    0.209530
    151          1           0        2.059815   -3.993268    0.267776
    152          1           0        0.693563   -1.938620   -5.376312
    153          1           0        1.734676   -3.251923   -4.737943
    154          1           0        2.461947   -2.005425   -5.828621
    155          1           0        2.855437    2.953674   -4.580770
    156          1           0       -0.083120    6.073546   -5.043562
    157          1           0        0.611466    6.435660   -3.337585
    158          1           0       -0.751166    5.341731   -3.682228
 ---------------------------------------------------------------------

 SCF Done:  E(RCAM-B3LYP) =  -4069.81270728     A.U. after   18 cycles

 Excitation energies and oscillator strengths:

 Excited State   1:      Singlet-A      1.6364 eV  757.68 nm  f=0.0576  <S**2>=0.000
     309 -> 315        0.12141
     310 -> 316        0.10913
     311 -> 313        0.50956
     312 -> 314        0.46288
 This state for optimization and/or second-order correction.
 Total Energy, E(TD-HF/TD-DFT) =  -4069.75257168
 Copying the excited state density for this state as the 1-particle RhoCI density.

 Excited State   2:      Singlet-A      1.7107 eV  724.75 nm  f=0.6429  <S**2>=0.000
     309 -> 315       -0.12261
     310 -> 316        0.13470
     311 -> 313       -0.45974
     312 -> 314        0.50620

 Excited State   3:      Singlet-A      2.1786 eV  569.10 nm  f=0.0101  <S**2>=0.000
     309 -> 313        0.54290
     310 -> 314       -0.35075
     311 -> 315       -0.22357
     312 -> 316        0.14258

 Excited State   4:      Singlet-A      2.1975 eV  564.22 nm  f=0.1583  <S**2>=0.000
     309 -> 313        0.34554
     310 -> 314        0.53683
     311 -> 315       -0.15298
     312 -> 316       -0.23618

 Excited State   5:      Singlet-A      2.2640 eV  547.63 nm  f=0.0000  <S**2>=0.000
     312 -> 313        0.70674

 The electronic state is 1-A.
 Alpha  occ. eigenvalues --  -46.87537 -46.87278 -19.26557 -19.26012 -19.19377
 Alpha  occ. eigenvalues --  -19.18710 -19.18581 -19.18378 -19.18134 -19.17759
 Alpha  occ. eigenvalues --  -14.42371 -14.41926 -14.41246 -14.40973 -14.39225
 Alpha  occ. eigenvalues --  -14.38871 -14.38506 -14.38099 -10.39265 -10.38762
 Alpha  occ. eigenvalues --  -10.35254 -10.35004 -10.34307 -10.33984 -10.32044
 Alpha  occ. eigenvalues --  -10.31494 -10.31222 -10.30907 -10.30905 -10.30368
 Alpha  occ. eigenvalues --  -10.30300 -10.30273 -10.30066 -10.30052 -10.29990
 Alpha  occ. eigenvalues --  -10.29802 -10.29725 -10.29516 -10.29306 -10.29305
 Alpha  occ. eigenvalues --  -10.29160 -10.28728 -10.28618 -10.28586 -10.28317
 Alpha  occ. eigenvalues --  -10.28223 -10.28170 -10.28042 -10.27922 -10.27851
 Alpha  occ. eigenvalues --  -10.27610 -10.27549 -10.27395 -10.27360 -10.27358
 Alpha  occ. eigenvalues --  -10.27296 -10.27291 -10.27256 -10.27196 -10.27166
 Alpha  occ. eigenvalues --  -10.27153 -10.27106 -10.27075 -10.26921 -10.26763
 Alpha  occ. eigenvalues --  -10.26739 -10.26534 -10.26232 -10.26042 -10.25957
 Alpha  occ. eigenvalues --  -10.25923 -10.25914 -10.25890 -10.25840 -10.25811
 Alpha  occ. eigenvalues --  -10.25798 -10.25549 -10.25465 -10.25300 -10.25168
 Alpha  occ. eigenvalues --  -10.24811 -10.24589 -10.24475 -10.24440 -10.24353
 Alpha  occ. eigenvalues --  -10.24336  -3.16285  -3.16018  -1.91167  -1.90899
 Alpha  occ. eigenvalues --   -1.90756  -1.90594  -1.90486  -1.90329  -1.16846
 Alpha  occ. eigenvalues --   -1.16351  -1.08763  -1.08235  -1.07138  -1.06832
 Alpha  occ. eigenvalues --   -1.06790  -1.06334  -1.04382  -1.04062  -1.03548
 Alpha  occ. eigenvalues --   -1.03280  -1.02929  -1.02739  -1.02009  -1.01924
 Alpha  occ. eigenvalues --   -0.91938  -0.91511  -0.89372  -0.89134  -0.89046
 Alpha  occ. eigenvalues --   -0.88677  -0.88091  -0.87912  -0.87731  -0.87569
 Alpha  occ. eigenvalues --   -0.87414  -0.87160  -0.86984  -0.86720  -0.84900
 Alpha  occ. eigenvalues --   -0.84496  -0.83771  -0.83606  -0.82794  -0.82563
 Alpha  occ. eigenvalues --   -0.82495  -0.82187  -0.81630  -0.81209  -0.80399
 Alpha  occ. eigenvalues --   -0.80155  -0.78525  -0.78270  -0.77045  -0.76869
 Alpha  occ. eigenvalues --   -0.76777  -0.76522  -0.75803  -0.75498  -0.74723
 Alpha  occ. eigenvalues --   -0.74522  -0.72606  -0.72312  -0.71503  -0.71236
 Alpha  occ. eigenvalues --   -0.69760  -0.69448  -0.68737  -0.68404  -0.67525
 Alpha  occ. eigenvalues --   -0.67184  -0.67081  -0.66712  -0.65202  -0.64809
 Alpha  occ. eigenvalues --   -0.64721  -0.64588  -0.64425  -0.64222  -0.64078
 Alpha  occ. eigenvalues --   -0.63853  -0.62326  -0.61946  -0.60217  -0.59949
 Alpha  occ. eigenvalues --   -0.59698  -0.59301  -0.58915  -0.58543  -0.58374
 Alpha  occ. eigenvalues --   -0.58063  -0.57613  -0.57195  -0.57148  -0.56898
 Alpha  occ. eigenvalues --   -0.56157  -0.55919  -0.55854  -0.55615  -0.55410
 Alpha  occ. eigenvalues --   -0.55217  -0.55053  -0.55002  -0.54475  -0.54180
 Alpha  occ. eigenvalues --   -0.53814  -0.53395  -0.53143  -0.53100  -0.52863
 Alpha  occ. eigenvalues --   -0.52854  -0.52747  -0.52534  -0.52501  -0.52301
 Alpha  occ. eigenvalues --   -0.52214  -0.52104  -0.51859  -0.51560  -0.51506
 Alpha  occ. eigenvalues --   -0.51164  -0.51106  -0.50785  -0.50317  -0.50010
 Alpha  occ. eigenvalues --   -0.49870  -0.49770  -0.49601  -0.49420  -0.49399
 Alpha  occ. eigenvalues --   -0.49151  -0.49076  -0.49051  -0.48761  -0.48653
 Alpha  occ. eigenvalues --   -0.48548  -0.48338  -0.48222  -0.48203  -0.48096
 Alpha  occ. eigenvalues --   -0.47978  -0.47514  -0.47254  -0.47023  -0.46827
 Alpha  occ. eigenvalues --   -0.46623  -0.46477  -0.46363  -0.46198  -0.46098
 Alpha  occ. eigenvalues --   -0.46021  -0.45902  -0.45823  -0.45766  -0.45448
 Alpha  occ. eigenvalues --   -0.45133  -0.44804  -0.44502  -0.44377  -0.44193
 Alpha  occ. eigenvalues --   -0.44113  -0.44055  -0.43979  -0.43844  -0.43738
 Alpha  occ. eigenvalues --   -0.43676  -0.43603  -0.43550  -0.43308  -0.43126
 Alpha  occ. eigenvalues --   -0.43017  -0.42930  -0.42850  -0.42608  -0.42453
 Alpha  occ. eigenvalues --   -0.42376  -0.42294  -0.41858  -0.41653  -0.41604
 Alpha  occ. eigenvalues --   -0.41361  -0.41266  -0.41083  -0.40909  -0.40703
 Alpha  occ. eigenvalues --   -0.40608  -0.40567  -0.40441  -0.40370  -0.40350
 Alpha  occ. eigenvalues --   -0.40183  -0.40090  -0.39671  -0.39503  -0.38787
 Alpha  occ. eigenvalues --   -0.38227  -0.38073  -0.37558  -0.37279  -0.37162
 Alpha  occ. eigenvalues --   -0.37101  -0.36910  -0.36859  -0.36767  -0.36386
 Alpha  occ. eigenvalues --   -0.36122  -0.35794  -0.34181  -0.33994  -0.33808
 Alpha  occ. eigenvalues --   -0.33429  -0.33077  -0.32705  -0.31143  -0.30912
 Alpha  occ. eigenvalues --   -0.30875  -0.30562  -0.30047  -0.29628  -0.29233
 Alpha  occ. eigenvalues --   -0.29130  -0.28944  -0.28828  -0.23931  -0.23586
 Alpha  occ. eigenvalues --   -0.21006  -0.20629
 Alpha virt. eigenvalues --   -0.08693  -0.08270  -0.01563  -0.01268   0.00077
 Alpha virt. eigenvalues --    0.00443   0.02228   0.02607   0.02730   0.04573
 Alpha virt. eigenvalues --    0.04728   0.05009   0.05161   0.05430   0.05861

 Mulliken charges:
               1
     1  Mg   0.842172
     2  C   -0.002382
     3  C   -0.086870
     4  C   -0.048222
     5  C   -0.065024
     6  N   -0.256916
     7  C   -0.051285
     8  C   -0.015154
     9  C   -0.088494
    10  C    0.050217
    11  C    0.105057
    12  C    0.050994
    13  C   -0.069622
    14  H    0.029794
    15  N   -0.433429
    16  C    0.173087
    17  C   -0.171916
    18  C   -0.004211
    19  C    0.149805
    20  C    0.109479
    21  C    0.010765
    22  O   -0.252952
    23  C    0.058896
    24  N   -0.341144
    25  C    0.042349
    26  C   -0.029422
    27  C   -0.024407
    28  C    0.073735
    29  C    0.076936
    30  C    0.045014
    31  C   -0.026023
    32  N   -0.309935
    33  C    0.079206
    34  C   -0.171192
    35  C    0.007367
    36  C    0.082090
    37  C    0.127696
    38  C    0.044901
    39  O   -0.191214
    40  C   -0.005339
    41  C    0.212815
    42  O   -0.257603
    43  O   -0.304657
    44  C    0.158816
    45  H   -0.018349
    46  H   -0.018938
    47  H   -0.043183
    48  H   -0.001294
    49  H   -0.003247
    50  H    0.024562
    51  H    0.016040
    52  H    0.015465
    53  H    0.025278
    54  H    0.043563
    55  H    0.016024
    56  H    0.016177
    57  H    0.005743
    58  H    0.023874
    59  H    0.050823
    60  H    0.037276
    61  H    0.033085
    62  H    0.039645
    63  H    0.015307
    64  H    0.008769
    65  H    0.021594
    66  H    0.012790
    67  H    0.004281
    68  H    0.003739
    69  H    0.002955
    70  H    0.021822
    71  H    0.023018
    72  H    0.031319
    73  H    0.045936
    74  H    0.008266
    75  H    0.044817
    76  H    0.034210
    77  H    0.041587
    78  H    0.046243
    79  H    0.051701
    80  Mg   0.840414
    81  C   -0.017040
    82  C   -0.086711
    83  C   -0.045433
    84  C   -0.064629
    85  N   -0.254896
    86  C   -0.048876
    87  C   -0.016033
    88  C   -0.090974
    89  C    0.047328
    90  C    0.114448
    91  C    0.062240
    92  C   -0.077103
    93  H    0.032241
    94  N   -0.423622
    95  C    0.165024
    96  C   -0.173604
    97  C   -0.006854
    98  C    0.152926
    99  C    0.099396
   100  C    0.016435
   101  O   -0.253424
   102  C    0.060526
   103  N   -0.350126
   104  C    0.037953
   105  C   -0.020354
   106  C   -0.033893
   107  C    0.088151
   108  C    0.073900
   109  C    0.038963
   110  C   -0.012568
   111  N   -0.323767
   112  C    0.077304
   113  C   -0.162992
   114  C    0.000156
   115  C    0.096042
   116  C    0.132631
   117  C    0.041094
   118  O   -0.193769
   119  C    0.001314
   120  C    0.210543
   121  O   -0.251571
   122  O   -0.304808
   123  C    0.153243
   124  H   -0.019737
   125  H   -0.015634
   126  H   -0.039343
   127  H   -0.002009
   128  H   -0.003734
   129  H    0.021879
   130  H    0.014420
   131  H    0.016062
   132  H    0.018438
   133  H    0.038190
   134  H    0.019563
   135  H    0.020463
   136  H    0.008879
   137  H    0.025725
   138  H    0.042115
   139  H    0.037848
   140  H    0.036327
   141  H    0.036124
   142  H    0.014404
   143  H    0.012010
   144  H    0.024764
   145  H    0.011380
   146  H    0.005592
   147  H    0.004208
   148  H    0.003901
   149  H    0.010086
   150  H    0.017421
   151  H    0.029391
   152  H    0.040267
   153  H    0.013025
   154  H    0.045968
   155  H    0.034777
   156  H    0.042582
   157  H    0.051149
   158  H    0.049608
 Sum of Mulliken charges =  -0.00000

 Dipole moment (field-independent basis, Debye):
    X=              1.2902    Y=              3.2743    Z=             -2.1860  Tot=              4.1430
 Quadrupole moment (field-independent basis, Debye-Ang):
   XX=           -479.4864   YY=           -463.2824   ZZ=           -542.1000
   XY=             12.1954   XZ=             13.6369   YZ=            -12.8312

 Normal termination of Gaussian 16 at Wed Sep  8 19:56:31 2021.
