 Gaussian 16, Revision A.03,
 Gaussian 16:  ES64L-G16RevA.03 25-Dec-2016

 -----------------------------------
 #p cam-b3lyp/Def2SVP td=(nstates=5)
 -----------------------------------

 --------------------------------
 TDDFT excited states in gaussian
 --------------------------------
 Symbolic Z-matrix:
 Charge =  0 Multiplicity = 1

                         Standard orientation:
 ---------------------------------------------------------------------
 Center     Atomic      Atomic             Coordinates (Angstroms)
 Number     Number       Type             X           Y           Z
 ---------------------------------------------------------------------
      1         12           0        3.171765   -2.245835   -0.098472
      2          6           0        5.364909    0.544381   -0.564334
      3          6           0        4.299318   -2.404818    3.118112
      4          6           0        1.591422   -4.978360    0.205579
      5          6           0        3.084019   -2.567446   -3.567554
      6          7           0        4.644793   -1.027829    1.018352
      7          6           0        5.371477    0.050487    0.742062
      8          6           0        6.082871    0.652614    1.990555
      9          6           0        6.132148   -0.651964    2.905785
     10          6           0        4.933112   -1.391648    2.339123
     11          6           0        7.380461   -1.501288    2.689303
     12          6           0        5.243617    1.791659    2.661347
     13          6           0        6.001491    2.648732    3.679387
     14          1           0        5.689527    4.067051    3.771016
     15          7           0        2.594062   -3.218370    1.521184
     16          6           0        3.158382   -3.150675    2.750918
     17          6           0        2.368373   -4.056521    3.612318
     18          6           0        1.417771   -4.800109    2.739663
     19          6           0        1.853329   -4.375682    1.433704
     20          6           0        2.519839   -4.115824    5.101376
     21          6           0        0.301794   -5.751591    3.035312
     22          8           0       -0.246070   -6.461590    2.124092
     23          6           0       -0.078785   -5.897946    4.451921
     24          7           0        2.613369   -3.722830   -1.463871
     25          6           0        1.883316   -4.776097   -1.080941
     26          6           0        1.368494   -5.542441   -2.263148
     27          6           0        1.698363   -4.650497   -3.545870
     28          6           0        2.461129   -3.500163   -2.843596
     29          6           0        1.953063   -6.948626   -2.455326
     30          6           0        0.512460   -4.289681   -4.475314
     31          6           0       -0.439323   -3.360531   -3.755671
     32          7           0        3.908349   -1.111406   -1.795988
     33          6           0        3.776446   -1.442255   -3.152386
     34          6           0        4.528476   -0.431637   -3.918657
     35          6           0        5.062837    0.412893   -2.947538
     36          6           0        4.691299   -0.056475   -1.655275
     37          6           0        4.696014   -0.411650   -5.331443
     38          6           0        5.881706    1.588484   -2.699957
     39          8           0        6.394665    2.453469   -3.411412
     40          6           0        6.211239    1.650786   -1.143244
     41          6           0        5.944918    3.056528   -0.678194
     42          8           0        4.784873    3.516340   -0.662890
     43          8           0        7.052424    3.552701   -0.105668
     44          6           0        6.847230    4.934756    0.404209
     45          1           0        4.748340   -2.697610    4.069213
     46          1           0        0.954515   -5.863750    0.259166
     47          1           0        3.031561   -2.554830   -4.657756
     48          1           0        7.093843    1.016444    1.806200
     49          1           0        5.970253   -0.417453    3.957696
     50          1           0        7.969271   -1.136823    1.847645
     51          1           0        7.015827   -2.509301    2.490696
     52          1           0        7.966186   -1.569795    3.606369
     53          1           0        4.492844    1.347632    3.314983
     54          1           0        4.798417    2.439265    1.905219
     55          1           0        7.078808    2.498738    3.603240
     56          1           0        5.748742    2.295124    4.679027
     57          1           0        3.406994   -3.579223    5.435380
     58          1           0        2.717944   -5.155788    5.360101
     59          1           0        1.624013   -3.772456    5.618993
     60          1           0        0.785424   -6.236942    5.023562
     61          1           0       -0.951280   -6.550233    4.463041
     62          1           0       -0.343943   -4.917805    4.849369
     63          1           0        0.291001   -5.687214   -2.196247
     64          1           0        2.416707   -5.135296   -4.207403
     65          1           0        1.199510   -7.736096   -2.482748
     66          1           0        2.674649   -7.125447   -1.658244
     67          1           0        2.575723   -7.067584   -3.341645
     68          1           0       -0.050100   -5.185162   -4.737206
     69          1           0        0.823556   -3.810163   -5.403502
     70          1           0       -1.060953   -4.046199   -3.180982
     71          1           0       -1.038159   -2.798907   -4.473435
     72          1           0        0.087330   -2.724060   -3.044316
     73          1           0        4.555129    0.623958   -5.640694
     74          1           0        3.983275   -1.072631   -5.824100
     75          1           0        5.723016   -0.766086   -5.418031
     76          1           0        7.259564    1.374955   -1.033463
     77          1           0        7.610022    5.563119   -0.055730
     78          1           0        6.837260    4.865402    1.492095
     79          1           0        5.938513    5.440000    0.075118
     80         12           0       -3.314877    2.329721    0.231950
     81          6           0       -5.215424   -0.712139    0.113354
     82          6           0       -2.711958    1.907305   -3.098622
     83          6           0       -1.270418    4.750592    0.396320
     84          6           0       -3.108724    1.903058    3.684654
     85          7           0       -3.938158    0.760917   -1.197261
     86          6           0       -4.710653   -0.313575   -1.141944
     87          6           0       -5.021751   -0.953786   -2.521411
     88          6           0       -3.747904   -0.407813   -3.332659
     89          6           0       -3.462118    0.852909   -2.519293
     90          6           0       -2.537441   -1.321710   -3.238307
     91          6           0       -6.364606   -0.424572   -3.136773
     92          6           0       -6.886333   -1.228737   -4.329608
     93          1           0       -8.329819   -1.385022   -4.485814
     94          7           0       -2.561899    3.474515   -1.203687
     95          6           0       -2.411862    3.153460   -2.505873
     96          6           0       -1.793534    4.327519   -3.141040
     97          6           0       -1.439857    5.305108   -2.076172
     98          6           0       -1.731095    4.521984   -0.892113
     99          6           0       -1.663165    4.473241   -4.629397
    100          6           0       -0.913040    6.707611   -2.116709
    101          8           0       -0.452443    7.284427   -1.068868
    102          6           0       -0.865901    7.352313   -3.437182
    103          7           0       -2.151831    3.090497    1.778192
    104          6           0       -1.390103    4.183589    1.596946
    105          6           0       -0.862477    4.704988    2.912299
    106          6           0       -1.628937    3.873038    4.042776
    107          6           0       -2.436889    2.910677    3.144730
    108          6           0        0.646251    4.577115    3.121523
    109          6           0       -2.389487    4.689334    5.123463
    110          6           0       -3.563957    5.406186    4.497265
    111          7           0       -4.171849    0.981361    1.686447
    112          6           0       -3.931574    0.962797    3.077847
    113          6           0       -4.648919   -0.205614    3.627990
    114          6           0       -5.242612   -0.803684    2.506233
    115          6           0       -4.901588   -0.072022    1.336667
    116          6           0       -4.651433   -0.613824    4.991617
    117          6           0       -6.071543   -1.893670    2.044178
    118          8           0       -6.722037   -2.782907    2.591763
    119          6           0       -5.987050   -1.955652    0.458169
    120          6           0       -7.387075   -2.082432   -0.076956
    121          8           0       -8.205976   -1.158066    0.069887
    122          8           0       -7.462904   -3.175249   -0.858233
    123          6           0       -8.829763   -3.337668   -1.421382
    124          1           0       -2.274677    1.751722   -4.085258
    125          1           0       -0.650155    5.640747    0.524284
    126          1           0       -3.174272    1.757469    4.765016
    127          1           0       -5.030275   -2.037138   -2.527862
    128          1           0       -4.011535   -0.150293   -4.355171
    129          1           0       -2.697246   -2.131416   -2.541901
    130          1           0       -1.720119   -0.694179   -2.907796
    131          1           0       -2.258189   -1.681336   -4.232808
    132          1           0       -6.178289    0.539543   -3.627202
    133          1           0       -7.127233   -0.356503   -2.385516
    134          1           0       -6.382243   -2.198106   -4.425380
    135          1           0       -6.623161   -0.697933   -5.247754
    136          1           0       -1.859272    3.525098   -5.145111
    137          1           0       -0.608757    4.683408   -4.838967
    138          1           0       -2.271846    5.287775   -5.027782
    139          1           0       -0.247588    6.759175   -4.106768
    140          1           0       -0.545376    8.378978   -3.249851
    141          1           0       -1.876164    7.355049   -3.861419
    142          1           0       -1.093548    5.756343    3.032215
    143          1           0       -0.937815    3.249911    4.629185
    144          1           0        1.141074    5.543819    3.332966
    145          1           0        1.074821    4.114879    2.242203
    146          1           0        0.946364    3.891727    3.912330
    147          1           0       -1.740074    5.463009    5.540417
    148          1           0       -2.743152    4.084818    5.952004
    149          1           0       -3.108500    6.310314    4.082298
    150          1           0       -4.309915    5.650236    5.250924
    151          1           0       -3.975614    4.830458    3.660161
    152          1           0       -5.671839   -0.877821    5.235705
    153          1           0       -4.276912    0.173151    5.642896
    154          1           0       -3.967572   -1.465352    4.941565
    155          1           0       -5.369277   -2.815537    0.196371
    156          1           0       -9.173730   -4.338238   -1.141680
    157          1           0       -8.735239   -3.121325   -2.502123
    158          1           0       -9.618586   -2.719774   -1.008576
 ---------------------------------------------------------------------

 SCF Done:  E(RCAM-B3LYP) =  -4069.80278817     A.U. after   19 cycles

 Excitation energies and oscillator strengths:

 Excited State   1:      Singlet-A      1.6380 eV  756.93 nm  f=0.0078  <S**2>=0.000
     309 -> 315        0.11248
     310 -> 316        0.12017
     311 -> 313       -0.46924
     312 -> 314        0.50333
 This state for optimization and/or second-order correction.
 Total Energy, E(TD-HF/TD-DFT) =  -4069.74259324
 Copying the excited state density for this state as the 1-particle RhoCI density.

 Excited State   2:      Singlet-A      1.7122 eV  724.13 nm  f=0.6706  <S**2>=0.000
     309 -> 315       -0.13457
     310 -> 316        0.12517
     311 -> 313        0.49991
     312 -> 314        0.46622

 Excited State   3:      Singlet-A      2.1808 eV  568.52 nm  f=0.0065  <S**2>=0.000
     309 -> 313       -0.38277
     310 -> 314        0.52077
     311 -> 315       -0.15737
     312 -> 316       -0.21447

 Excited State   4:      Singlet-A      2.1993 eV  563.75 nm  f=0.1617  <S**2>=0.000
     309 -> 313        0.51408
     310 -> 314        0.37688
     311 -> 315        0.22890
     312 -> 316       -0.16852

 Excited State   5:      Singlet-A      2.2341 eV  554.97 nm  f=0.0001  <S**2>=0.000
     312 -> 313        0.70673

 The electronic state is 1-A.
 Alpha  occ. eigenvalues --  -46.87912 -46.87385 -19.26290 -19.26142 -19.19029
 Alpha  occ. eigenvalues --  -19.18943 -19.18827 -19.18347 -19.18270 -19.17777
 Alpha  occ. eigenvalues --  -14.42564 -14.42216 -14.41579 -14.41092 -14.39506
 Alpha  occ. eigenvalues --  -14.39058 -14.38708 -14.38329 -10.39098 -10.38867
 Alpha  occ. eigenvalues --  -10.35454 -10.35018 -10.34488 -10.33959 -10.31649
 Alpha  occ. eigenvalues --  -10.31583 -10.31529 -10.31065 -10.30998 -10.30718
 Alpha  occ. eigenvalues --  -10.30697 -10.30627 -10.30335 -10.30119 -10.30112
 Alpha  occ. eigenvalues --  -10.30065 -10.29854 -10.29741 -10.29636 -10.29364
 Alpha  occ. eigenvalues --  -10.29127 -10.29123 -10.28843 -10.28627 -10.28509
 Alpha  occ. eigenvalues --  -10.28468 -10.28463 -10.28217 -10.28103 -10.27906
 Alpha  occ. eigenvalues --  -10.27844 -10.27797 -10.27711 -10.27678 -10.27674
 Alpha  occ. eigenvalues --  -10.27620 -10.27548 -10.27508 -10.27390 -10.27319
 Alpha  occ. eigenvalues --  -10.27233 -10.27196 -10.27164 -10.27135 -10.27110
 Alpha  occ. eigenvalues --  -10.26805 -10.26776 -10.26484 -10.26394 -10.26344
 Alpha  occ. eigenvalues --  -10.26325 -10.26169 -10.26048 -10.26016 -10.25999
 Alpha  occ. eigenvalues --  -10.25727 -10.25688 -10.25594 -10.25569 -10.25098
 Alpha  occ. eigenvalues --  -10.24947 -10.24904 -10.24891 -10.24590 -10.24587
 Alpha  occ. eigenvalues --  -10.24386  -3.16655  -3.16136  -1.91537  -1.91123
 Alpha  occ. eigenvalues --   -1.91018  -1.90965  -1.90606  -1.90443  -1.16642
 Alpha  occ. eigenvalues --   -1.16433  -1.08725  -1.08393  -1.07221  -1.06727
 Alpha  occ. eigenvalues --   -1.06656  -1.06587  -1.04691  -1.04214  -1.03883
 Alpha  occ. eigenvalues --   -1.03382  -1.03351  -1.02763  -1.02531  -1.01832
 Alpha  occ. eigenvalues --   -0.92075  -0.91710  -0.89698  -0.89291  -0.89254
 Alpha  occ. eigenvalues --   -0.88911  -0.88450  -0.88015  -0.87979  -0.87791
 Alpha  occ. eigenvalues --   -0.87566  -0.87423  -0.87341  -0.86787  -0.85085
 Alpha  occ. eigenvalues --   -0.84781  -0.84136  -0.83645  -0.83043  -0.82728
 Alpha  occ. eigenvalues --   -0.82613  -0.82378  -0.81663  -0.81364  -0.80683
 Alpha  occ. eigenvalues --   -0.80181  -0.78896  -0.78345  -0.77449  -0.77100
 Alpha  occ. eigenvalues --   -0.76872  -0.76666  -0.76026  -0.75654  -0.75013
 Alpha  occ. eigenvalues --   -0.74543  -0.72915  -0.72449  -0.71786  -0.71394
 Alpha  occ. eigenvalues --   -0.70180  -0.69538  -0.68981  -0.68540  -0.67738
 Alpha  occ. eigenvalues --   -0.67335  -0.67296  -0.66940  -0.65400  -0.65064
 Alpha  occ. eigenvalues --   -0.64947  -0.64735  -0.64528  -0.64471  -0.64327
 Alpha  occ. eigenvalues --   -0.63962  -0.62364  -0.62046  -0.60536  -0.60035
 Alpha  occ. eigenvalues --   -0.59909  -0.59541  -0.59108  -0.58731  -0.58616
 Alpha  occ. eigenvalues --   -0.58162  -0.57668  -0.57423  -0.57308  -0.56969
 Alpha  occ. eigenvalues --   -0.56418  -0.56028  -0.55975  -0.55779  -0.55616
 Alpha  occ. eigenvalues --   -0.55538  -0.55171  -0.55025  -0.54791  -0.54265
 Alpha  occ. eigenvalues --   -0.53996  -0.53879  -0.53333  -0.53284  -0.53113
 Alpha  occ. eigenvalues --   -0.52945  -0.52890  -0.52811  -0.52748  -0.52501
 Alpha  occ. eigenvalues --   -0.52288  -0.52212  -0.52076  -0.51709  -0.51693
 Alpha  occ. eigenvalues --   -0.51406  -0.51332  -0.50973  -0.50635  -0.50309
 Alpha  occ. eigenvalues --   -0.50136  -0.49989  -0.49718  -0.49613  -0.49584
 Alpha  occ. eigenvalues --   -0.49314  -0.49220  -0.49181  -0.48956  -0.48898
 Alpha  occ. eigenvalues --   -0.48687  -0.48557  -0.48488  -0.48334  -0.48131
 Alpha  occ. eigenvalues --   -0.48019  -0.47793  -0.47396  -0.47333  -0.47059
 Alpha  occ. eigenvalues --   -0.46852  -0.46674  -0.46584  -0.46440  -0.46340
 Alpha  occ. eigenvalues --   -0.46288  -0.46016  -0.45924  -0.45856  -0.45659
 Alpha  occ. eigenvalues --   -0.45254  -0.44904  -0.44743  -0.44617  -0.44390
 Alpha  occ. eigenvalues --   -0.44288  -0.44185  -0.44158  -0.44087  -0.43830
 Alpha  occ. eigenvalues --   -0.43799  -0.43720  -0.43549  -0.43492  -0.43325
 Alpha  occ. eigenvalues --   -0.43288  -0.43090  -0.42862  -0.42716  -0.42694
 Alpha  occ. eigenvalues --   -0.42479  -0.42308  -0.42066  -0.41823  -0.41743
 Alpha  occ. eigenvalues --   -0.41636  -0.41405  -0.41250  -0.41176  -0.41017
 Alpha  occ. eigenvalues --   -0.40873  -0.40759  -0.40654  -0.40421  -0.40386
 Alpha  occ. eigenvalues --   -0.40318  -0.40237  -0.39964  -0.39351  -0.39223
 Alpha  occ. eigenvalues --   -0.38600  -0.38088  -0.37837  -0.37467  -0.37409
 Alpha  occ. eigenvalues --   -0.37361  -0.37016  -0.36929  -0.36715  -0.36550
 Alpha  occ. eigenvalues --   -0.36237  -0.35963  -0.34404  -0.33976  -0.33797
 Alpha  occ. eigenvalues --   -0.33630  -0.33293  -0.32900  -0.31363  -0.31136
 Alpha  occ. eigenvalues --   -0.30912  -0.30671  -0.30130  -0.29690  -0.29543
 Alpha  occ. eigenvalues --   -0.29435  -0.29021  -0.28927  -0.24198  -0.23759
 Alpha  occ. eigenvalues --   -0.21249  -0.20831
 Alpha virt. eigenvalues --   -0.08882  -0.08499  -0.01864  -0.01394  -0.00125
 Alpha virt. eigenvalues --    0.00302   0.02077   0.02368   0.02586   0.03603
 Alpha virt. eigenvalues --    0.04598   0.05017   0.05051   0.05398   0.06019

 Mulliken charges:
               1
     1  Mg   0.838627
     2  C   -0.002155
     3  C   -0.094134
     4  C   -0.046179
     5  C   -0.065661
     6  N   -0.256624
     7  C   -0.052782
     8  C   -0.013959
     9  C   -0.087016
    10  C    0.046452
    11  C    0.104751
    12  C    0.052743
    13  C   -0.072092
    14  H    0.036719
    15  N   -0.433440
    16  C    0.169017
    17  C   -0.176835
    18  C   -0.003124
    19  C    0.149341
    20  C    0.110243
    21  C    0.013458
    22  O   -0.248524
    23  C    0.062158
    24  N   -0.341019
    25  C    0.041040
    26  C   -0.029653
    27  C   -0.024510
    28  C    0.074286
    29  C    0.076588
    30  C    0.074107
    31  C   -0.046300
    32  N   -0.310270
    33  C    0.079623
    34  C   -0.171598
    35  C    0.008293
    36  C    0.082877
    37  C    0.127697
    38  C    0.045930
    39  O   -0.188728
    40  C   -0.005282
    41  C    0.212317
    42  O   -0.255695
    43  O   -0.305202
    44  C    0.156906
    45  H   -0.017193
    46  H   -0.016369
    47  H   -0.043131
    48  H    0.001278
    49  H   -0.004050
    50  H    0.025662
    51  H    0.016521
    52  H    0.016961
    53  H    0.010298
    54  H    0.045352
    55  H    0.018284
    56  H    0.017417
    57  H    0.005717
    58  H    0.027529
    59  H    0.039947
    60  H    0.036858
    61  H    0.038435
    62  H    0.031646
    63  H    0.016450
    64  H    0.009453
    65  H    0.023520
    66  H    0.013172
    67  H    0.004726
    68  H    0.003163
    69  H    0.000593
    70  H    0.011910
    71  H    0.019229
    72  H    0.034311
    73  H    0.045958
    74  H    0.007502
    75  H    0.046549
    76  H    0.035220
    77  H    0.042964
    78  H    0.046085
    79  H    0.055952
    80  Mg   0.836564
    81  C   -0.016927
    82  C   -0.088219
    83  C   -0.040692
    84  C   -0.065913
    85  N   -0.254611
    86  C   -0.050791
    87  C   -0.014735
    88  C   -0.069616
    89  C    0.046120
    90  C    0.085956
    91  C    0.063886
    92  C   -0.077388
    93  H    0.034228
    94  N   -0.424422
    95  C    0.163545
    96  C   -0.171421
    97  C   -0.004480
    98  C    0.152372
    99  C    0.098012
   100  C    0.018330
   101  O   -0.252487
   102  C    0.060625
   103  N   -0.350039
   104  C    0.037543
   105  C   -0.020299
   106  C   -0.033850
   107  C    0.088297
   108  C    0.071599
   109  C    0.035081
   110  C   -0.007463
   111  N   -0.323757
   112  C    0.077790
   113  C   -0.164712
   114  C    0.002118
   115  C    0.095525
   116  C    0.131766
   117  C    0.042186
   118  O   -0.188965
   119  C    0.000862
   120  C    0.210969
   121  O   -0.251538
   122  O   -0.305370
   123  C    0.152294
   124  H   -0.019862
   125  H   -0.013974
   126  H   -0.042691
   127  H   -0.001551
   128  H   -0.005630
   129  H    0.028403
   130  H    0.017271
   131  H    0.018559
   132  H    0.013706
   133  H    0.037325
   134  H    0.019717
   135  H    0.018997
   136  H    0.007686
   137  H    0.030584
   138  H    0.038989
   139  H    0.041220
   140  H    0.035787
   141  H    0.032281
   142  H    0.013740
   143  H    0.009884
   144  H    0.023354
   145  H    0.021199
   146  H    0.001822
   147  H    0.005093
   148  H    0.002263
   149  H    0.010899
   150  H    0.017052
   151  H    0.030775
   152  H    0.045486
   153  H    0.007221
   154  H    0.043873
   155  H    0.036458
   156  H    0.043655
   157  H    0.048978
   158  H    0.053150
 Sum of Mulliken charges =  -0.00000

 Dipole moment (field-independent basis, Debye):
    X=              3.9204    Y=             -1.7165    Z=              0.0202  Tot=              4.2797
 Quadrupole moment (field-independent basis, Debye-Ang):
   XX=           -538.1171   YY=           -532.7979   ZZ=           -450.2071
   XY=            -21.6042   XZ=             59.2365   YZ=             21.8254

 Normal termination of Gaussian 16 at Wed Sep  8 18:01:51 2021.
