 Gaussian 16, Revision A.03,
 Gaussian 16:  ES64L-G16RevA.03 25-Dec-2016

 -----------------------------------
 #p cam-b3lyp/Def2SVP td=(nstates=5)
 -----------------------------------

 --------------------------------
 TDDFT excited states in gaussian
 --------------------------------
 Symbolic Z-matrix:
 Charge =  0 Multiplicity = 1

                         Standard orientation:
 ---------------------------------------------------------------------
 Center     Atomic      Atomic             Coordinates (Angstroms)
 Number     Number       Type             X           Y           Z
 ---------------------------------------------------------------------
      1         12           0       -4.391514    0.499103   -0.687527
      2          6           0       -4.617270   -2.845335    0.567853
      3          6           0       -5.750057    1.540129    2.264370
      4          6           0       -4.623900    3.401792   -1.943319
      5          6           0       -4.131892   -0.874159   -3.880082
      6          7           0       -5.055390   -0.607452    1.111209
      7          6           0       -5.032512   -1.881627    1.489528
      8          6           0       -5.419970   -2.089361    2.984218
      9          6           0       -6.276802   -0.763682    3.208742
     10          6           0       -5.633461    0.122440    2.156685
     11          6           0       -7.755482   -0.929874    2.873499
     12          6           0       -4.167571   -2.127933    3.923227
     13          6           0       -4.428583   -2.648920    5.339490
     14          1           0       -3.397453   -3.437830    5.996559
     15          7           0       -4.620423    2.257374    0.183641
     16          6           0       -5.179146    2.494473    1.394797
     17          6           0       -5.115939    3.958476    1.593249
     18          6           0       -4.648132    4.570650    0.318693
     19          6           0       -4.637047    3.421955   -0.550650
     20          6           0       -5.430431    4.626487    2.896555
     21          6           0       -4.280986    5.970888   -0.059022
     22          8           0       -4.123783    6.327941   -1.276550
     23          6           0       -4.195735    6.947403    1.041974
     24          7           0       -4.601125    1.185689   -2.647705
     25          6           0       -4.618597    2.494625   -2.922229
     26          6           0       -4.491349    2.745244   -4.395639
     27          6           0       -4.137278    1.334711   -5.055019
     28          6           0       -4.207331    0.455063   -3.782391
     29          6           0       -5.730748    3.333605   -5.083922
     30          6           0       -2.859399    1.267757   -5.928496
     31          6           0       -1.634861    1.459555   -5.061999
     32          7           0       -4.196532   -1.494079   -1.524336
     33          6           0       -4.127459   -1.835105   -2.882866
     34          6           0       -4.111425   -3.307556   -2.958361
     35          6           0       -4.189513   -3.723661   -1.630730
     36          6           0       -4.276925   -2.583746   -0.781468
     37          6           0       -4.090559   -4.080601   -4.152680
     38          6           0       -4.244267   -4.866501   -0.733636
     39          8           0       -4.116570   -6.083959   -0.871412
     40          6           0       -4.646080   -4.346182    0.716757
     41          6           0       -3.698888   -4.973239    1.703133
     42          8           0       -2.487039   -4.675271    1.704578
     43          8           0       -4.401498   -5.636859    2.633987
     44          6           0       -3.522659   -6.258348    3.660411
     45          1           0       -6.383043    1.959604    3.048787
     46          1           0       -4.591189    4.387092   -2.412950
     47          1           0       -3.966981   -1.372509   -4.837111
     48          1           0       -6.036220   -2.967902    3.176118
     49          1           0       -6.123982   -0.343835    4.202772
     50          1           0       -7.953058   -1.897237    2.411878
     51          1           0       -7.989195   -0.122121    2.179665
     52          1           0       -8.374223   -0.756659    3.754370
     53          1           0       -3.860150   -1.108081    4.154430
     54          1           0       -3.362437   -2.706474    3.468940
     55          1           0       -5.394632   -3.149861    5.408164
     56          1           0       -4.519643   -1.792142    6.007202
     57          1           0       -5.903372    3.937914    3.595655
     58          1           0       -6.195390    5.375792    2.693853
     59          1           0       -4.554210    5.104802    3.334485
     60          1           0       -5.157837    6.999548    1.552061
     61          1           0       -3.835025    7.873323    0.595420
     62          1           0       -3.477260    6.586989    1.778754
     63          1           0       -3.686843    3.449207   -4.604525
     64          1           0       -4.929591    0.981540   -5.715462
     65          1           0       -5.538988    4.273351   -5.602391
     66          1           0       -6.509051    3.454152   -4.330925
     67          1           0       -6.218400    2.667134   -5.794858
     68          1           0       -2.860618    2.071116   -6.664402
     69          1           0       -2.754636    0.325437   -6.466370
     70          1           0       -1.559330    2.543536   -4.983817
     71          1           0       -0.754100    1.041021   -5.550159
     72          1           0       -1.794090    1.070618   -4.056087
     73          1           0       -3.370033   -4.881106   -3.985337
     74          1           0       -3.813881   -3.472156   -5.013405
     75          1           0       -5.126701   -4.416073   -4.194205
     76          1           0       -5.677120   -4.655058    0.886090
     77          1           0       -3.758654   -7.322309    3.683366
     78          1           0       -3.666988   -5.688144    4.578257
     79          1           0       -2.457480   -6.288779    3.428449
     80         12           0        4.510000    0.917325    0.595671
     81          6           0        4.705303   -2.192167   -1.185323
     82          6           0        3.324943   -0.854162    3.258761
     83          6           0        3.901656    3.678720    2.035126
     84          6           0        4.606012    2.531812   -2.491386
     85          7           0        4.111146   -1.239807    0.878415
     86          6           0        4.281542   -2.334460    0.152436
     87          6           0        4.058022   -3.661071    0.926828
     88          6           0        3.096650   -3.103737    2.086144
     89          6           0        3.557903   -1.647892    2.107322
     90          6           0        1.623945   -3.132785    1.712481
     91          6           0        5.391567   -4.241274    1.515944
     92          6           0        5.299355   -5.684576    2.016066
     93          1           0        6.459115   -6.555525    1.846143
     94          7           0        4.199006    1.325080    2.512859
     95          6           0        3.736333    0.481804    3.459481
     96          6           0        3.667000    1.268936    4.700362
     97          6           0        3.969838    2.688683    4.372783
     98          6           0        4.015821    2.621355    2.925906
     99          6           0        3.416851    0.648890    6.044382
    100          6           0        4.170548    3.908067    5.220737
    101          8           0        4.188166    5.085210    4.713927
    102          6           0        4.252417    3.690817    6.672491
    103          7           0        4.072770    2.817362   -0.126148
    104          6           0        3.903126    3.853767    0.713509
    105          6           0        3.873168    5.164139   -0.036430
    106          6           0        4.301923    4.810786   -1.536067
    107          6           0        4.424456    3.276402   -1.409354
    108          6           0        2.529365    5.892402   -0.049783
    109          6           0        5.499575    5.601356   -2.130453
    110          6           0        6.774074    5.227422   -1.408495
    111          7           0        4.817597    0.326507   -1.459657
    112          6           0        4.792241    1.159587   -2.599573
    113          6           0        4.938606    0.285124   -3.781233
    114          6           0        5.016471   -1.008534   -3.243771
    115          6           0        4.904798   -0.946622   -1.828419
    116          6           0        4.935955    0.713573   -5.138645
    117          6           0        5.157070   -2.413367   -3.552603
    118          8           0        5.377215   -3.060042   -4.575870
    119          6           0        4.834898   -3.253527   -2.242363
    120          6           0        5.918451   -4.282897   -2.072531
    121          8           0        7.088916   -3.935402   -1.836187
    122          8           0        5.358583   -5.504288   -2.000871
    123          6           0        6.392523   -6.558087   -1.821147
    124          1           0        2.734475   -1.279023    4.071005
    125          1           0        3.801649    4.667934    2.487845
    126          1           0        4.743440    2.967349   -3.483404
    127          1           0        3.551260   -4.435778    0.363971
    128          1           0        3.306544   -3.584100    3.038273
    129          1           0        1.475591   -3.414248    0.680536
    130          1           0        1.256134   -2.130271    1.887830
    131          1           0        1.073163   -3.780521    2.400535
    132          1           0        5.618502   -3.729435    2.460012
    133          1           0        6.190962   -4.155264    0.805887
    134          1           0        4.388409   -6.184858    1.665564
    135          1           0        5.194998   -5.668972    3.103674
    136          1           0        3.066858   -0.386560    5.950829
    137          1           0        2.570421    1.182484    6.490142
    138          1           0        4.277055    0.729940    6.712324
    139          1           0        3.341050    3.208202    7.017375
    140          1           0        4.485991    4.667232    7.101382
    141          1           0        5.073688    2.994694    6.876301
    142          1           0        4.588841    5.863440    0.378165
    143          1           0        3.486699    5.003124   -2.248981
    144          1           0        2.586274    6.920913    0.353957
    145          1           0        1.816023    5.302835    0.510668
    146          1           0        2.052977    5.964749   -1.026012
    147          1           0        5.359004    6.674070   -1.976583
    148          1           0        5.635313    5.443806   -3.195230
    149          1           0        6.748945    5.862962   -0.518241
    150          1           0        7.642695    5.447175   -2.025946
    151          1           0        6.743564    4.185114   -1.070393
    152          1           0        5.732084    0.176022   -5.636349
    153          1           0        5.073157    1.790124   -5.216021
    154          1           0        3.930832    0.405263   -5.438512
    155          1           0        3.854005   -3.710396   -2.379101
    156          1           0        6.256292   -7.280853   -2.631530
    157          1           0        6.263374   -6.930106   -0.787383
    158          1           0        7.428413   -6.273345   -1.963642
 ---------------------------------------------------------------------

 SCF Done:  E(RCAM-B3LYP) =  -4069.81282611     A.U. after   19 cycles

 Excitation energies and oscillator strengths:

 Excited State   1:      Singlet-A      1.6561 eV  748.66 nm  f=0.1178  <S**2>=0.000
     309 -> 315       -0.10821
     310 -> 316        0.12879
     311 -> 313       -0.43875
     312 -> 314        0.52882
 This state for optimization and/or second-order correction.
 Total Energy, E(TD-HF/TD-DFT) =  -4069.75196662
 Copying the excited state density for this state as the 1-particle RhoCI density.

 Excited State   2:      Singlet-A      1.6912 eV  733.13 nm  f=0.5688  <S**2>=0.000
     309 -> 315        0.13782
     310 -> 316        0.11195
     311 -> 313        0.52689
     312 -> 314        0.43718

 Excited State   3:      Singlet-A      2.1805 eV  568.61 nm  f=0.0588  <S**2>=0.000
     309 -> 313       -0.23185
     310 -> 314        0.60151
     312 -> 316       -0.24865

 Excited State   4:      Singlet-A      2.1958 eV  564.65 nm  f=0.1281  <S**2>=0.000
     309 -> 313        0.59703
     310 -> 314        0.22853
     311 -> 315       -0.26225
     312 -> 316       -0.10110

 Excited State   5:      Singlet-A      2.3276 eV  532.66 nm  f=0.0000  <S**2>=0.000
     312 -> 313        0.70708

 The electronic state is 1-A.
 Alpha  occ. eigenvalues --  -46.87934 -46.87392 -19.26655 -19.26020 -19.19438
 Alpha  occ. eigenvalues --  -19.18913 -19.18856 -19.18570 -19.18348 -19.17798
 Alpha  occ. eigenvalues --  -14.42599 -14.42178 -14.41580 -14.41099 -14.39534
 Alpha  occ. eigenvalues --  -14.39099 -14.38728 -14.38339 -10.39459 -10.38781
 Alpha  occ. eigenvalues --  -10.35542 -10.35254 -10.34577 -10.33965 -10.32082
 Alpha  occ. eigenvalues --  -10.31566 -10.31438 -10.31076 -10.30956 -10.30713
 Alpha  occ. eigenvalues --  -10.30698 -10.30638 -10.30315 -10.30162 -10.30097
 Alpha  occ. eigenvalues --  -10.30048 -10.29903 -10.29759 -10.29652 -10.29372
 Alpha  occ. eigenvalues --  -10.29194 -10.29177 -10.28979 -10.28890 -10.28514
 Alpha  occ. eigenvalues --  -10.28311 -10.28267 -10.28224 -10.28136 -10.27922
 Alpha  occ. eigenvalues --  -10.27867 -10.27759 -10.27707 -10.27584 -10.27572
 Alpha  occ. eigenvalues --  -10.27567 -10.27546 -10.27534 -10.27390 -10.27354
 Alpha  occ. eigenvalues --  -10.27318 -10.27305 -10.27253 -10.27191 -10.27165
 Alpha  occ. eigenvalues --  -10.27024 -10.26732 -10.26459 -10.26402 -10.26335
 Alpha  occ. eigenvalues --  -10.26296 -10.26238 -10.26134 -10.25958 -10.25917
 Alpha  occ. eigenvalues --  -10.25691 -10.25682 -10.25520 -10.25185 -10.24993
 Alpha  occ. eigenvalues --  -10.24972 -10.24921 -10.24744 -10.24627 -10.24565
 Alpha  occ. eigenvalues --  -10.24446  -3.16676  -3.16142  -1.91558  -1.91145
 Alpha  occ. eigenvalues --   -1.91025  -1.90986  -1.90612  -1.90450  -1.17006
 Alpha  occ. eigenvalues --   -1.16320  -1.08821  -1.08400  -1.07313  -1.07030
 Alpha  occ. eigenvalues --   -1.06829  -1.06640  -1.04736  -1.04179  -1.03895
 Alpha  occ. eigenvalues --   -1.03388  -1.03366  -1.02788  -1.02546  -1.01849
 Alpha  occ. eigenvalues --   -0.92145  -0.91696  -0.89633  -0.89396  -0.89260
 Alpha  occ. eigenvalues --   -0.88644  -0.88397  -0.87991  -0.87990  -0.87829
 Alpha  occ. eigenvalues --   -0.87564  -0.87381  -0.87379  -0.86938  -0.85181
 Alpha  occ. eigenvalues --   -0.84601  -0.84053  -0.83656  -0.83062  -0.82831
 Alpha  occ. eigenvalues --   -0.82775  -0.82290  -0.81821  -0.81300  -0.80774
 Alpha  occ. eigenvalues --   -0.80164  -0.78913  -0.78419  -0.77369  -0.77140
 Alpha  occ. eigenvalues --   -0.76857  -0.76527  -0.76119  -0.75405  -0.75027
 Alpha  occ. eigenvalues --   -0.74537  -0.72905  -0.72432  -0.71826  -0.71230
 Alpha  occ. eigenvalues --   -0.69999  -0.69534  -0.69057  -0.68455  -0.67797
 Alpha  occ. eigenvalues --   -0.67423  -0.67353  -0.66884  -0.65491  -0.65036
 Alpha  occ. eigenvalues --   -0.64894  -0.64798  -0.64486  -0.64390  -0.64327
 Alpha  occ. eigenvalues --   -0.63958  -0.62549  -0.61989  -0.60553  -0.60136
 Alpha  occ. eigenvalues --   -0.59985  -0.59387  -0.59140  -0.58714  -0.58665
 Alpha  occ. eigenvalues --   -0.58154  -0.57824  -0.57448  -0.57265  -0.57002
 Alpha  occ. eigenvalues --   -0.56469  -0.56248  -0.55952  -0.55662  -0.55580
 Alpha  occ. eigenvalues --   -0.55508  -0.55199  -0.54999  -0.54727  -0.54225
 Alpha  occ. eigenvalues --   -0.54110  -0.53445  -0.53432  -0.53397  -0.53135
 Alpha  occ. eigenvalues --   -0.52993  -0.52886  -0.52851  -0.52622  -0.52529
 Alpha  occ. eigenvalues --   -0.52351  -0.52196  -0.52032  -0.51810  -0.51681
 Alpha  occ. eigenvalues --   -0.51363  -0.51308  -0.50919  -0.50657  -0.50308
 Alpha  occ. eigenvalues --   -0.50143  -0.50043  -0.49710  -0.49684  -0.49613
 Alpha  occ. eigenvalues --   -0.49384  -0.49282  -0.49162  -0.48914  -0.48796
 Alpha  occ. eigenvalues --   -0.48628  -0.48614  -0.48562  -0.48214  -0.48155
 Alpha  occ. eigenvalues --   -0.48095  -0.47853  -0.47437  -0.47285  -0.46944
 Alpha  occ. eigenvalues --   -0.46879  -0.46763  -0.46507  -0.46417  -0.46313
 Alpha  occ. eigenvalues --   -0.46129  -0.46023  -0.46016  -0.45836  -0.45513
 Alpha  occ. eigenvalues --   -0.45319  -0.44961  -0.44761  -0.44652  -0.44300
 Alpha  occ. eigenvalues --   -0.44253  -0.44251  -0.44173  -0.44158  -0.43862
 Alpha  occ. eigenvalues --   -0.43714  -0.43698  -0.43650  -0.43552  -0.43253
 Alpha  occ. eigenvalues --   -0.43184  -0.43036  -0.42992  -0.42770  -0.42629
 Alpha  occ. eigenvalues --   -0.42601  -0.42333  -0.42160  -0.41869  -0.41728
 Alpha  occ. eigenvalues --   -0.41694  -0.41372  -0.41297  -0.41103  -0.41050
 Alpha  occ. eigenvalues --   -0.40958  -0.40691  -0.40628  -0.40505  -0.40481
 Alpha  occ. eigenvalues --   -0.40358  -0.40132  -0.39839  -0.39530  -0.39214
 Alpha  occ. eigenvalues --   -0.38599  -0.38083  -0.37999  -0.37457  -0.37446
 Alpha  occ. eigenvalues --   -0.37309  -0.37019  -0.36992  -0.36838  -0.36477
 Alpha  occ. eigenvalues --   -0.36385  -0.35927  -0.34434  -0.34130  -0.33972
 Alpha  occ. eigenvalues --   -0.33567  -0.33338  -0.32911  -0.31447  -0.31185
 Alpha  occ. eigenvalues --   -0.31125  -0.30687  -0.30214  -0.29695  -0.29573
 Alpha  occ. eigenvalues --   -0.29456  -0.29113  -0.28973  -0.24226  -0.23762
 Alpha  occ. eigenvalues --   -0.21262  -0.20845
 Alpha virt. eigenvalues --   -0.08907  -0.08545  -0.01882  -0.01426  -0.00189
 Alpha virt. eigenvalues --    0.00211   0.02049   0.02440   0.02836   0.03528
 Alpha virt. eigenvalues --    0.04527   0.04743   0.05083   0.05474   0.05884

 Mulliken charges:
               1
     1  Mg   0.838820
     2  C   -0.004142
     3  C   -0.094372
     4  C   -0.045619
     5  C   -0.063185
     6  N   -0.256776
     7  C   -0.052922
     8  C   -0.013966
     9  C   -0.087008
    10  C    0.046121
    11  C    0.104719
    12  C    0.053647
    13  C   -0.071094
    14  H    0.032891
    15  N   -0.433233
    16  C    0.168688
    17  C   -0.176665
    18  C   -0.003454
    19  C    0.148775
    20  C    0.109962
    21  C    0.012479
    22  O   -0.249755
    23  C    0.062122
    24  N   -0.341037
    25  C    0.041444
    26  C   -0.028246
    27  C   -0.024039
    28  C    0.074645
    29  C    0.076095
    30  C    0.034967
    31  C   -0.004427
    32  N   -0.310379
    33  C    0.080111
    34  C   -0.169218
    35  C    0.008007
    36  C    0.082608
    37  C    0.127313
    38  C    0.045412
    39  O   -0.188745
    40  C   -0.005350
    41  C    0.213999
    42  O   -0.260193
    43  O   -0.303705
    44  C    0.158124
    45  H   -0.017442
    46  H   -0.016619
    47  H   -0.040561
    48  H    0.000953
    49  H   -0.004271
    50  H    0.025591
    51  H    0.016988
    52  H    0.016874
    53  H    0.011118
    54  H    0.041682
    55  H    0.018995
    56  H    0.018399
    57  H    0.005613
    58  H    0.027149
    59  H    0.040678
    60  H    0.037392
    61  H    0.035945
    62  H    0.032878
    63  H    0.016412
    64  H    0.009849
    65  H    0.023362
    66  H    0.012565
    67  H    0.005143
    68  H    0.006419
    69  H    0.005799
    70  H    0.007730
    71  H    0.018880
    72  H    0.029285
    73  H    0.047921
    74  H    0.010234
    75  H    0.046109
    76  H    0.035696
    77  H    0.043998
    78  H    0.046498
    79  H    0.050868
    80  Mg   0.837189
    81  C   -0.016872
    82  C   -0.087710
    83  C   -0.046706
    84  C   -0.065493
    85  N   -0.255255
    86  C   -0.047955
    87  C   -0.015384
    88  C   -0.091135
    89  C    0.046764
    90  C    0.116727
    91  C    0.062386
    92  C   -0.077434
    93  H    0.032773
    94  N   -0.423424
    95  C    0.163013
    96  C   -0.175311
    97  C   -0.008883
    98  C    0.152317
    99  C    0.099890
   100  C    0.014636
   101  O   -0.254226
   102  C    0.061511
   103  N   -0.350273
   104  C    0.037709
   105  C   -0.019803
   106  C   -0.034673
   107  C    0.089062
   108  C    0.073483
   109  C    0.034875
   110  C   -0.007522
   111  N   -0.324080
   112  C    0.078700
   113  C   -0.163901
   114  C    0.002319
   115  C    0.096140
   116  C    0.131616
   117  C    0.041891
   118  O   -0.188473
   119  C    0.001232
   120  C    0.211006
   121  O   -0.251841
   122  O   -0.304521
   123  C    0.152450
   124  H   -0.019202
   125  H   -0.016862
   126  H   -0.041340
   127  H    0.002484
   128  H   -0.006599
   129  H    0.027623
   130  H    0.011427
   131  H    0.024970
   132  H    0.012645
   133  H    0.036520
   134  H    0.023230
   135  H    0.018632
   136  H    0.008923
   137  H    0.024088
   138  H    0.039054
   139  H    0.037093
   140  H    0.035419
   141  H    0.034045
   142  H    0.013647
   143  H    0.012629
   144  H    0.023983
   145  H    0.010705
   146  H    0.007937
   147  H    0.005911
   148  H    0.003234
   149  H    0.010559
   150  H    0.017366
   151  H    0.030367
   152  H    0.045630
   153  H    0.008053
   154  H    0.045551
   155  H    0.037662
   156  H    0.043674
   157  H    0.049962
   158  H    0.052619
 Sum of Mulliken charges =  -0.00000

 Dipole moment (field-independent basis, Debye):
    X=             -5.4291    Y=              1.6814    Z=              6.0862  Tot=              8.3273
 Quadrupole moment (field-independent basis, Debye-Ang):
   XX=           -518.2850   YY=           -531.8466   ZZ=           -468.8726
   XY=             -6.6754   XZ=             -1.2471   YZ=            -31.9652

 Normal termination of Gaussian 16 at Fri Sep 10 05:56:45 2021.
