 Gaussian 16, Revision A.03,
 Gaussian 16:  ES64L-G16RevA.03 25-Dec-2016

 -----------------------------------
 #p cam-b3lyp/Def2SVP td=(nstates=5)
 -----------------------------------

 --------------------------------
 TDDFT excited states in gaussian
 --------------------------------
 Symbolic Z-matrix:
 Charge =  0 Multiplicity = 1

                         Standard orientation:
 ---------------------------------------------------------------------
 Center     Atomic      Atomic             Coordinates (Angstroms)
 Number     Number       Type             X           Y           Z
 ---------------------------------------------------------------------
      1         12           0      -15.785875    0.633095    0.443742
      2          6           0      -16.073257   -1.974706   -1.991213
      3          6           0      -16.591207   -1.690438    2.809266
      4          6           0      -15.983920    2.999980    2.544992
      5          6           0      -16.125661    2.910974   -2.171879
      6          7           0      -16.249162   -1.527053    0.303122
      7          6           0      -16.266714   -2.419884   -0.681619
      8          6           0      -16.435109   -3.886329   -0.183064
      9          6           0      -17.142679   -3.596853    1.216060
     10          6           0      -16.602045   -2.202155    1.477702
     11          6           0      -18.663640   -3.525233    1.126343
     12          6           0      -15.060211   -4.610487    0.009244
     13          6           0      -15.140194   -6.130646    0.176794
     14          1           0      -14.084323   -6.954417   -0.392316
     15          7           0      -15.742320    0.600124    2.418550
     16          6           0      -16.088678   -0.436476    3.219038
     17          6           0      -15.883213    0.033292    4.606043
     18          6           0      -15.570742    1.488468    4.552011
     19          6           0      -15.781660    1.763599    3.153728
     20          6           0      -15.941641   -0.871504    5.798385
     21          6           0      -15.159154    2.476811    5.596954
     22          8           0      -15.163575    3.736880    5.380667
     23          6           0      -14.831050    1.929574    6.925834
     24          7           0      -16.240221    2.662109    0.258522
     25          6           0      -16.198743    3.478011    1.317563
     26          6           0      -16.280128    4.916916    0.901788
     27          6           0      -16.141106    4.925968   -0.688917
     28          6           0      -16.082623    3.397236   -0.929396
     29          6           0      -17.561411    5.658995    1.306318
     30          6           0      -15.021359    5.810836   -1.291904
     31          6           0      -13.667291    5.249287   -0.920070
     32          7           0      -15.875674    0.529065   -1.722397
     33          6           0      -16.042312    1.600471   -2.611776
     34          6           0      -16.151500    1.025503   -3.965127
     35          6           0      -16.056794   -0.350434   -3.765943
     36          6           0      -15.924826   -0.619478   -2.373646
     37          6           0      -16.373708    1.756220   -5.165589
     38          6           0      -16.061122   -1.657287   -4.403103
     39          8           0      -16.050220   -2.053380   -5.569501
     40          6           0      -16.194383   -2.767213   -3.269025
     41          6           0      -15.158218   -3.823101   -3.542469
     42          8           0      -13.941187   -3.566946   -3.439572
     43          8           0      -15.758698   -5.018441   -3.647956
     44          6           0      -14.783298   -6.114832   -3.890189
     45          1           0      -17.062147   -2.273926    3.602801
     46          1           0      -15.947861    3.853835    3.224749
     47          1           0      -16.148403    3.565027   -3.045464
     48          1           0      -17.080432   -4.506646   -0.805309
     49          1           0      -16.807291   -4.284964    1.991779
     50          1           0      -19.003605   -3.556814    0.091283
     51          1           0      -18.938120   -2.576744    1.588427
     52          1           0      -19.124715   -4.301089    1.738090
     53          1           0      -14.643339   -4.338633    0.978973
     54          1           0      -14.381281   -4.373368   -0.810607
     55          1           0      -16.119947   -6.512429   -0.111710
     56          1           0      -15.061479   -6.361775    1.239142
     57          1           0      -16.353337   -1.846685    5.541335
     58          1           0      -16.668634   -0.442944    6.487968
     59          1           0      -14.974403   -0.961499    6.293040
     60          1           0      -15.696599    1.395900    7.318983
     61          1           0      -14.472894    2.771249    7.517575
     62          1           0      -14.037964    1.189250    6.816830
     63          1           0      -15.465395    5.495785    1.334856
     64          1           0      -17.050180    5.278235   -1.176939
     65          1           0      -17.379664    6.553225    1.902997
     66          1           0      -18.203354    4.957572    1.838489
     67          1           0      -18.202222    5.951271    0.474842
     68          1           0      -15.073588    6.819365   -0.883140
     69          1           0      -15.073243    5.890024   -2.377854
     70          1           0      -13.497404    5.661535    0.073923
     71          1           0      -12.906730    5.594581   -1.621162
     72          1           0      -13.699787    4.164056   -0.821556
     73          1           0      -15.699856    1.332182   -5.909958
     74          1           0      -16.186328    2.820115   -5.022002
     75          1           0      -17.426676    1.537885   -5.342913
     76          1           0      -17.207928   -3.161700   -3.334053
     77          1           0      -15.094209   -6.625481   -4.801674
     78          1           0      -14.740757   -6.700300   -2.971591
     79          1           0      -13.771861   -5.809247   -4.160286
     80         12           0       15.955676    0.556955   -0.569767
     81          6           0       15.811699   -2.307637    1.587184
     82          6           0       15.170314    2.458550    2.150847
     83          6           0       15.631798    3.037732   -2.521248
     84          6           0       15.596255   -1.625961   -3.262612
     85          7           0       15.566235    0.028335    1.542378
     86          6           0       15.600398   -1.085325    2.258559
     87          6           0       15.476572   -0.868814    3.790662
     88          6           0       14.719364    0.547243    3.772984
     89          6           0       15.205097    1.067290    2.421578
     90          6           0       13.206001    0.419838    3.719812
     91          6           0       16.875019   -0.763639    4.494419
     92          6           0       16.835688   -0.861625    6.021053
     93          1           0       17.938134   -1.532866    6.704067
     94          7           0       15.956776    2.503569   -0.183443
     95          6           0       15.632750    3.102067    0.981937
     96          6           0       15.773440    4.547112    0.744834
     97          6           0       16.047388    4.760538   -0.702279
     98          6           0       15.864656    3.414267   -1.206505
     99          6           0       15.725715    5.561524    1.850323
    100          6           0       16.401122    5.977574   -1.502206
    101          8           0       16.360823    5.976447   -2.783295
    102          6           0       16.705597    7.197360   -0.740033
    103          7           0       15.445897    0.712997   -2.579280
    104          6           0       15.429238    1.906867   -3.197592
    105          6           0       15.306303    1.744556   -4.693897
    106          6           0       15.487974    0.180321   -4.972722
    107          6           0       15.600449   -0.324730   -3.517503
    108          6           0       13.990742    2.221441   -5.308907
    109          6           0       16.592025   -0.230528   -5.985124
    110          6           0       17.956822    0.084988   -5.416650
    111          7           0       15.926173   -1.586265   -0.841421
    112          6           0       15.737796   -2.290239   -2.050976
    113          6           0       15.680839   -3.727447   -1.713903
    114          6           0       15.818063   -3.758648   -0.317947
    115          6           0       15.930887   -2.433157    0.181912
    116          6           0       15.473292   -4.790828   -2.637089
    117          6           0       15.882468   -4.610865    0.847499
    118          8           0       15.927425   -5.826237    1.033514
    119          6           0       15.754259   -3.702490    2.145491
    120          6           0       16.831801   -4.115988    3.110094
    121          8           0       18.031075   -3.942586    2.830323
    122          8           0       16.267592   -4.444954    4.286451
    123          6           0       17.297244   -4.851547    5.279583
    124          1           0       14.706772    3.118462    2.884688
    125          1           0       15.622344    3.851441   -3.250127
    126          1           0       15.584457   -2.376207   -4.056120
    127          1           0       14.873562   -1.606484    4.306414
    128          1           0       15.067045    1.191129    4.576652
    129          1           0       12.892477   -0.604430    3.582994
    130          1           0       12.888863    1.027639    2.882521
    131          1           0       12.758043    0.873689    4.608448
    132          1           0       17.256627    0.259284    4.381579
    133          1           0       17.554642   -1.495313    4.102758
    134          1           0       15.871951   -1.237824    6.385246
    135          1           0       16.903480    0.147202    6.435396
    136          1           0       15.346282    5.123754    2.781871
    137          1           0       14.969680    6.303375    1.571145
    138          1           0       16.681373    6.069115    1.997760
    139          1           0       15.850808    7.459157   -0.120943
    140          1           0       17.021557    7.933917   -1.481329
    141          1           0       17.535638    6.985046   -0.056979
    142          1           0       16.090956    2.286505   -5.207427
    143          1           0       14.574737   -0.267726   -5.391160
    144          1           0       14.129294    2.982356   -6.100042
    145          1           0       13.363330    2.606927   -4.516255
    146          1           0       13.368574    1.436106   -5.734774
    147          1           0       16.497192    0.350885   -6.905521
    148          1           0       16.556169   -1.279035   -6.261420
    149          1           0       18.083380    1.145754   -5.652987
    150          1           0       18.721791   -0.520705   -5.898316
    151          1           0       17.960429   -0.012167   -4.324768
    152          1           0       16.171433   -5.573750   -2.372271
    153          1           0       15.616552   -4.459829   -3.663582
    154          1           0       14.428038   -5.031569   -2.425520
    155          1           0       14.755772   -3.857096    2.556221
    156          1           0       17.022256   -5.849587    5.634519
    157          1           0       17.324930   -4.039768    6.030589
    158          1           0       18.303063   -5.026111    4.915863
 ---------------------------------------------------------------------

 SCF Done:  E(RCAM-B3LYP) =  -4069.81177960     A.U. after   19 cycles

 Excitation energies and oscillator strengths:

 Excited State   1:      Singlet-A      1.6756 eV  739.96 nm  f=0.3858  <S**2>=0.000
     310 -> 316        0.17347
     312 -> 313        0.68542
     310 <- 316        0.10456
 This state for optimization and/or second-order correction.
 Total Energy, E(TD-HF/TD-DFT) =  -4069.75020405
 Copying the excited state density for this state as the 1-particle RhoCI density.

 Excited State   2:      Singlet-A      1.6799 eV  738.07 nm  f=0.3904  <S**2>=0.000
     309 -> 315        0.17536
     311 -> 314        0.68507
     309 <- 315        0.10502

 Excited State   3:      Singlet-A      2.1861 eV  567.15 nm  f=0.1024  <S**2>=0.000
     310 -> 313        0.64248
     312 -> 316       -0.27314

 Excited State   4:      Singlet-A      2.1925 eV  565.49 nm  f=0.0986  <S**2>=0.000
     309 -> 314        0.64071
     311 -> 315       -0.27826

 Excited State   5:      Singlet-A      3.0657 eV  404.43 nm  f=0.0000  <S**2>=0.000
     311 -> 313        0.70711

 The electronic state is 1-A.
 Alpha  occ. eigenvalues --  -46.87796 -46.87661 -19.26355 -19.26278 -19.19165
 Alpha  occ. eigenvalues --  -19.19015 -19.18817 -19.18713 -19.18167 -19.18053
 Alpha  occ. eigenvalues --  -14.42498 -14.42449 -14.41449 -14.41359 -14.39402
 Alpha  occ. eigenvalues --  -14.39352 -14.38600 -14.38586 -10.39095 -10.39075
 Alpha  occ. eigenvalues --  -10.35450 -10.35390 -10.34387 -10.34231 -10.31763
 Alpha  occ. eigenvalues --  -10.31671 -10.31403 -10.31310 -10.31024 -10.30907
 Alpha  occ. eigenvalues --  -10.30569 -10.30507 -10.30398 -10.30362 -10.30207
 Alpha  occ. eigenvalues --  -10.30140 -10.29921 -10.29894 -10.29630 -10.29437
 Alpha  occ. eigenvalues --  -10.29401 -10.29254 -10.28745 -10.28722 -10.28659
 Alpha  occ. eigenvalues --  -10.28531 -10.28406 -10.28364 -10.28142 -10.28113
 Alpha  occ. eigenvalues --  -10.28002 -10.27792 -10.27726 -10.27670 -10.27584
 Alpha  occ. eigenvalues --  -10.27515 -10.27503 -10.27485 -10.27481 -10.27468
 Alpha  occ. eigenvalues --  -10.27465 -10.27451 -10.27402 -10.27373 -10.27155
 Alpha  occ. eigenvalues --  -10.27053 -10.26699 -10.26696 -10.26413 -10.26413
 Alpha  occ. eigenvalues --  -10.26231 -10.26187 -10.26135 -10.26027 -10.26019
 Alpha  occ. eigenvalues --  -10.25934 -10.25852 -10.25843 -10.25438 -10.25392
 Alpha  occ. eigenvalues --  -10.24874 -10.24832 -10.24788 -10.24729 -10.24691
 Alpha  occ. eigenvalues --  -10.24690  -3.16539  -3.16411  -1.91420  -1.91293
 Alpha  occ. eigenvalues --   -1.91007  -1.90882  -1.90849  -1.90718  -1.16649
 Alpha  occ. eigenvalues --   -1.16627  -1.08660  -1.08625  -1.07218  -1.06966
 Alpha  occ. eigenvalues --   -1.06950  -1.06637  -1.04580  -1.04496  -1.03760
 Alpha  occ. eigenvalues --   -1.03663  -1.03233  -1.03039  -1.02411  -1.02112
 Alpha  occ. eigenvalues --   -0.91988  -0.91970  -0.89520  -0.89494  -0.89184
 Alpha  occ. eigenvalues --   -0.89153  -0.88288  -0.88219  -0.87869  -0.87794
 Alpha  occ. eigenvalues --   -0.87685  -0.87671  -0.87274  -0.87120  -0.85001
 Alpha  occ. eigenvalues --   -0.84979  -0.83937  -0.83875  -0.82968  -0.82931
 Alpha  occ. eigenvalues --   -0.82654  -0.82647  -0.81599  -0.81582  -0.80594
 Alpha  occ. eigenvalues --   -0.80444  -0.78797  -0.78636  -0.77217  -0.77145
 Alpha  occ. eigenvalues --   -0.76931  -0.76900  -0.75920  -0.75841  -0.74898
 Alpha  occ. eigenvalues --   -0.74802  -0.72774  -0.72699  -0.71671  -0.71581
 Alpha  occ. eigenvalues --   -0.69909  -0.69756  -0.68871  -0.68829  -0.67640
 Alpha  occ. eigenvalues --   -0.67602  -0.67217  -0.67202  -0.65284  -0.65274
 Alpha  occ. eigenvalues --   -0.64852  -0.64771  -0.64655  -0.64619  -0.64270
 Alpha  occ. eigenvalues --   -0.64203  -0.62294  -0.62281  -0.60442  -0.60339
 Alpha  occ. eigenvalues --   -0.59802  -0.59798  -0.58993  -0.58986  -0.58503
 Alpha  occ. eigenvalues --   -0.58426  -0.57582  -0.57557  -0.57308  -0.57236
 Alpha  occ. eigenvalues --   -0.56309  -0.56205  -0.55974  -0.55890  -0.55520
 Alpha  occ. eigenvalues --   -0.55453  -0.55339  -0.55248  -0.54522  -0.54489
 Alpha  occ. eigenvalues --   -0.53915  -0.53892  -0.53298  -0.53228  -0.53220
 Alpha  occ. eigenvalues --   -0.53143  -0.52913  -0.52904  -0.52755  -0.52668
 Alpha  occ. eigenvalues --   -0.52440  -0.52400  -0.51914  -0.51886  -0.51660
 Alpha  occ. eigenvalues --   -0.51614  -0.51203  -0.51194  -0.50573  -0.50474
 Alpha  occ. eigenvalues --   -0.50032  -0.49980  -0.49918  -0.49866  -0.49513
 Alpha  occ. eigenvalues --   -0.49488  -0.49213  -0.49204  -0.49106  -0.49093
 Alpha  occ. eigenvalues --   -0.48590  -0.48560  -0.48462  -0.48445  -0.48375
 Alpha  occ. eigenvalues --   -0.48339  -0.47693  -0.47595  -0.47296  -0.47118
 Alpha  occ. eigenvalues --   -0.46796  -0.46710  -0.46556  -0.46552  -0.46358
 Alpha  occ. eigenvalues --   -0.46271  -0.46161  -0.46086  -0.45824  -0.45819
 Alpha  occ. eigenvalues --   -0.45207  -0.45202  -0.44576  -0.44516  -0.44506
 Alpha  occ. eigenvalues --   -0.44477  -0.44145  -0.44129  -0.44086  -0.44078
 Alpha  occ. eigenvalues --   -0.44018  -0.43940  -0.43556  -0.43492  -0.43387
 Alpha  occ. eigenvalues --   -0.43384  -0.43026  -0.42933  -0.42903  -0.42696
 Alpha  occ. eigenvalues --   -0.42654  -0.42552  -0.42009  -0.41965  -0.41703
 Alpha  occ. eigenvalues --   -0.41670  -0.41531  -0.41460  -0.41140  -0.40990
 Alpha  occ. eigenvalues --   -0.40867  -0.40824  -0.40723  -0.40699  -0.40571
 Alpha  occ. eigenvalues --   -0.40493  -0.40230  -0.40229  -0.39443  -0.39424
 Alpha  occ. eigenvalues --   -0.38469  -0.38349  -0.37744  -0.37656  -0.37320
 Alpha  occ. eigenvalues --   -0.37266  -0.37261  -0.37201  -0.36774  -0.36710
 Alpha  occ. eigenvalues --   -0.36218  -0.36190  -0.34285  -0.34254  -0.33866
 Alpha  occ. eigenvalues --   -0.33766  -0.33185  -0.33176  -0.31346  -0.31272
 Alpha  occ. eigenvalues --   -0.31035  -0.30973  -0.30027  -0.29958  -0.29449
 Alpha  occ. eigenvalues --   -0.29327  -0.29321  -0.29212  -0.24080  -0.24037
 Alpha  occ. eigenvalues --   -0.21127  -0.21117
 Alpha virt. eigenvalues --   -0.08792  -0.08774  -0.01749  -0.01684  -0.00058
 Alpha virt. eigenvalues --   -0.00029   0.02201   0.02206   0.03123   0.03225
 Alpha virt. eigenvalues --    0.04720   0.04728   0.05103   0.05161   0.06179

 Mulliken charges:
               1
     1  Mg   0.838810
     2  C   -0.002960
     3  C   -0.094093
     4  C   -0.045902
     5  C   -0.063986
     6  N   -0.256797
     7  C   -0.052451
     8  C   -0.014001
     9  C   -0.087024
    10  C    0.046330
    11  C    0.104813
    12  C    0.053476
    13  C   -0.071844
    14  H    0.036205
    15  N   -0.433152
    16  C    0.168402
    17  C   -0.177141
    18  C   -0.004028
    19  C    0.148723
    20  C    0.110164
    21  C    0.012266
    22  O   -0.249667
    23  C    0.062488
    24  N   -0.341150
    25  C    0.041239
    26  C   -0.028154
    27  C   -0.023974
    28  C    0.074846
    29  C    0.076168
    30  C    0.035136
    31  C   -0.004493
    32  N   -0.310481
    33  C    0.080433
    34  C   -0.169717
    35  C    0.008362
    36  C    0.082972
    37  C    0.127313
    38  C    0.046118
    39  O   -0.188410
    40  C   -0.005345
    41  C    0.212882
    42  O   -0.257095
    43  O   -0.304794
    44  C    0.157675
    45  H   -0.017586
    46  H   -0.016870
    47  H   -0.041505
    48  H    0.000959
    49  H   -0.004007
    50  H    0.025477
    51  H    0.016431
    52  H    0.016679
    53  H    0.011205
    54  H    0.044128
    55  H    0.017876
    56  H    0.017966
    57  H    0.005901
    58  H    0.026818
    59  H    0.039552
    60  H    0.037358
    61  H    0.035600
    62  H    0.031502
    63  H    0.016517
    64  H    0.009457
    65  H    0.023180
    66  H    0.012557
    67  H    0.004750
    68  H    0.006333
    69  H    0.004731
    70  H    0.008747
    71  H    0.018121
    72  H    0.029006
    73  H    0.047579
    74  H    0.009094
    75  H    0.046014
    76  H    0.035165
    77  H    0.042968
    78  H    0.046426
    79  H    0.053708
    80  Mg   0.837849
    81  C   -0.016839
    82  C   -0.087785
    83  C   -0.045491
    84  C   -0.064823
    85  N   -0.254546
    86  C   -0.049846
    87  C   -0.015114
    88  C   -0.090504
    89  C    0.045756
    90  C    0.114371
    91  C    0.062536
    92  C   -0.077888
    93  H    0.034875
    94  N   -0.423514
    95  C    0.162940
    96  C   -0.174604
    97  C   -0.007774
    98  C    0.152128
    99  C    0.099352
   100  C    0.015575
   101  O   -0.253134
   102  C    0.061197
   103  N   -0.350038
   104  C    0.037530
   105  C   -0.019849
   106  C   -0.034793
   107  C    0.088862
   108  C    0.073617
   109  C    0.034708
   110  C   -0.007676
   111  N   -0.324120
   112  C    0.078448
   113  C   -0.163126
   114  C    0.002232
   115  C    0.096188
   116  C    0.131488
   117  C    0.042379
   118  O   -0.187919
   119  C    0.000933
   120  C    0.211231
   121  O   -0.251009
   122  O   -0.305631
   123  C    0.152038
   124  H   -0.019646
   125  H   -0.015525
   126  H   -0.040432
   127  H   -0.000666
   128  H   -0.004332
   129  H    0.022459
   130  H    0.014471
   131  H    0.016282
   132  H    0.013925
   133  H    0.037669
   134  H    0.020771
   135  H    0.019597
   136  H    0.008762
   137  H    0.026192
   138  H    0.039804
   139  H    0.038275
   140  H    0.036426
   141  H    0.033882
   142  H    0.014413
   143  H    0.012474
   144  H    0.025189
   145  H    0.011673
   146  H    0.005748
   147  H    0.006311
   148  H    0.003663
   149  H    0.010944
   150  H    0.017932
   151  H    0.030075
   152  H    0.045986
   153  H    0.008537
   154  H    0.046966
   155  H    0.035017
   156  H    0.043882
   157  H    0.049488
   158  H    0.053577
 Sum of Mulliken charges =  -0.00000

 Dipole moment (field-independent basis, Debye):
    X=             -3.7999    Y=              1.8566    Z=              6.1538  Tot=              7.4669
 Quadrupole moment (field-independent basis, Debye-Ang):
   XX=           -517.4591   YY=           -508.5109   ZZ=           -490.3220
   XY=             82.1444   XZ=            -25.6299   YZ=             -8.3475

 Normal termination of Gaussian 16 at Sun Sep 12 16:49:50 2021.
