 Gaussian 16, Revision A.03,
 Gaussian 16:  ES64L-G16RevA.03 25-Dec-2016

 -----------------------------------
 #p cam-b3lyp/Def2SVP td=(nstates=5)
 -----------------------------------

 --------------------------------
 TDDFT excited states in gaussian
 --------------------------------
 Symbolic Z-matrix:
 Charge =  0 Multiplicity = 1

                         Standard orientation:
 ---------------------------------------------------------------------
 Center     Atomic      Atomic             Coordinates (Angstroms)
 Number     Number       Type             X           Y           Z
 ---------------------------------------------------------------------
      1         12           0        4.693080   -0.191307   -0.068374
      2          6           0        4.463076    3.043548   -1.583308
      3          6           0        5.514879    1.393139    2.839760
      4          6           0        5.344302   -3.036799    1.170862
      5          6           0        4.973251   -1.513134   -3.280840
      6          7           0        4.925360    1.951048    0.438583
      7          6           0        4.750526    3.093932   -0.217482
      8          6           0        4.826930    4.350871    0.699927
      9          6           0        5.704442    3.744595    1.885001
     10          6           0        5.333700    2.279499    1.736777
     11          6           0        7.206860    3.895323    1.669307
     12          6           0        3.416187    4.804350    1.205784
     13          6           0        3.364588    6.200701    1.832598
     14          1           0        2.178649    7.017971    1.625308
     15          7           0        4.857184   -0.760849    1.816179
     16          6           0        5.183870    0.021208    2.873037
     17          6           0        5.174274   -0.866705    4.055492
     18          6           0        5.001573   -2.265105    3.573056
     19          6           0        5.088175   -2.077154    2.147380
     20          6           0        5.270694   -0.363561    5.463079
     21          6           0        4.802263   -3.565987    4.284472
     22          8           0        4.906763   -4.691203    3.686522
     23          6           0        4.565714   -3.490584    5.737538
     24          7           0        5.321250   -1.996046   -0.908584
     25          6           0        5.472807   -3.091624   -0.156439
     26          6           0        5.649686   -4.316056   -1.004625
     27          6           0        5.343514   -3.862652   -2.504770
     28          6           0        5.110588   -2.352638   -2.252036
     29          6           0        7.033145   -4.978145   -0.943880
     30          6           0        4.257779   -4.658140   -3.272102
     31          6           0        2.902671   -4.409841   -2.648301
     32          7           0        4.540954    0.571209   -2.094817
     33          6           0        4.715804   -0.152403   -3.283299
     34          6           0        4.623436    0.812682   -4.394220
     35          6           0        4.416452    2.041205   -3.769933
     36          6           0        4.407927    1.859238   -2.357451
     37          6           0        4.786822    0.511830   -5.775244
     38          6           0        4.225098    3.468976   -3.966686
     39          8           0        4.051309    4.193536   -4.947656
     40          6           0        4.369305    4.192977   -2.555710
     41          6           0        3.211680    5.142996   -2.411915
     42          8           0        2.043444    4.716740   -2.307537
     43          8           0        3.677766    6.380131   -2.182123
     44          6           0        2.579634    7.366670   -2.000461
     45          1           0        6.008389    1.764704    3.739942
     46          1           0        5.464516   -4.053247    1.551413
     47          1           0        4.966603   -1.865148   -4.314037
     48          1           0        5.338532    5.205917    0.257679
     49          1           0        5.387972    4.118958    2.858357
     50          1           0        7.429875    4.279924    0.674185
     51          1           0        7.620406    2.894113    1.791991
     52          1           0        7.652433    4.502258    2.457894
     53          1           0        3.133598    4.202667    2.069602
     54          1           0        2.680212    4.741918    0.403432
     55          1           0        4.265983    6.771783    1.608410
     56          1           0        3.377305    6.089049    2.916836
     57          1           0        5.555350    0.687416    5.494099
     58          1           0        6.105416   -0.884989    5.931118
     59          1           0        4.357532   -0.549300    6.028736
     60          1           0        5.411891   -2.995767    6.214706
     61          1           0        4.356647   -4.509519    6.061438
     62          1           0        3.696981   -2.857799    5.921481
     63          1           0        4.946245   -5.096223   -0.716640
     64          1           0        6.225467   -3.934120   -3.141736
     65          1           0        7.004298   -6.026045   -0.644250
     66          1           0        7.656483   -4.394818   -0.266776
     67          1           0        7.607194   -4.923146   -1.868466
     68          1           0        4.451599   -5.727990   -3.202816
     69          1           0        4.201147   -4.399142   -4.329440
     70          1           0        2.880781   -5.120455   -1.822843
     71          1           0        2.109152   -4.620582   -3.366023
     72          1           0        2.839242   -3.409732   -2.219062
     73          1           0        3.999287    1.052182   -6.300390
     74          1           0        4.720706   -0.560574   -5.957403
     75          1           0        5.788487    0.904130   -5.950241
     76          1           0        5.326708    4.712960   -2.566597
     77          1           0        2.740240    8.163164   -2.727123
     78          1           0        2.578191    7.637803   -0.944577
     79          1           0        1.579918    7.031988   -2.279556
     80         12           0       -4.236473   -1.210541    0.315029
     81          6           0       -6.723532    1.366641    0.087632
     82          6           0       -1.995171    1.230778    1.121943
     83          6           0       -1.936399   -3.383938    0.083733
     84          6           0       -6.351543   -3.226559   -1.584410
     85          7           0       -4.452004    0.978777    0.544538
     86          6           0       -5.458055    1.838803    0.493918
     87          6           0       -5.105346    3.270507    0.979070
     88          6           0       -3.521391    3.229552    0.717801
     89          6           0       -3.293131    1.723968    0.835294
     90          6           0       -3.131463    3.663693   -0.685342
     91          6           0       -5.431485    3.483866    2.498985
     92          6           0       -5.402862    4.941370    2.964418
     93          1           0       -6.358452    5.365311    3.984023
     94          7           0       -2.383539   -1.200134    1.025753
     95          6           0       -1.630368   -0.119257    1.318513
     96          6           0       -0.339088   -0.644130    1.788920
     97          6           0       -0.333385   -2.119496    1.594023
     98          6           0       -1.569802   -2.292981    0.858314
     99          6           0        0.706375    0.221675    2.429857
    100          6           0        0.632220   -3.194608    1.991434
    101          8           0        0.554870   -4.380346    1.510944
    102          6           0        1.726807   -2.794161    2.887541
    103          7           0       -4.058340   -2.962889   -0.789459
    104          6           0       -2.976097   -3.751149   -0.665596
    105          6           0       -3.191763   -5.083989   -1.341938
    106          6           0       -4.740396   -5.118373   -1.739602
    107          6           0       -5.150144   -3.700591   -1.284201
    108          6           0       -2.341461   -5.344421   -2.585139
    109          6           0       -5.571294   -6.327550   -1.229520
    110          6           0       -5.698193   -6.268352    0.275727
    111          7           0       -6.256151   -1.069638   -0.439352
    112          6           0       -6.937636   -2.016777   -1.234708
    113          6           0       -8.242934   -1.425317   -1.593598
    114          6           0       -8.220697   -0.155845   -0.996565
    115          6           0       -6.980387    0.038590   -0.330753
    116          6           0       -9.234959   -2.034046   -2.413024
    117          6           0       -8.960192    1.068071   -0.787136
    118          8           0      -10.102533    1.447255   -1.042093
    119          6           0       -7.973391    2.157551   -0.182436
    120          6           0       -8.658952    2.806024    0.988884
    121          8           0       -8.922600    2.147857    2.010604
    122          8           0       -8.693635    4.137373    0.797356
    123          6           0       -9.354492    4.825895    1.937991
    124          1           0       -1.167368    1.939473    1.159030
    125          1           0       -1.221022   -4.209337    0.063219
    126          1           0       -7.107090   -3.830019   -2.092006
    127          1           0       -5.556679    4.069409    0.403023
    128          1           0       -2.978808    3.759369    1.496429
    129          1           0       -3.995650    3.815692   -1.314808
    130          1           0       -2.512530    2.867692   -1.078218
    131          1           0       -2.491388    4.549543   -0.641645
    132          1           0       -4.609171    3.077863    3.102068
    133          1           0       -6.375846    3.042321    2.751659
    134          1           0       -5.403403    5.643277    2.121653
    135          1           0       -4.450346    5.126560    3.466852
    136          1           0        0.489764    1.287368    2.285707
    137          1           0        1.639087    0.057218    1.879525
    138          1           0        0.868849   -0.022905    3.481734
    139          1           0        2.305740   -2.001936    2.418847
    140          1           0        2.258582   -3.716397    3.129548
    141          1           0        1.294127   -2.369859    3.800439
    142          1           0       -2.985489   -5.900882   -0.661329
    143          1           0       -4.880422   -5.150907   -2.830087
    144          1           0       -1.730167   -6.263612   -2.511123
    145          1           0       -1.711412   -4.481378   -2.754676
    146          1           0       -2.897137   -5.411800   -3.518888
    147          1           0       -5.058338   -7.264234   -1.461156
    148          1           0       -6.562168   -6.386202   -1.667375
    149          1           0       -4.762574   -6.718993    0.620160
    150          1           0       -6.559627   -6.842755    0.610428
    151          1           0       -5.713880   -5.230715    0.628862
    152          1           0      -10.187580   -1.857987   -1.931345
    153          1           0       -9.045102   -3.097380   -2.543576
    154          1           0       -9.091492   -1.474456   -3.341218
    155          1           0       -7.750998    2.873665   -0.974452
    156          1           0      -10.172606    5.421363    1.521116
    157          1           0       -8.549593    5.373666    2.463187
    158          1           0       -9.884872    4.210787    2.655474
 ---------------------------------------------------------------------

 SCF Done:  E(RCAM-B3LYP) =  -4069.81308202     A.U. after   19 cycles

 Excitation energies and oscillator strengths:

 Excited State   1:      Singlet-A      1.6388 eV  756.54 nm  f=0.2655  <S**2>=0.000
     309 -> 315        0.12143
     310 -> 316       -0.11202
     311 -> 313        0.50475
     312 -> 314       -0.46474
 This state for optimization and/or second-order correction.
 Total Energy, E(TD-HF/TD-DFT) =  -4069.75285614
 Copying the excited state density for this state as the 1-particle RhoCI density.

 Excited State   2:      Singlet-A      1.6933 eV  732.20 nm  f=0.5067  <S**2>=0.000
     309 -> 315        0.12345
     310 -> 316        0.13078
     311 -> 313        0.46362
     312 -> 314        0.50287

 Excited State   3:      Singlet-A      2.1787 eV  569.07 nm  f=0.0049  <S**2>=0.000
     309 -> 313        0.38359
     310 -> 314        0.51432
     311 -> 315       -0.15991
     312 -> 316       -0.21379

 Excited State   4:      Singlet-A      2.1925 eV  565.50 nm  f=0.1315  <S**2>=0.000
     309 -> 313        0.43489
     310 -> 314       -0.35918
     311 -> 315       -0.19574
     312 -> 313        0.32704
     312 -> 316        0.15836

 Excited State   5:      Singlet-A      2.2125 eV  560.37 nm  f=0.0337  <S**2>=0.000
     309 -> 313       -0.26995
     310 -> 314        0.13528
     311 -> 315        0.11912
     312 -> 313        0.62066

 The electronic state is 1-A.
 Alpha  occ. eigenvalues --  -46.88212 -46.87386 -19.26732 -19.26163 -19.19494
 Alpha  occ. eigenvalues --  -19.19209 -19.18966 -19.18533 -19.18322 -19.17809
 Alpha  occ. eigenvalues --  -14.42859 -14.42203 -14.41784 -14.41100 -14.39931
 Alpha  occ. eigenvalues --  -14.39072 -14.38956 -14.38334 -10.39540 -10.38890
 Alpha  occ. eigenvalues --  -10.35801 -10.34950 -10.34756 -10.33987 -10.32126
 Alpha  occ. eigenvalues --  -10.31810 -10.31603 -10.31334 -10.31005 -10.30999
 Alpha  occ. eigenvalues --  -10.30858 -10.30732 -10.30505 -10.30201 -10.30129
 Alpha  occ. eigenvalues --  -10.30089 -10.30034 -10.29883 -10.29653 -10.29624
 Alpha  occ. eigenvalues --  -10.29218 -10.29160 -10.29134 -10.29091 -10.28758
 Alpha  occ. eigenvalues --  -10.28538 -10.28492 -10.28408 -10.28162 -10.28130
 Alpha  occ. eigenvalues --  -10.28125 -10.27985 -10.27877 -10.27787 -10.27746
 Alpha  occ. eigenvalues --  -10.27734 -10.27589 -10.27552 -10.27503 -10.27338
 Alpha  occ. eigenvalues --  -10.27323 -10.27307 -10.27270 -10.27212 -10.27193
 Alpha  occ. eigenvalues --  -10.27188 -10.26806 -10.26736 -10.26591 -10.26472
 Alpha  occ. eigenvalues --  -10.26328 -10.26119 -10.26098 -10.25971 -10.25681
 Alpha  occ. eigenvalues --  -10.25649 -10.25630 -10.25507 -10.25400 -10.25268
 Alpha  occ. eigenvalues --  -10.25200 -10.25098 -10.24609 -10.24568 -10.24431
 Alpha  occ. eigenvalues --  -10.24373  -3.16963  -3.16136  -1.91846  -1.91428
 Alpha  occ. eigenvalues --   -1.91273  -1.91018  -1.90607  -1.90444  -1.17084
 Alpha  occ. eigenvalues --   -1.16455  -1.08993  -1.08422  -1.07594  -1.07107
 Alpha  occ. eigenvalues --   -1.06750  -1.06550  -1.04996  -1.04201  -1.04139
 Alpha  occ. eigenvalues --   -1.03619  -1.03387  -1.02777  -1.02772  -1.01845
 Alpha  occ. eigenvalues --   -0.92349  -0.91721  -0.89743  -0.89612  -0.89263
 Alpha  occ. eigenvalues --   -0.88810  -0.88453  -0.88209  -0.88051  -0.88007
 Alpha  occ. eigenvalues --   -0.87678  -0.87543  -0.87405  -0.86802  -0.85408
 Alpha  occ. eigenvalues --   -0.84693  -0.84074  -0.83677  -0.83255  -0.83004
 Alpha  occ. eigenvalues --   -0.82574  -0.82276  -0.81965  -0.81362  -0.80968
 Alpha  occ. eigenvalues --   -0.80167  -0.79172  -0.78343  -0.77561  -0.77253
 Alpha  occ. eigenvalues --   -0.76877  -0.76644  -0.76301  -0.75533  -0.75091
 Alpha  occ. eigenvalues --   -0.74589  -0.73108  -0.72433  -0.71998  -0.71297
 Alpha  occ. eigenvalues --   -0.69946  -0.69557  -0.69266  -0.68525  -0.68001
 Alpha  occ. eigenvalues --   -0.67684  -0.67330  -0.66905  -0.65706  -0.65211
 Alpha  occ. eigenvalues --   -0.64990  -0.64968  -0.64512  -0.64442  -0.64387
 Alpha  occ. eigenvalues --   -0.63974  -0.62665  -0.62057  -0.60782  -0.60223
 Alpha  occ. eigenvalues --   -0.60065  -0.59482  -0.59320  -0.58840  -0.58733
 Alpha  occ. eigenvalues --   -0.58172  -0.57975  -0.57578  -0.57320  -0.56994
 Alpha  occ. eigenvalues --   -0.56669  -0.56393  -0.55934  -0.55885  -0.55658
 Alpha  occ. eigenvalues --   -0.55574  -0.55161  -0.55034  -0.54760  -0.54340
 Alpha  occ. eigenvalues --   -0.54279  -0.53700  -0.53610  -0.53569  -0.53291
 Alpha  occ. eigenvalues --   -0.53199  -0.52933  -0.52833  -0.52637  -0.52444
 Alpha  occ. eigenvalues --   -0.52350  -0.52213  -0.52194  -0.52052  -0.51649
 Alpha  occ. eigenvalues --   -0.51506  -0.51354  -0.50987  -0.50954  -0.50459
 Alpha  occ. eigenvalues --   -0.50154  -0.50072  -0.49818  -0.49709  -0.49566
 Alpha  occ. eigenvalues --   -0.49535  -0.49462  -0.49157  -0.48969  -0.48901
 Alpha  occ. eigenvalues --   -0.48804  -0.48742  -0.48646  -0.48276  -0.48166
 Alpha  occ. eigenvalues --   -0.48046  -0.47908  -0.47586  -0.47302  -0.47108
 Alpha  occ. eigenvalues --   -0.46966  -0.46879  -0.46664  -0.46463  -0.46423
 Alpha  occ. eigenvalues --   -0.46244  -0.46174  -0.46002  -0.45852  -0.45584
 Alpha  occ. eigenvalues --   -0.45392  -0.44993  -0.44935  -0.44826  -0.44490
 Alpha  occ. eigenvalues --   -0.44410  -0.44305  -0.44279  -0.44142  -0.43857
 Alpha  occ. eigenvalues --   -0.43842  -0.43811  -0.43714  -0.43599  -0.43358
 Alpha  occ. eigenvalues --   -0.43330  -0.43114  -0.43097  -0.42789  -0.42716
 Alpha  occ. eigenvalues --   -0.42649  -0.42320  -0.42203  -0.42040  -0.41856
 Alpha  occ. eigenvalues --   -0.41737  -0.41486  -0.41409  -0.41226  -0.41198
 Alpha  occ. eigenvalues --   -0.41078  -0.40745  -0.40678  -0.40637  -0.40432
 Alpha  occ. eigenvalues --   -0.40320  -0.40241  -0.39921  -0.39426  -0.39227
 Alpha  occ. eigenvalues --   -0.38676  -0.38222  -0.38130  -0.37718  -0.37532
 Alpha  occ. eigenvalues --   -0.37407  -0.37097  -0.37022  -0.36912  -0.36574
 Alpha  occ. eigenvalues --   -0.36486  -0.35983  -0.34646  -0.34225  -0.33986
 Alpha  occ. eigenvalues --   -0.33652  -0.33539  -0.32902  -0.31683  -0.31395
 Alpha  occ. eigenvalues --   -0.30869  -0.30680  -0.30393  -0.29909  -0.29716
 Alpha  occ. eigenvalues --   -0.29695  -0.29058  -0.28950  -0.24459  -0.23760
 Alpha  occ. eigenvalues --   -0.21482  -0.20846
 Alpha virt. eigenvalues --   -0.09149  -0.08519  -0.02170  -0.01407  -0.00490
 Alpha virt. eigenvalues --    0.00283   0.01852   0.02437   0.02469   0.03480
 Alpha virt. eigenvalues --    0.04297   0.04639   0.05008   0.05373   0.05641

 Mulliken charges:
               1
     1  Mg   0.830415
     2  C   -0.003271
     3  C   -0.096507
     4  C   -0.035127
     5  C   -0.062238
     6  N   -0.255122
     7  C   -0.054913
     8  C   -0.012996
     9  C   -0.086411
    10  C    0.042912
    11  C    0.104525
    12  C    0.052262
    13  C   -0.071577
    14  H    0.034506
    15  N   -0.442239
    16  C    0.169223
    17  C   -0.184334
    18  C    0.006508
    19  C    0.129773
    20  C    0.111235
    21  C    0.013016
    22  O   -0.248180
    23  C    0.068958
    24  N   -0.339741
    25  C    0.039645
    26  C   -0.028721
    27  C   -0.024641
    28  C    0.078513
    29  C    0.075735
    30  C    0.034289
    31  C   -0.006202
    32  N   -0.309824
    33  C    0.081737
    34  C   -0.168532
    35  C    0.008727
    36  C    0.082755
    37  C    0.127079
    38  C    0.046480
    39  O   -0.187373
    40  C   -0.005869
    41  C    0.213532
    42  O   -0.259460
    43  O   -0.304079
    44  C    0.157510
    45  H   -0.017482
    46  H   -0.014552
    47  H   -0.040004
    48  H    0.001916
    49  H   -0.004307
    50  H    0.025971
    51  H    0.017568
    52  H    0.017385
    53  H    0.009094
    54  H    0.041329
    55  H    0.019960
    56  H    0.018468
    57  H    0.005859
    58  H    0.028481
    59  H    0.037769
    60  H    0.037932
    61  H    0.038446
    62  H    0.025912
    63  H    0.023262
    64  H    0.009368
    65  H    0.024818
    66  H    0.011751
    67  H    0.004768
    68  H    0.006864
    69  H    0.003039
    70  H    0.019021
    71  H    0.017011
    72  H    0.029403
    73  H    0.048227
    74  H    0.010390
    75  H    0.046711
    76  H    0.035986
    77  H    0.044500
    78  H    0.046072
    79  H    0.052496
    80  Mg   0.838085
    81  C   -0.016945
    82  C   -0.088462
    83  C   -0.046062
    84  C   -0.065074
    85  N   -0.254700
    86  C   -0.049292
    87  C   -0.015219
    88  C   -0.090287
    89  C    0.045003
    90  C    0.113862
    91  C    0.062829
    92  C   -0.076969
    93  H    0.033222
    94  N   -0.423709
    95  C    0.164458
    96  C   -0.185039
    97  C   -0.005490
    98  C    0.152178
    99  C    0.111076
   100  C    0.016515
   101  O   -0.251879
   102  C    0.033439
   103  N   -0.349825
   104  C    0.037702
   105  C   -0.019875
   106  C   -0.034723
   107  C    0.088738
   108  C    0.073333
   109  C    0.034955
   110  C   -0.007573
   111  N   -0.323964
   112  C    0.078216
   113  C   -0.163575
   114  C    0.002131
   115  C    0.096040
   116  C    0.131547
   117  C    0.042030
   118  O   -0.188790
   119  C    0.001040
   120  C    0.211118
   121  O   -0.251531
   122  O   -0.305408
   123  C    0.152324
   124  H   -0.014355
   125  H   -0.015860
   126  H   -0.041214
   127  H   -0.000805
   128  H   -0.005999
   129  H    0.020874
   130  H    0.020787
   131  H    0.020002
   132  H    0.012979
   133  H    0.037037
   134  H    0.020961
   135  H    0.018506
   136  H    0.008682
   137  H    0.027860
   138  H    0.035420
   139  H    0.053151
   140  H    0.051270
   141  H    0.023635
   142  H    0.014154
   143  H    0.011984
   144  H    0.023731
   145  H    0.012325
   146  H    0.005150
   147  H    0.005493
   148  H    0.003341
   149  H    0.010819
   150  H    0.017370
   151  H    0.030436
   152  H    0.045348
   153  H    0.007939
   154  H    0.046846
   155  H    0.035450
   156  H    0.043501
   157  H    0.049220
   158  H    0.053102
 Sum of Mulliken charges =  -0.00000

 Dipole moment (field-independent basis, Debye):
    X=              6.7428    Y=              2.2381    Z=              3.6789  Tot=              8.0005
 Quadrupole moment (field-independent basis, Debye-Ang):
   XX=           -551.6912   YY=           -484.8629   ZZ=           -499.6610
   XY=             16.8310   XZ=             18.8175   YZ=             53.5696

 Normal termination of Gaussian 16 at Fri Sep 10 06:47:31 2021.
