 Gaussian 16, Revision A.03,
 Gaussian 16:  ES64L-G16RevA.03 25-Dec-2016

 -----------------------------------
 #p cam-b3lyp/Def2SVP td=(nstates=5)
 -----------------------------------

 --------------------------------
 TDDFT excited states in gaussian
 --------------------------------
 Symbolic Z-matrix:
 Charge =  0 Multiplicity = 1

                         Standard orientation:
 ---------------------------------------------------------------------
 Center     Atomic      Atomic             Coordinates (Angstroms)
 Number     Number       Type             X           Y           Z
 ---------------------------------------------------------------------
      1         12           0       15.774972    0.739258    0.319003
      2          6           0       16.148285   -2.688507   -0.641875
      3          6           0       16.624643    1.573332   -2.878722
      4          6           0       15.895621    3.766424    1.256194
      5          6           0       16.072962   -0.309716    3.629066
      6          7           0       16.296107   -0.491423   -1.445789
      7          6           0       16.344176   -1.795755   -1.697937
      8          6           0       16.547702   -2.126232   -3.206822
      9          6           0       17.237487   -0.766025   -3.671615
     10          6           0       16.658388    0.169873   -2.625352
     11          6           0       18.756623   -0.775606   -3.535100
     12          6           0       15.191078   -2.364263   -3.951566
     13          6           0       15.309980   -3.007324   -5.336372
     14          1           0       14.280270   -3.941684   -5.765342
     15          7           0       15.718361    2.409721   -0.734182
     16          6           0       16.086304    2.563685   -2.028863
     17          6           0       15.858721    3.988964   -2.350525
     18          6           0       15.508331    4.690814   -1.084536
     19          6           0       15.721779    3.642078   -0.120186
     20          6           0       15.932595    4.540588   -3.741210
     21          6           0       15.063427    6.088347   -0.789420
     22          8           0       15.036108    6.556602    0.399935
     23          6           0       14.740510    6.934404   -1.952586
     24          7           0       16.176890    1.641489    2.158045
     25          6           0       16.106410    2.969002    2.305447
     26          6           0       16.152713    3.360907    3.752584
     27          6           0       16.024735    2.002844    4.582667
     28          6           0       16.008330    1.003754    3.399527
     29          6           0       17.411070    4.116661    4.201343
     30          6           0       14.886303    1.923839    5.630593
     31          6           0       13.544940    1.923988    4.932134
     32          7           0       15.882777   -1.164883    1.355184
     33          6           0       16.027347   -1.366688    2.735419
     34          6           0       16.161229   -2.819617    2.947882
     35          6           0       16.101477   -3.364329    1.666647
     36          6           0       15.966831   -2.315998    0.712098
     37          6           0       16.372539   -3.462872    4.199283
     38          6           0       16.144803   -4.586334    0.880082
     39          8           0       16.152598   -5.789083    1.146217
     40          6           0       16.299310   -4.189367   -0.654314
     41          6           0       15.293338   -4.990856   -1.434663
     42          8           0       14.069273   -4.794126   -1.292084
     43          8           0       15.925896   -5.688737   -2.390369
     44          6           0       14.981515   -6.483335   -3.220377
     45          1           0       17.105209    1.958656   -3.780123
     46          1           0       15.832234    4.789436    1.632846
     47          1           0       16.084597   -0.717168    4.641637
     48          1           0       17.213554   -2.967012   -3.402152
     49          1           0       16.914914   -0.466065   -4.668456
     50          1           0       19.104602   -1.670218   -3.018862
     51          1           0       19.002698    0.116476   -2.958793
     52          1           0       19.233689   -0.645605   -4.506843
     53          1           0       14.760338   -1.402493   -4.229993
     54          1           0       14.511930   -2.955710   -3.336525
     55          1           0       16.301484   -3.432537   -5.494564
     56          1           0       15.229897   -2.220390   -6.086385
     57          1           0       16.371698    3.823508   -4.433691
     58          1           0       16.643134    5.366626   -3.718763
     59          1           0       14.964602    4.897781   -4.092968
     60          1           0       15.617049    7.011011   -2.596295
     61          1           0       14.356089    7.869498   -1.546791
     62          1           0       13.968034    6.441857   -2.543879
     63          1           0       15.319945    4.015121    4.007391
     64          1           0       16.927616    1.786109    5.154075
     65          1           0       17.201571    5.086696    4.652838
     66          1           0       18.067534    4.220774    3.337915
     67          1           0       18.049796    3.569897    4.894520
     68          1           0       14.909001    2.797067    6.281672
     69          1           0       14.943744    1.037445    6.262461
     70          1           0       13.357215    2.984141    4.765803
     71          1           0       12.780497    1.488533    5.576507
     72          1           0       13.605379    1.446386    3.954008
     73          1           0       15.715389   -4.332358    4.210121
     74          1           0       16.156128   -2.792393    5.030684
     75          1           0       17.432130   -3.706869    4.124530
     76          1           0       17.323350   -4.429430   -0.938626
     77          1           0       15.312227   -7.521166   -3.178281
     78          1           0       14.947960   -6.002242   -4.198041
     79          1           0       13.964295   -6.575831   -2.838215
     80         12           0      -15.945474   -0.795380    0.186795
     81          6           0      -15.894028    2.520029   -1.185951
     82          6           0      -15.148105    0.599187    3.195781
     83          6           0      -15.540613   -3.728620    1.326827
     84          6           0      -15.605355   -1.997912   -3.066504
     85          7           0      -15.593514    1.300586    0.799415
     86          6           0      -15.662177    2.482139    0.204820
     87          6           0      -15.551444    3.694329    1.168091
     88          6           0      -14.761193    2.976691    2.367832
     89          6           0      -15.218614    1.538089    2.135774
     90          6           0      -13.250697    3.028996    2.209716
     91          6           0      -16.955290    4.216114    1.636044
     92          6           0      -16.936316    5.581444    2.326898
     93          1           0      -18.062161    6.486189    2.111530
     94          7           0      -15.905628   -1.451269    2.059443
     95          6           0      -15.581510   -0.744457    3.162459
     96          6           0      -15.685560   -1.685584    4.288340
     97          6           0      -15.937302   -3.046227    3.740628
     98          6           0      -15.780140   -2.792744    2.322471
     99          6           0      -15.627212   -1.247667    5.722999
    100          6           0      -16.252991   -4.360961    4.387160
    101          8           0      -16.197573   -5.462748    3.734605
    102          6           0      -16.537861   -4.330757    5.829178
    103          7           0      -15.408446   -2.593915   -0.707213
    104          6           0      -15.356561   -3.732308    0.006435
    105          6           0      -15.219768   -4.935746   -0.895454
    106          6           0      -15.434641   -4.385502   -2.381609
    107          6           0      -15.576105   -2.878312   -2.075439
    108          6           0      -13.886228   -5.678529   -0.815908
    109          6           0      -16.535944   -5.073090   -3.234278
    110          6           0      -17.899619   -4.773879   -2.654421
    111          7           0      -15.962873    0.059715   -1.797278
    112          6           0      -15.776711   -0.620257   -3.020821
    113          6           0      -15.757359    0.401139   -4.087979
    114          6           0      -15.911787    1.616111   -3.403517
    115          6           0      -15.999493    1.370960   -2.006484
    116          6           0      -15.563824    0.150703   -5.475767
    117          6           0      -16.009880    3.051122   -3.544250
    118          8           0      -16.085439    3.827524   -4.495684
    119          6           0      -15.875828    3.710445   -2.104205
    120          6           0      -16.974074    4.727343   -1.954877
    121          8           0      -18.165579    4.371885   -1.930791
    122          8           0      -16.431676    5.919907   -1.648343
    123          6           0      -17.482222    6.958930   -1.479247
    124          1           0      -14.677973    0.906250    4.130426
    125          1           0      -15.503522   -4.769330    1.657014
    126          1           0      -15.601710   -2.299997   -4.115981
    127          1           0      -14.971988    4.526401    0.786428
    128          1           0      -15.103210    3.334143    3.335623
    129          1           0      -12.959609    3.438251    1.253725
    130          1           0      -12.909553    2.006296    2.303151
    131          1           0      -12.802790    3.573688    3.045800
    132          1           0      -17.311518    3.591041    2.464970
    133          1           0      -17.647144    4.235392    0.816537
    134          1           0      -15.986016    6.107391    2.174410
    135          1           0      -16.985404    5.424452    3.407164
    136          1           0      -15.269162   -0.214749    5.814044
    137          1           0      -14.850787   -1.848133    6.209290
    138          1           0      -16.572414   -1.399559    6.248538
    139          1           0      -15.684573   -3.911707    6.357154
    140          1           0      -16.827734   -5.350164    6.091212
    141          1           0      -17.380666   -3.653024    6.005183
    142          1           0      -15.985410   -5.670517   -0.678643
    143          1           0      -14.527253   -4.498169   -2.992983
    144          1           0      -13.997581   -6.749298   -0.560735
    145          1           0      -13.259403   -5.177820   -0.090011
    146          1           0      -13.277603   -5.632724   -1.717397
    147          1           0      -16.416663   -6.158875   -3.202661
    148          1           0      -16.521352   -4.777765   -4.278104
    149          1           0      -17.998540   -5.518885   -1.859266
    150          1           0      -18.672795   -4.897969   -3.409966
    151          1           0      -17.918415   -3.784325   -2.183171
    152          1           0      -16.283169    0.760945   -6.005535
    153          1           0      -15.687162   -0.904534   -5.710330
    154          1           0      -14.527061    0.478228   -5.590325
    155          1           0      -14.886158    4.164705   -2.042729
    156          1           0      -17.234867    7.777491   -2.162228
    157          1           0      -17.499812    7.192807   -0.398160
    158          1           0      -18.487482    6.712141   -1.800208
 ---------------------------------------------------------------------

 SCF Done:  E(RCAM-B3LYP) =  -4069.81178098     A.U. after   19 cycles

 Excitation energies and oscillator strengths:

 Excited State   1:      Singlet-A      1.6754 eV  740.02 nm  f=0.2724  <S**2>=0.000
     310 -> 316        0.17030
     311 -> 314        0.13284
     312 -> 313        0.67307
     310 <- 316        0.10266
 This state for optimization and/or second-order correction.
 Total Energy, E(TD-HF/TD-DFT) =  -4069.75021080
 Copying the excited state density for this state as the 1-particle RhoCI density.

 Excited State   2:      Singlet-A      1.6801 eV  737.98 nm  f=0.5046  <S**2>=0.000
     309 -> 315        0.17226
     311 -> 314        0.67271
     312 -> 313       -0.13279
     309 <- 315        0.10314

 Excited State   3:      Singlet-A      2.1861 eV  567.14 nm  f=0.0974  <S**2>=0.000
     310 -> 313        0.64220
     312 -> 316       -0.27302

 Excited State   4:      Singlet-A      2.1926 eV  565.48 nm  f=0.1030  <S**2>=0.000
     309 -> 314        0.64043
     311 -> 315       -0.27818

 Excited State   5:      Singlet-A      3.0658 eV  404.42 nm  f=0.0000  <S**2>=0.000
     311 -> 313        0.70711

 The electronic state is 1-A.
 Alpha  occ. eigenvalues --  -46.87796 -46.87661 -19.26354 -19.26281 -19.19165
 Alpha  occ. eigenvalues --  -19.19017 -19.18814 -19.18712 -19.18169 -19.18054
 Alpha  occ. eigenvalues --  -14.42498 -14.42449 -14.41449 -14.41359 -14.39402
 Alpha  occ. eigenvalues --  -14.39352 -14.38601 -14.38586 -10.39094 -10.39077
 Alpha  occ. eigenvalues --  -10.35447 -10.35389 -10.34388 -10.34231 -10.31761
 Alpha  occ. eigenvalues --  -10.31675 -10.31404 -10.31310 -10.31023 -10.30907
 Alpha  occ. eigenvalues --  -10.30569 -10.30507 -10.30398 -10.30362 -10.30207
 Alpha  occ. eigenvalues --  -10.30140 -10.29921 -10.29895 -10.29630 -10.29436
 Alpha  occ. eigenvalues --  -10.29401 -10.29254 -10.28745 -10.28719 -10.28655
 Alpha  occ. eigenvalues --  -10.28531 -10.28405 -10.28364 -10.28140 -10.28113
 Alpha  occ. eigenvalues --  -10.28002 -10.27792 -10.27726 -10.27669 -10.27583
 Alpha  occ. eigenvalues --  -10.27517 -10.27504 -10.27484 -10.27478 -10.27467
 Alpha  occ. eigenvalues --  -10.27462 -10.27452 -10.27402 -10.27375 -10.27156
 Alpha  occ. eigenvalues --  -10.27053 -10.26700 -10.26694 -10.26410 -10.26407
 Alpha  occ. eigenvalues --  -10.26231 -10.26189 -10.26138 -10.26023 -10.26020
 Alpha  occ. eigenvalues --  -10.25935 -10.25855 -10.25845 -10.25438 -10.25394
 Alpha  occ. eigenvalues --  -10.24874 -10.24832 -10.24788 -10.24732 -10.24693
 Alpha  occ. eigenvalues --  -10.24690  -3.16539  -3.16411  -1.91420  -1.91293
 Alpha  occ. eigenvalues --   -1.91007  -1.90882  -1.90849  -1.90718  -1.16647
 Alpha  occ. eigenvalues --   -1.16630  -1.08661  -1.08626  -1.07215  -1.06964
 Alpha  occ. eigenvalues --   -1.06949  -1.06640  -1.04580  -1.04496  -1.03760
 Alpha  occ. eigenvalues --   -1.03663  -1.03233  -1.03039  -1.02411  -1.02112
 Alpha  occ. eigenvalues --   -0.91988  -0.91971  -0.89521  -0.89495  -0.89185
 Alpha  occ. eigenvalues --   -0.89151  -0.88289  -0.88220  -0.87870  -0.87796
 Alpha  occ. eigenvalues --   -0.87684  -0.87672  -0.87272  -0.87119  -0.85000
 Alpha  occ. eigenvalues --   -0.84979  -0.83939  -0.83876  -0.82966  -0.82929
 Alpha  occ. eigenvalues --   -0.82652  -0.82646  -0.81599  -0.81584  -0.80595
 Alpha  occ. eigenvalues --   -0.80444  -0.78796  -0.78635  -0.77218  -0.77145
 Alpha  occ. eigenvalues --   -0.76932  -0.76899  -0.75921  -0.75840  -0.74899
 Alpha  occ. eigenvalues --   -0.74802  -0.72774  -0.72700  -0.71671  -0.71581
 Alpha  occ. eigenvalues --   -0.69910  -0.69758  -0.68871  -0.68827  -0.67640
 Alpha  occ. eigenvalues --   -0.67602  -0.67216  -0.67200  -0.65284  -0.65272
 Alpha  occ. eigenvalues --   -0.64853  -0.64771  -0.64655  -0.64620  -0.64271
 Alpha  occ. eigenvalues --   -0.64204  -0.62296  -0.62281  -0.60441  -0.60339
 Alpha  occ. eigenvalues --   -0.59802  -0.59797  -0.58993  -0.58987  -0.58503
 Alpha  occ. eigenvalues --   -0.58426  -0.57583  -0.57557  -0.57309  -0.57237
 Alpha  occ. eigenvalues --   -0.56309  -0.56205  -0.55976  -0.55888  -0.55519
 Alpha  occ. eigenvalues --   -0.55452  -0.55340  -0.55249  -0.54523  -0.54489
 Alpha  occ. eigenvalues --   -0.53913  -0.53892  -0.53298  -0.53228  -0.53220
 Alpha  occ. eigenvalues --   -0.53142  -0.52913  -0.52903  -0.52754  -0.52666
 Alpha  occ. eigenvalues --   -0.52442  -0.52402  -0.51915  -0.51888  -0.51658
 Alpha  occ. eigenvalues --   -0.51614  -0.51203  -0.51195  -0.50570  -0.50473
 Alpha  occ. eigenvalues --   -0.50033  -0.49979  -0.49917  -0.49866  -0.49512
 Alpha  occ. eigenvalues --   -0.49487  -0.49213  -0.49203  -0.49105  -0.49094
 Alpha  occ. eigenvalues --   -0.48591  -0.48560  -0.48462  -0.48444  -0.48376
 Alpha  occ. eigenvalues --   -0.48337  -0.47693  -0.47594  -0.47296  -0.47117
 Alpha  occ. eigenvalues --   -0.46797  -0.46710  -0.46554  -0.46552  -0.46359
 Alpha  occ. eigenvalues --   -0.46271  -0.46163  -0.46087  -0.45825  -0.45821
 Alpha  occ. eigenvalues --   -0.45208  -0.45203  -0.44577  -0.44516  -0.44505
 Alpha  occ. eigenvalues --   -0.44476  -0.44145  -0.44128  -0.44086  -0.44078
 Alpha  occ. eigenvalues --   -0.44018  -0.43939  -0.43555  -0.43493  -0.43386
 Alpha  occ. eigenvalues --   -0.43384  -0.43026  -0.42932  -0.42903  -0.42698
 Alpha  occ. eigenvalues --   -0.42656  -0.42553  -0.42010  -0.41965  -0.41703
 Alpha  occ. eigenvalues --   -0.41670  -0.41531  -0.41459  -0.41140  -0.40989
 Alpha  occ. eigenvalues --   -0.40868  -0.40822  -0.40721  -0.40698  -0.40572
 Alpha  occ. eigenvalues --   -0.40493  -0.40230  -0.40227  -0.39444  -0.39426
 Alpha  occ. eigenvalues --   -0.38470  -0.38350  -0.37745  -0.37655  -0.37321
 Alpha  occ. eigenvalues --   -0.37266  -0.37261  -0.37200  -0.36774  -0.36712
 Alpha  occ. eigenvalues --   -0.36218  -0.36192  -0.34285  -0.34254  -0.33865
 Alpha  occ. eigenvalues --   -0.33768  -0.33186  -0.33176  -0.31344  -0.31271
 Alpha  occ. eigenvalues --   -0.31035  -0.30973  -0.30028  -0.29958  -0.29448
 Alpha  occ. eigenvalues --   -0.29327  -0.29321  -0.29213  -0.24080  -0.24037
 Alpha  occ. eigenvalues --   -0.21127  -0.21117
 Alpha virt. eigenvalues --   -0.08792  -0.08773  -0.01749  -0.01684  -0.00057
 Alpha virt. eigenvalues --   -0.00028   0.02201   0.02205   0.03123   0.03228
 Alpha virt. eigenvalues --    0.04720   0.04729   0.05101   0.05162   0.06181

 Mulliken charges:
               1
     1  Mg   0.838770
     2  C   -0.002915
     3  C   -0.094078
     4  C   -0.045874
     5  C   -0.063959
     6  N   -0.256779
     7  C   -0.052487
     8  C   -0.014017
     9  C   -0.087009
    10  C    0.046326
    11  C    0.104805
    12  C    0.053466
    13  C   -0.071839
    14  H    0.036178
    15  N   -0.433147
    16  C    0.168400
    17  C   -0.177114
    18  C   -0.004013
    19  C    0.148717
    20  C    0.110163
    21  C    0.012288
    22  O   -0.249654
    23  C    0.062473
    24  N   -0.341133
    25  C    0.041248
    26  C   -0.028194
    27  C   -0.023946
    28  C    0.074805
    29  C    0.076174
    30  C    0.035146
    31  C   -0.004490
    32  N   -0.310476
    33  C    0.080409
    34  C   -0.169744
    35  C    0.008366
    36  C    0.082954
    37  C    0.127317
    38  C    0.046095
    39  O   -0.188456
    40  C   -0.005334
    41  C    0.212887
    42  O   -0.257113
    43  O   -0.304799
    44  C    0.157694
    45  H   -0.017567
    46  H   -0.016857
    47  H   -0.041537
    48  H    0.000946
    49  H   -0.003990
    50  H    0.025471
    51  H    0.016435
    52  H    0.016691
    53  H    0.011224
    54  H    0.044119
    55  H    0.017872
    56  H    0.017988
    57  H    0.005910
    58  H    0.026842
    59  H    0.039605
    60  H    0.037368
    61  H    0.035649
    62  H    0.031537
    63  H    0.016526
    64  H    0.009444
    65  H    0.023187
    66  H    0.012568
    67  H    0.004739
    68  H    0.006320
    69  H    0.004700
    70  H    0.008763
    71  H    0.018079
    72  H    0.029021
    73  H    0.047545
    74  H    0.009070
    75  H    0.046003
    76  H    0.035159
    77  H    0.042946
    78  H    0.046430
    79  H    0.053686
    80  Mg   0.837905
    81  C   -0.016823
    82  C   -0.087781
    83  C   -0.045479
    84  C   -0.064876
    85  N   -0.254571
    86  C   -0.049860
    87  C   -0.015120
    88  C   -0.090505
    89  C    0.045772
    90  C    0.114367
    91  C    0.062534
    92  C   -0.077902
    93  H    0.034881
    94  N   -0.423502
    95  C    0.162936
    96  C   -0.174571
    97  C   -0.007763
    98  C    0.152116
    99  C    0.099336
   100  C    0.015592
   101  O   -0.253134
   102  C    0.061187
   103  N   -0.350071
   104  C    0.037529
   105  C   -0.019862
   106  C   -0.034804
   107  C    0.088911
   108  C    0.073628
   109  C    0.034733
   110  C   -0.007679
   111  N   -0.324107
   112  C    0.078435
   113  C   -0.163160
   114  C    0.002224
   115  C    0.096184
   116  C    0.131491
   117  C    0.042360
   118  O   -0.187941
   119  C    0.000935
   120  C    0.211223
   121  O   -0.251016
   122  O   -0.305624
   123  C    0.152030
   124  H   -0.019603
   125  H   -0.015519
   126  H   -0.040479
   127  H   -0.000655
   128  H   -0.004302
   129  H    0.022449
   130  H    0.014469
   131  H    0.016331
   132  H    0.013927
   133  H    0.037658
   134  H    0.020789
   135  H    0.019617
   136  H    0.008790
   137  H    0.026233
   138  H    0.039822
   139  H    0.038304
   140  H    0.036446
   141  H    0.033886
   142  H    0.014416
   143  H    0.012428
   144  H    0.025194
   145  H    0.011697
   146  H    0.005705
   147  H    0.006290
   148  H    0.003624
   149  H    0.010953
   150  H    0.017913
   151  H    0.030088
   152  H    0.045968
   153  H    0.008501
   154  H    0.046919
   155  H    0.035014
   156  H    0.043884
   157  H    0.049513
   158  H    0.053572
 Sum of Mulliken charges =  -0.00000

 Dipole moment (field-independent basis, Debye):
    X=              3.8636    Y=              2.8662    Z=              0.7238  Tot=              4.8648
 Quadrupole moment (field-independent basis, Debye-Ang):
   XX=           -518.8089   YY=           -540.3886   ZZ=           -458.3028
   XY=             38.2427   XZ=           -120.6640   YZ=             37.9710

 Normal termination of Gaussian 16 at Sat Sep  4 18:17:59 2021.
