 Gaussian 16, Revision A.03,
 Gaussian 16:  ES64L-G16RevA.03 25-Dec-2016

 -----------------------------------
 #p cam-b3lyp/Def2SVP td=(nstates=5)
 -----------------------------------

 --------------------------------
 TDDFT excited states in gaussian
 --------------------------------
 Symbolic Z-matrix:
 Charge =  0 Multiplicity = 1

                         Standard orientation:
 ---------------------------------------------------------------------
 Center     Atomic      Atomic             Coordinates (Angstroms)
 Number     Number       Type             X           Y           Z
 ---------------------------------------------------------------------
      1         12           0        3.719150    1.031926    0.455224
      2          6           0        4.003101   -1.838622    2.574549
      3          6           0        5.058083   -0.866017   -2.044403
      4          6           0        3.901025    3.666746   -1.300130
      5          6           0        3.484893    2.961206    3.348089
      6          7           0        4.401662   -1.073115    0.394996
      7          6           0        4.401010   -2.083880    1.258433
      8          6           0        4.791484   -3.447422    0.613719
      9          6           0        5.624828   -2.906756   -0.633365
     10          6           0        4.966432   -1.547936   -0.794756
     11          6           0        7.106325   -2.702228   -0.333638
     12          6           0        3.539597   -4.267837    0.153907
     13          6           0        3.809173   -5.737146   -0.183458
     14          1           0        2.791800   -6.727127    0.136287
     15          7           0        3.916826    1.259553   -1.497200
     16          6           0        4.470839    0.377471   -2.363391
     17          6           0        4.381867    1.006765   -3.698588
     18          6           0        3.903872    2.404871   -3.511729
     19          6           0        3.913285    2.509321   -2.074934
     20          6           0        4.684087    0.279518   -4.972764
     21          6           0        3.512347    3.480105   -4.475426
     22          8           0        3.349365    4.694447   -4.110208
     23          6           0        3.409547    3.086735   -5.892372
     24          7           0        3.917424    3.052032    0.942559
     25          6           0        3.912022    3.994568   -0.006430
     26          6           0        3.780956    5.365986    0.586844
     27          6           0        3.451953    5.148666    2.134191
     28          6           0        3.536950    3.603006    2.178708
     29          6           0        5.010099    6.274984    0.449214
     30          6           0        2.175779    5.833337    2.684669
     31          6           0        0.947732    5.199337    2.070631
     32          7           0        3.559506    0.647997    2.585519
     33          6           0        3.496949    1.601719    3.611762
     34          6           0        3.506794    0.863929    4.888335
     35          6           0        3.591667   -0.475648    4.513936
     36          6           0        3.658731   -0.567321    3.094292
     37          6           0        3.499957    1.445306    6.186945
     38          6           0        3.666132   -1.849528    4.983791
     39          8           0        3.559878   -2.397380    6.082000
     40          6           0        4.058196   -2.779725    3.752188
     41          6           0        3.121781   -3.957190    3.755737
     42          8           0        1.904887   -3.807500    3.523082
     43          8           0        3.835576   -5.092732    3.795523
     44          6           0        2.967390   -6.300140    3.771591
     45          1           0        5.683308   -1.290152   -2.832530
     46          1           0        3.851203    4.596470   -1.870716
     47          1           0        3.329121    3.491584    4.289305
     48          1           0        5.422988   -4.080656    1.237129
     49          1           0        5.464281   -3.513816   -1.524109
     50          1           0        7.321027   -2.839308    0.726094
     51          1           0        7.326087   -1.678509   -0.637279
     52          1           0        7.721593   -3.341383   -0.967438
     53          1           0        3.214233   -3.909885   -0.822857
     54          1           0        2.744917   -4.208815    0.898438
     55          1           0        4.783841   -6.058352    0.184996
     56          1           0        3.884925   -5.830477   -1.266856
     57          1           0        5.168774   -0.677264   -4.782527
     58          1           0        5.435851    0.864263   -5.502512
     59          1           0        3.799437    0.164181   -5.599202
     60          1           0        4.370391    2.695994   -6.228005
     61          1           0        3.032809    3.961768   -6.420800
     62          1           0        2.697228    2.265852   -5.980136
     63          1           0        2.964297    5.916767    0.121942
     64          1           0        4.250595    5.518004    2.777956
     65          1           0        4.802070    7.219437   -0.054211
     66          1           0        5.785878    5.715943   -0.073214
     67          1           0        5.509646    6.513446    1.387833
     68          1           0        2.163176    6.887820    2.411077
     69          1           0        2.087780    5.771068    3.769394
     70          1           0        0.853155    5.722706    1.119857
     71          1           0        0.074640    5.373123    2.700489
     72          1           0        1.113380    4.145225    1.847263
     73          1           0        2.793531    0.862787    6.778218
     74          1           0        3.212970    2.495923    6.148929
     75          1           0        4.541844    1.307221    6.475493
     76          1           0        5.094434   -3.080309    3.903782
     77          1           0        3.222017   -6.895996    4.648150
     78          1           0        3.101337   -6.758744    2.791721
     79          1           0        1.902998   -6.131898    3.939231
     80         12           0       -4.130952    0.210071   -0.347673
     81          6           0       -2.423025   -1.909361   -2.686481
     82          6           0       -5.995151   -2.509221    0.526872
     83          6           0       -5.951618    2.141439    1.390858
     84          6           0       -2.960332    2.936478   -2.175805
     85          7           0       -4.116697   -1.884347   -1.058642
     86          6           0       -3.382149   -2.588492   -1.906557
     87          6           0       -3.637580   -4.118945   -1.861591
     88          6           0       -5.129260   -4.096417   -1.267222
     89          6           0       -5.074916   -2.764973   -0.520910
     90          6           0       -6.202616   -3.999948   -2.338640
     91          6           0       -2.646664   -4.862277   -0.898492
     92          6           0       -2.634612   -6.386023   -1.039227
     93          1           0       -1.368764   -7.091602   -0.859609
     94          7           0       -5.391066   -0.198253    1.130155
     95          6           0       -6.040768   -1.360941    1.347674
     96          6           0       -6.862089   -1.144263    2.548775
     97          6           0       -6.770458    0.292184    2.926824
     98          6           0       -6.034737    0.816552    1.793764
     99          6           0       -7.568148   -2.259470    3.263777
    100          6           0       -7.274164    1.068129    4.105970
    101          8           0       -7.286535    2.349785    4.113125
    102          6           0       -7.838859    0.284003    5.214019
    103          7           0       -4.593334    2.231014   -0.503715
    104          6           0       -5.367600    2.835936    0.414166
    105          6           0       -5.336162    4.336818    0.250614
    106          6           0       -4.184537    4.628280   -0.820093
    107          6           0       -3.792933    3.176343   -1.172099
    108          6           0       -6.640412    4.982532   -0.216673
    109          6           0       -3.062014    5.614347   -0.395496
    110          6           0       -2.230622    5.004781    0.710221
    111          7           0       -2.767313    0.506786   -1.997064
    112          6           0       -2.440452    1.729012   -2.624291
    113          6           0       -1.561587    1.410011   -3.768079
    114          6           0       -1.455903    0.011237   -3.740506
    115          6           0       -2.231576   -0.506584   -2.668270
    116          6           0       -1.021508    2.350613   -4.689875
    117          6           0       -0.873093   -1.145780   -4.381078
    118          8           0       -0.057373   -1.319139   -5.285678
    119          6           0       -1.574903   -2.449969   -3.804089
    120          6           0       -0.498231   -3.439258   -3.451075
    121          8           0        0.310079   -3.194765   -2.538125
    122          8           0       -0.733367   -4.595732   -4.097314
    123          6           0        0.301865   -5.612300   -3.770653
    124          1           0       -6.785114   -3.237407    0.712846
    125          1           0       -6.473625    2.861003    2.025845
    126          1           0       -2.474457    3.738486   -2.735604
    127          1           0       -3.629621   -4.609392   -2.827594
    128          1           0       -5.290037   -4.916674   -0.572454
    129          1           0       -5.779588   -3.842874   -3.319718
    130          1           0       -6.825399   -3.161164   -2.056438
    131          1           0       -6.849892   -4.880956   -2.304181
    132          1           0       -3.013365   -4.771676    0.132078
    133          1           0       -1.650062   -4.481273   -1.009087
    134          1           0       -3.133320   -6.719116   -1.957528
    135          1           0       -3.239254   -6.813522   -0.235689
    136          1           0       -7.588543   -3.175124    2.659983
    137          1           0       -8.620436   -1.967943    3.350688
    138          1           0       -7.167437   -2.439059    4.263697
    139          1           0       -8.669360   -0.314130    4.846646
    140          1           0       -8.062296    1.007858    6.000135
    141          1           0       -7.077157   -0.419292    5.568693
    142          1           0       -5.079133    4.822248    1.184098
    143          1           0       -4.587501    5.076890   -1.739979
    144          1           0       -7.014431    5.760828    0.475023
    145          1           0       -7.379367    4.203210   -0.347588
    146          1           0       -6.603326    5.434358   -1.206468
    147          1           0       -3.496781    6.530341    0.012049
    148          1           0       -2.409278    5.903428   -1.212414
    149          1           0       -2.814880    5.225450    1.608573
    150          1           0       -1.248818    5.471951    0.753280
    151          1           0       -2.180278    3.914399    0.609331
    152          1           0        0.013241    2.075503   -4.845102
    153          1           0       -1.111373    3.368916   -4.317371
    154          1           0       -1.667765    2.170805   -5.553174
    155          1           0       -2.243734   -2.831136   -4.576717
    156          1           0        0.730633   -5.948113   -4.719903
    157          1           0       -0.210957   -6.372949   -3.152465
    158          1           0        1.187976   -5.274579   -3.246049
 ---------------------------------------------------------------------

 SCF Done:  E(RCAM-B3LYP) =  -4069.81288953     A.U. after   18 cycles

 Excitation energies and oscillator strengths:

 Excited State   1:      Singlet-A      1.6333 eV  759.10 nm  f=0.0896  <S**2>=0.000
     309 -> 315        0.12101
     310 -> 316        0.10811
     311 -> 313        0.50934
     312 -> 314        0.46331
 This state for optimization and/or second-order correction.
 Total Energy, E(TD-HF/TD-DFT) =  -4069.75286654
 Copying the excited state density for this state as the 1-particle RhoCI density.

 Excited State   2:      Singlet-A      1.7109 eV  724.69 nm  f=0.6196  <S**2>=0.000
     309 -> 315       -0.12274
     310 -> 316        0.13425
     311 -> 313       -0.46004
     312 -> 314        0.50586

 Excited State   3:      Singlet-A      2.1770 eV  569.51 nm  f=0.0083  <S**2>=0.000
     309 -> 313        0.53475
     310 -> 314       -0.36369
     311 -> 315       -0.21934
     312 -> 316        0.14696

 Excited State   4:      Singlet-A      2.1969 eV  564.35 nm  f=0.1589  <S**2>=0.000
     309 -> 313        0.35844
     310 -> 314        0.52826
     311 -> 315       -0.15809
     312 -> 316       -0.23190

 Excited State   5:      Singlet-A      2.2206 eV  558.35 nm  f=0.0000  <S**2>=0.000
     312 -> 313        0.70630

 The electronic state is 1-A.
 Alpha  occ. eigenvalues --  -46.87557 -46.87198 -19.26629 -19.25934 -19.19485
 Alpha  occ. eigenvalues --  -19.18622 -19.18608 -19.18349 -19.18213 -19.17689
 Alpha  occ. eigenvalues --  -14.42392 -14.41841 -14.41263 -14.40906 -14.39249
 Alpha  occ. eigenvalues --  -14.38797 -14.38530 -14.38024 -10.39343 -10.38676
 Alpha  occ. eigenvalues --  -10.35282 -10.34975 -10.34374 -10.33913 -10.32111
 Alpha  occ. eigenvalues --  -10.31427 -10.31247 -10.30934 -10.30822 -10.30322
 Alpha  occ. eigenvalues --  -10.30300 -10.30281 -10.30001 -10.29995 -10.29987
 Alpha  occ. eigenvalues --  -10.29817 -10.29669 -10.29464 -10.29332 -10.29328
 Alpha  occ. eigenvalues --  -10.29104 -10.28658 -10.28641 -10.28598 -10.28348
 Alpha  occ. eigenvalues --  -10.28128 -10.28117 -10.28066 -10.27953 -10.27773
 Alpha  occ. eigenvalues --  -10.27572 -10.27521 -10.27422 -10.27386 -10.27347
 Alpha  occ. eigenvalues --  -10.27334 -10.27253 -10.27220 -10.27164 -10.27148
 Alpha  occ. eigenvalues --  -10.27134 -10.27116 -10.27015 -10.26846 -10.26688
 Alpha  occ. eigenvalues --  -10.26615 -10.26548 -10.26267 -10.25981 -10.25927
 Alpha  occ. eigenvalues --  -10.25891 -10.25868 -10.25856 -10.25849 -10.25810
 Alpha  occ. eigenvalues --  -10.25741 -10.25488 -10.25413 -10.25300 -10.25147
 Alpha  occ. eigenvalues --  -10.24844 -10.24610 -10.24534 -10.24318 -10.24282
 Alpha  occ. eigenvalues --  -10.24275  -3.16305  -3.15936  -1.91186  -1.90817
 Alpha  occ. eigenvalues --   -1.90775  -1.90613  -1.90405  -1.90248  -1.16921
 Alpha  occ. eigenvalues --   -1.16271  -1.08834  -1.08164  -1.07223  -1.06858
 Alpha  occ. eigenvalues --   -1.06764  -1.06247  -1.04405  -1.03979  -1.03570
 Alpha  occ. eigenvalues --   -1.03212  -1.02949  -1.02669  -1.02032  -1.01854
 Alpha  occ. eigenvalues --   -0.91973  -0.91436  -0.89380  -0.89107  -0.89066
 Alpha  occ. eigenvalues --   -0.88583  -0.88091  -0.87876  -0.87750  -0.87589
 Alpha  occ. eigenvalues --   -0.87348  -0.87078  -0.87015  -0.86651  -0.84921
 Alpha  occ. eigenvalues --   -0.84415  -0.83778  -0.83591  -0.82813  -0.82591
 Alpha  occ. eigenvalues --   -0.82450  -0.82120  -0.81668  -0.81141  -0.80428
 Alpha  occ. eigenvalues --   -0.80089  -0.78551  -0.78199  -0.77064  -0.76894
 Alpha  occ. eigenvalues --   -0.76736  -0.76453  -0.75831  -0.75430  -0.74736
 Alpha  occ. eigenvalues --   -0.74480  -0.72626  -0.72250  -0.71525  -0.71172
 Alpha  occ. eigenvalues --   -0.69806  -0.69408  -0.68758  -0.68334  -0.67552
 Alpha  occ. eigenvalues --   -0.67121  -0.67103  -0.66630  -0.65231  -0.64760
 Alpha  occ. eigenvalues --   -0.64726  -0.64607  -0.64365  -0.64189  -0.64058
 Alpha  occ. eigenvalues --   -0.63803  -0.62366  -0.61880  -0.60241  -0.59891
 Alpha  occ. eigenvalues --   -0.59721  -0.59216  -0.58939  -0.58480  -0.58404
 Alpha  occ. eigenvalues --   -0.58000  -0.57667  -0.57168  -0.57120  -0.56846
 Alpha  occ. eigenvalues --   -0.56192  -0.55956  -0.55785  -0.55542  -0.55449
 Alpha  occ. eigenvalues --   -0.55256  -0.55009  -0.54974  -0.54490  -0.54130
 Alpha  occ. eigenvalues --   -0.53836  -0.53309  -0.53158  -0.53138  -0.52886
 Alpha  occ. eigenvalues --   -0.52814  -0.52683  -0.52565  -0.52437  -0.52299
 Alpha  occ. eigenvalues --   -0.52181  -0.52099  -0.51832  -0.51586  -0.51447
 Alpha  occ. eigenvalues --   -0.51191  -0.51020  -0.50728  -0.50348  -0.49979
 Alpha  occ. eigenvalues --   -0.49880  -0.49796  -0.49535  -0.49425  -0.49354
 Alpha  occ. eigenvalues --   -0.49189  -0.49108  -0.48985  -0.48697  -0.48611
 Alpha  occ. eigenvalues --   -0.48547  -0.48365  -0.48243  -0.48151  -0.48039
 Alpha  occ. eigenvalues --   -0.47923  -0.47538  -0.47200  -0.47047  -0.46761
 Alpha  occ. eigenvalues --   -0.46639  -0.46500  -0.46332  -0.46213  -0.46056
 Alpha  occ. eigenvalues --   -0.46009  -0.45872  -0.45819  -0.45711  -0.45392
 Alpha  occ. eigenvalues --   -0.45148  -0.44766  -0.44533  -0.44390  -0.44154
 Alpha  occ. eigenvalues --   -0.44142  -0.44002  -0.43972  -0.43875  -0.43702
 Alpha  occ. eigenvalues --   -0.43636  -0.43594  -0.43483  -0.43324  -0.43073
 Alpha  occ. eigenvalues --   -0.43050  -0.42881  -0.42857  -0.42564  -0.42436
 Alpha  occ. eigenvalues --   -0.42305  -0.42301  -0.41876  -0.41666  -0.41594
 Alpha  occ. eigenvalues --   -0.41374  -0.41207  -0.41016  -0.40931  -0.40642
 Alpha  occ. eigenvalues --   -0.40623  -0.40590  -0.40400  -0.40374  -0.40306
 Alpha  occ. eigenvalues --   -0.40133  -0.40109  -0.39568  -0.39451  -0.38727
 Alpha  occ. eigenvalues --   -0.38208  -0.38040  -0.37574  -0.37201  -0.37186
 Alpha  occ. eigenvalues --   -0.37117  -0.36937  -0.36832  -0.36683  -0.36319
 Alpha  occ. eigenvalues --   -0.36119  -0.35722  -0.34219  -0.34056  -0.33735
 Alpha  occ. eigenvalues --   -0.33343  -0.33101  -0.32635  -0.31169  -0.30900
 Alpha  occ. eigenvalues --   -0.30877  -0.30492  -0.30118  -0.29557  -0.29264
 Alpha  occ. eigenvalues --   -0.29159  -0.28877  -0.28760  -0.23953  -0.23512
 Alpha  occ. eigenvalues --   -0.21029  -0.20558
 Alpha virt. eigenvalues --   -0.08720  -0.08200  -0.01583  -0.01209   0.00046
 Alpha virt. eigenvalues --    0.00498   0.02189   0.02671   0.02828   0.04562
 Alpha virt. eigenvalues --    0.04689   0.04938   0.05201   0.05513   0.05824

 Mulliken charges:
               1
     1  Mg   0.842842
     2  C   -0.001864
     3  C   -0.085887
     4  C   -0.049070
     5  C   -0.065565
     6  N   -0.256996
     7  C   -0.050105
     8  C   -0.016216
     9  C   -0.089033
    10  C    0.051978
    11  C    0.105202
    12  C    0.052438
    13  C   -0.070243
    14  H    0.028733
    15  N   -0.433302
    16  C    0.173679
    17  C   -0.170464
    18  C   -0.006210
    19  C    0.149990
    20  C    0.108926
    21  C    0.009493
    22  O   -0.253430
    23  C    0.058780
    24  N   -0.341115
    25  C    0.042349
    26  C   -0.029305
    27  C   -0.025354
    28  C    0.073688
    29  C    0.076934
    30  C    0.049989
    31  C   -0.036073
    32  N   -0.309859
    33  C    0.079194
    34  C   -0.171466
    35  C    0.007291
    36  C    0.082103
    37  C    0.127731
    38  C    0.044909
    39  O   -0.191374
    40  C   -0.005462
    41  C    0.212768
    42  O   -0.257062
    43  O   -0.304801
    44  C    0.158955
    45  H   -0.018581
    46  H   -0.019436
    47  H   -0.043601
    48  H   -0.001856
    49  H   -0.003677
    50  H    0.024435
    51  H    0.015881
    52  H    0.015116
    53  H    0.026608
    54  H    0.044208
    55  H    0.015689
    56  H    0.014555
    57  H    0.005474
    58  H    0.022988
    59  H    0.053585
    60  H    0.037183
    61  H    0.032765
    62  H    0.040450
    63  H    0.014968
    64  H    0.008619
    65  H    0.021422
    66  H    0.012930
    67  H    0.004257
    68  H    0.003714
    69  H    0.002441
    70  H    0.028019
    71  H    0.027947
    72  H    0.033289
    73  H    0.045859
    74  H    0.007942
    75  H    0.044690
    76  H    0.034025
    77  H    0.041349
    78  H    0.046058
    79  H    0.051795
    80  Mg   0.840847
    81  C   -0.017121
    82  C   -0.087088
    83  C   -0.045300
    84  C   -0.065163
    85  N   -0.255006
    86  C   -0.048488
    87  C   -0.016246
    88  C   -0.090918
    89  C    0.047408
    90  C    0.114450
    91  C    0.062279
    92  C   -0.077230
    93  H    0.032636
    94  N   -0.423583
    95  C    0.164886
    96  C   -0.173838
    97  C   -0.006921
    98  C    0.152891
    99  C    0.099402
   100  C    0.016369
   101  O   -0.253215
   102  C    0.060651
   103  N   -0.350174
   104  C    0.038003
   105  C   -0.020422
   106  C   -0.033055
   107  C    0.088432
   108  C    0.073902
   109  C    0.037972
   110  C   -0.010038
   111  N   -0.323656
   112  C    0.076649
   113  C   -0.162910
   114  C   -0.000049
   115  C    0.095955
   116  C    0.132866
   117  C    0.041886
   118  O   -0.195463
   119  C    0.001207
   120  C    0.211118
   121  O   -0.250001
   122  O   -0.304665
   123  C    0.153069
   124  H   -0.019755
   125  H   -0.015501
   126  H   -0.038811
   127  H   -0.002133
   128  H   -0.003795
   129  H    0.021823
   130  H    0.014446
   131  H    0.016090
   132  H    0.017946
   133  H    0.039100
   134  H    0.019431
   135  H    0.020388
   136  H    0.008886
   137  H    0.025846
   138  H    0.041656
   139  H    0.037897
   140  H    0.036431
   141  H    0.035671
   142  H    0.014593
   143  H    0.011957
   144  H    0.024800
   145  H    0.011259
   146  H    0.005644
   147  H    0.003862
   148  H    0.003464
   149  H    0.008225
   150  H    0.011118
   151  H    0.029062
   152  H    0.039868
   153  H    0.015209
   154  H    0.045329
   155  H    0.034824
   156  H    0.042178
   157  H    0.051732
   158  H    0.050112
 Sum of Mulliken charges =  -0.00000

 Dipole moment (field-independent basis, Debye):
    X=             -1.4923    Y=             -3.2667    Z=             -2.8287  Tot=              4.5716
 Quadrupole moment (field-independent basis, Debye-Ang):
   XX=           -479.8058   YY=           -464.3486   ZZ=           -539.2148
   XY=             14.5867   XZ=             -9.6992   YZ=             17.6492

 Normal termination of Gaussian 16 at Wed Sep  8 20:31:03 2021.
