 Gaussian 16, Revision A.03,
 Gaussian 16:  ES64L-G16RevA.03 25-Dec-2016

 -----------------------------------
 #p cam-b3lyp/Def2SVP td=(nstates=5)
 -----------------------------------

 --------------------------------
 TDDFT excited states in gaussian
 --------------------------------
 Symbolic Z-matrix:
 Charge =  0 Multiplicity = 1

                         Standard orientation:
 ---------------------------------------------------------------------
 Center     Atomic      Atomic             Coordinates (Angstroms)
 Number     Number       Type             X           Y           Z
 ---------------------------------------------------------------------
      1         12           0        6.799699   -0.508111    0.388703
      2          6           0        7.001657    2.568055   -1.430259
      3          6           0        7.507314    1.283416    3.205222
      4          6           0        7.075464   -3.260715    1.939107
      5          6           0        7.235881   -2.161345   -2.648108
      6          7           0        7.183289    1.647157    0.717825
      7          6           0        7.172358    2.729769   -0.053540
      8          6           0        7.283972    4.060882    0.748367
      9          6           0        7.995226    3.504332    2.062280
     10          6           0        7.505417    2.067792    2.013675
     11          6           0        9.518199    3.507105    1.978344
     12          6           0        5.882303    4.678403    1.073520
     13          6           0        5.905126    6.129545    1.562417
     14          1           0        4.822135    7.018179    1.168959
     15          7           0        6.745712   -0.899259    2.324405
     16          6           0        7.049677   -0.046024    3.331818
     17          6           0        6.855270   -0.808138    4.584044
     18          6           0        6.597182   -2.228267    4.217002
     19          6           0        6.824690   -2.190790    2.794957
     20          6           0        6.874555   -0.177413    5.942559
     21          6           0        6.217609   -3.430852    5.021890
     22          8           0        6.269724   -4.614691    4.541907
     23          6           0        5.863241   -3.191977    6.432707
     24          7           0        7.329768   -2.433463   -0.219313
     25          6           0        7.313592   -3.457681    0.640744
     26          6           0        7.450176   -4.770797   -0.071302
     27          6           0        7.319030   -4.444766   -1.628946
     28          6           0        7.205074   -2.902977   -1.538558
     29          6           0        8.756165   -5.536589    0.181612
     30          6           0        6.235668   -5.219271   -2.420711
     31          6           0        4.860000   -4.798114   -1.954597
     32          7           0        6.895717    0.059281   -1.704116
     33          6           0        7.106095   -0.790891   -2.799388
     34          6           0        7.200237    0.063351   -3.997501
     35          6           0        7.053688    1.360785   -3.510641
     36          6           0        6.905329    1.321422   -2.094755
     37          6           0        7.454980   -0.385810   -5.323319
     38          6           0        7.012577    2.772896   -3.854313
     39          8           0        6.992466    3.408347   -4.909439
     40          6           0        7.099316    3.618965   -2.508032
     41          6           0        6.026034    4.671753   -2.562899
     42          8           0        4.818861    4.356860   -2.532201
     43          8           0        6.582302    5.882416   -2.403515
     44          6           0        5.568096    6.970219   -2.418495
     45          1           0        7.952595    1.700151    4.110759
     46          1           0        7.067884   -4.240783    2.420611
     47          1           0        7.286927   -2.612499   -3.640735
     48          1           0        7.908774    4.822110    0.280843
     49          1           0        7.630948    3.998636    2.962662
     50          1           0        9.861600    3.770983    0.978161
     51          1           0        9.825466    2.492069    2.230894
     52          1           0        9.947345    4.150128    2.747195
     53          1           0        5.471257    4.191197    1.957676
     54          1           0        5.216469    4.598124    0.213552
     55          1           0        6.871401    6.598381    1.374228
     56          1           0        5.812932    6.125515    2.648550
     57          1           0        7.251038    0.844038    5.904568
     58          1           0        7.613692   -0.717514    6.533893
     59          1           0        5.902343   -0.229249    6.432915
     60          1           0        6.706574   -2.724467    6.941404
     61          1           0        5.533749   -4.152691    6.826805
     62          1           0        5.043789   -2.473838    6.474216
     63          1           0        6.655431   -5.457115    0.218137
     64          1           0        8.242804   -4.652448   -2.169485
     65          1           0        8.604884   -6.543458    0.571526
     66          1           0        9.369183   -4.942872    0.859107
     67          1           0        9.411248   -5.621785   -0.685005
     68          1           0        6.323314   -6.289356   -2.235829
     69          1           0        6.295532   -5.062805   -3.497830
     70          1           0        4.700854   -5.418876   -1.073598
     71          1           0        4.116043   -5.012242   -2.722639
     72          1           0        4.851806   -3.758514   -1.626496
     73          1           0        6.769372    0.163447   -5.968475
     74          1           0        7.306475   -1.461744   -5.412292
     75          1           0        8.499955   -0.097717   -5.436840
     76          1           0        8.097843    4.053660   -2.474773
     77          1           0        5.864136    7.674388   -3.196144
     78          1           0        5.499594    7.344103   -1.396769
     79          1           0        4.569950    6.693972   -2.760155
     80         12           0       -6.409128   -0.845490   -0.176326
     81          6           0       -8.980283    1.615036    0.286292
     82          6           0       -4.218644    1.737165   -0.584064
     83          6           0       -4.215232   -2.971994   -1.032031
     84          6           0       -8.931328   -3.149725   -0.865341
     85          7           0       -6.683890    1.348766   -0.131733
     86          6           0       -7.694559    2.168829    0.113993
     87          6           0       -7.291660    3.660932    0.258419
     88          6           0       -5.928458    3.625090   -0.589665
     89          6           0       -5.560838    2.154939   -0.399458
     90          6           0       -6.136171    3.877339   -2.073767
     91          6           0       -7.029054    4.067370    1.751027
     92          6           0       -6.934250    5.574278    2.000046
     93          1           0       -7.458064    6.106691    3.254887
     94          7           0       -4.431549   -0.693745   -0.245233
     95          6           0       -3.706688    0.435097   -0.392101
     96          6           0       -2.298268    0.010351   -0.402400
     97          6           0       -2.257032   -1.477215   -0.415187
     98          6           0       -3.663794   -1.778433   -0.589463
     99          6           0       -1.155315    0.979987   -0.319537
    100          6           0       -1.135425   -2.465006   -0.303530
    101          8           0       -1.301177   -3.705914   -0.578334
    102          6           0        0.184797   -1.921053    0.046648
    103          7           0       -6.534852   -2.724774   -1.056572
    104          6           0       -5.431428   -3.462040   -1.272977
    105          6           0       -5.788270   -4.878312   -1.656644
    106          6           0       -7.364350   -5.004346   -1.416502
    107          6           0       -7.674385   -3.549117   -1.002299
    108          6           0       -5.458888   -5.281260   -3.093840
    109          6           0       -7.845367   -6.154889   -0.490465
    110          6           0       -7.393216   -5.898143    0.929053
    111          7           0       -8.568315   -0.857350   -0.099945
    112          6           0       -9.428599   -1.919093   -0.455864
    113          6           0      -10.812425   -1.413820   -0.345685
    114          6           0      -10.659318   -0.075763    0.047584
    115          6           0       -9.277157    0.236951    0.154035
    116          6           0      -11.993346   -2.151302   -0.641751
    117          6           0      -11.352453    1.146266    0.386565
    118          8           0      -12.530652    1.459220    0.552829
    119          6           0      -10.294082    2.331177    0.433580
    120          6           0      -10.528037    3.113084    1.697080
    121          8           0      -10.332538    2.591044    2.808775
    122          8           0      -10.732453    4.405570    1.383946
    123          6           0      -10.958307    5.223660    2.605231
    124          1           0       -3.494607    2.464964   -0.951441
    125          1           0       -3.502116   -3.774550   -1.234143
    126          1           0       -9.775912   -3.834370   -0.968368
    127          1           0       -7.986760    4.364078   -0.184524
    128          1           0       -5.171361    4.267685   -0.147796
    129          1           0       -7.183743    3.922117   -2.332072
    130          1           0       -5.656009    3.051715   -2.582512
    131          1           0       -5.595852    4.776833   -2.382489
    132          1           0       -6.011139    3.766375    2.030295
    133          1           0       -7.770070    3.640070    2.398275
    134          1           0       -7.308301    6.156960    1.149458
    135          1           0       -5.878867    5.848780    2.069584
    136          1           0       -1.489479    2.011080   -0.488628
    137          1           0       -0.493170    0.766833   -1.165693
    138          1           0       -0.586532    0.882405    0.607636
    139          1           0        0.480534   -1.184364   -0.696510
    140          1           0        0.835973   -2.789040    0.166845
    141          1           0        0.102179   -1.389462    1.001215
    142          1           0       -5.277824   -5.591452   -1.021055
    143          1           0       -7.906451   -5.185894   -2.356188
    144          1           0       -4.798676   -6.166704   -3.158477
    145          1           0       -5.007356   -4.433144   -3.591174
    146          1           0       -6.321699   -5.486790   -3.725115
    147          1           0       -7.390910   -7.100987   -0.794634
    148          1           0       -8.920952   -6.296359   -0.500434
    149          1           0       -6.366095   -6.275106    0.932877
    150          1           0       -8.016636   -6.444030    1.634329
    151          1           0       -7.350664   -4.823325    1.140240
    152          1           0      -12.700869   -1.936340    0.147996
    153          1           0      -11.788673   -3.217451   -0.713878
    154          1           0      -12.256600   -1.717435   -1.610118
    155          1           0      -10.444418    2.940302   -0.458573
    156          1           0      -11.915574    5.737367    2.473156
    157          1           0      -10.057376    5.856726    2.711576
    158          1           0      -11.127750    4.696929    3.537053
 ---------------------------------------------------------------------

 SCF Done:  E(RCAM-B3LYP) =  -4069.81216875     A.U. after   19 cycles

 Excitation energies and oscillator strengths:

 Excited State   1:      Singlet-A      1.6739 eV  740.68 nm  f=0.3854  <S**2>=0.000
     310 -> 316       -0.15609
     311 -> 313       -0.29802
     312 -> 314        0.61798
 This state for optimization and/or second-order correction.
 Total Energy, E(TD-HF/TD-DFT) =  -4069.75065335
 Copying the excited state density for this state as the 1-particle RhoCI density.

 Excited State   2:      Singlet-A      1.6801 eV  737.98 nm  f=0.4033  <S**2>=0.000
     309 -> 315        0.15854
     311 -> 313        0.61761
     312 -> 314        0.29803

 Excited State   3:      Singlet-A      2.1864 eV  567.06 nm  f=0.0346  <S**2>=0.000
     309 -> 313       -0.22465
     310 -> 314        0.60245
     312 -> 316        0.25583

 Excited State   4:      Singlet-A      2.1950 eV  564.84 nm  f=0.1525  <S**2>=0.000
     309 -> 313        0.60006
     310 -> 314        0.22285
     311 -> 315       -0.26237

 Excited State   5:      Singlet-A      2.5961 eV  477.58 nm  f=0.0000  <S**2>=0.000
     312 -> 313        0.70688

 The electronic state is 1-A.
 Alpha  occ. eigenvalues --  -46.87976 -46.87524 -19.26550 -19.26268 -19.19301
 Alpha  occ. eigenvalues --  -19.19073 -19.18932 -19.18553 -19.18357 -19.17928
 Alpha  occ. eigenvalues --  -14.42628 -14.42360 -14.41603 -14.41224 -14.39575
 Alpha  occ. eigenvalues --  -14.39210 -14.38767 -14.38465 -10.39350 -10.39000
 Alpha  occ. eigenvalues --  -10.35563 -10.35230 -10.34581 -10.34108 -10.31954
 Alpha  occ. eigenvalues --  -10.31692 -10.31588 -10.31174 -10.31093 -10.30877
 Alpha  occ. eigenvalues --  -10.30745 -10.30668 -10.30337 -10.30267 -10.30220
 Alpha  occ. eigenvalues --  -10.30062 -10.29997 -10.29790 -10.29774 -10.29411
 Alpha  occ. eigenvalues --  -10.29283 -10.29249 -10.28962 -10.28804 -10.28595
 Alpha  occ. eigenvalues --  -10.28578 -10.28544 -10.28309 -10.28260 -10.28001
 Alpha  occ. eigenvalues --  -10.27958 -10.27895 -10.27855 -10.27742 -10.27626
 Alpha  occ. eigenvalues --  -10.27583 -10.27566 -10.27520 -10.27516 -10.27404
 Alpha  occ. eigenvalues --  -10.27366 -10.27349 -10.27310 -10.27265 -10.27171
 Alpha  occ. eigenvalues --  -10.26975 -10.26936 -10.26595 -10.26507 -10.26401
 Alpha  occ. eigenvalues --  -10.26223 -10.26183 -10.26162 -10.26040 -10.25985
 Alpha  occ. eigenvalues --  -10.25866 -10.25799 -10.25738 -10.25497 -10.25292
 Alpha  occ. eigenvalues --  -10.25005 -10.24937 -10.24733 -10.24639 -10.24632
 Alpha  occ. eigenvalues --  -10.24556  -3.16721  -3.16274  -1.91603  -1.91188
 Alpha  occ. eigenvalues --   -1.91157  -1.91031  -1.90745  -1.90582  -1.16899
 Alpha  occ. eigenvalues --   -1.16560  -1.08821  -1.08540  -1.07329  -1.06918
 Alpha  occ. eigenvalues --   -1.06857  -1.06805  -1.04760  -1.04357  -1.03918
 Alpha  occ. eigenvalues --   -1.03526  -1.03399  -1.02902  -1.02575  -1.01974
 Alpha  occ. eigenvalues --   -0.92154  -0.91856  -0.89629  -0.89387  -0.89370
 Alpha  occ. eigenvalues --   -0.89021  -0.88386  -0.88101  -0.88032  -0.87844
 Alpha  occ. eigenvalues --   -0.87663  -0.87546  -0.87420  -0.86932  -0.85173
 Alpha  occ. eigenvalues --   -0.84871  -0.84024  -0.83763  -0.83077  -0.82821
 Alpha  occ. eigenvalues --   -0.82765  -0.82512  -0.81787  -0.81486  -0.80773
 Alpha  occ. eigenvalues --   -0.80316  -0.78950  -0.78466  -0.77369  -0.77109
 Alpha  occ. eigenvalues --   -0.77004  -0.76785  -0.76108  -0.75703  -0.75011
 Alpha  occ. eigenvalues --   -0.74680  -0.72928  -0.72560  -0.71829  -0.71449
 Alpha  occ. eigenvalues --   -0.69962  -0.69645  -0.69052  -0.68695  -0.67806
 Alpha  occ. eigenvalues --   -0.67469  -0.67416  -0.67069  -0.65482  -0.65147
 Alpha  occ. eigenvalues --   -0.65029  -0.64785  -0.64642  -0.64532  -0.64379
 Alpha  occ. eigenvalues --   -0.64083  -0.62502  -0.62171  -0.60579  -0.60177
 Alpha  occ. eigenvalues --   -0.59993  -0.59662  -0.59147  -0.58862  -0.58667
 Alpha  occ. eigenvalues --   -0.58293  -0.57792  -0.57447  -0.57441  -0.57102
 Alpha  occ. eigenvalues --   -0.56475  -0.56200  -0.56058  -0.55773  -0.55675
 Alpha  occ. eigenvalues --   -0.55474  -0.55308  -0.55135  -0.54675  -0.54382
 Alpha  occ. eigenvalues --   -0.54097  -0.53785  -0.53445  -0.53398  -0.53102
 Alpha  occ. eigenvalues --   -0.53092  -0.53004  -0.52910  -0.52779  -0.52486
 Alpha  occ. eigenvalues --   -0.52481  -0.52293  -0.52071  -0.51808  -0.51765
 Alpha  occ. eigenvalues --   -0.51519  -0.51356  -0.51079  -0.50697  -0.50280
 Alpha  occ. eigenvalues --   -0.50135  -0.50047  -0.49825  -0.49731  -0.49684
 Alpha  occ. eigenvalues --   -0.49388  -0.49342  -0.49275  -0.49055  -0.48978
 Alpha  occ. eigenvalues --   -0.48781  -0.48599  -0.48573  -0.48430  -0.48260
 Alpha  occ. eigenvalues --   -0.48176  -0.47849  -0.47447  -0.47446  -0.46952
 Alpha  occ. eigenvalues --   -0.46944  -0.46750  -0.46579  -0.46515  -0.46423
 Alpha  occ. eigenvalues --   -0.46314  -0.46123  -0.46007  -0.45963  -0.45710
 Alpha  occ. eigenvalues --   -0.45305  -0.45086  -0.44756  -0.44650  -0.44391
 Alpha  occ. eigenvalues --   -0.44343  -0.44292  -0.44240  -0.44180  -0.43996
 Alpha  occ. eigenvalues --   -0.43944  -0.43783  -0.43684  -0.43546  -0.43448
 Alpha  occ. eigenvalues --   -0.43257  -0.43186  -0.42927  -0.42824  -0.42775
 Alpha  occ. eigenvalues --   -0.42741  -0.42421  -0.42128  -0.41868  -0.41850
 Alpha  occ. eigenvalues --   -0.41712  -0.41542  -0.41337  -0.41302  -0.41034
 Alpha  occ. eigenvalues --   -0.40963  -0.40856  -0.40671  -0.40591  -0.40558
 Alpha  occ. eigenvalues --   -0.40456  -0.40376  -0.40109  -0.39480  -0.39317
 Alpha  occ. eigenvalues --   -0.38583  -0.38234  -0.37964  -0.37543  -0.37463
 Alpha  occ. eigenvalues --   -0.37442  -0.37142  -0.37067  -0.36935  -0.36678
 Alpha  occ. eigenvalues --   -0.36360  -0.36102  -0.34456  -0.34120  -0.34034
 Alpha  occ. eigenvalues --   -0.33765  -0.33357  -0.33040  -0.31463  -0.31199
 Alpha  occ. eigenvalues --   -0.31115  -0.30837  -0.30220  -0.29836  -0.29612
 Alpha  occ. eigenvalues --   -0.29494  -0.29172  -0.29071  -0.24251  -0.23901
 Alpha  occ. eigenvalues --   -0.21289  -0.20976
 Alpha virt. eigenvalues --   -0.08937  -0.08646  -0.01907  -0.01547  -0.00214
 Alpha virt. eigenvalues --    0.00126   0.02032   0.02334   0.02757   0.03339
 Alpha virt. eigenvalues --    0.04531   0.04841   0.04856   0.05260   0.05944

 Mulliken charges:
               1
     1  Mg   0.835999
     2  C   -0.004007
     3  C   -0.094521
     4  C   -0.045401
     5  C   -0.063368
     6  N   -0.256876
     7  C   -0.053026
     8  C   -0.013759
     9  C   -0.086876
    10  C    0.045883
    11  C    0.104703
    12  C    0.053532
    13  C   -0.071592
    14  H    0.034895
    15  N   -0.433380
    16  C    0.168052
    17  C   -0.177319
    18  C   -0.003865
    19  C    0.148423
    20  C    0.110123
    21  C    0.012414
    22  O   -0.248557
    23  C    0.062493
    24  N   -0.341216
    25  C    0.041332
    26  C   -0.028306
    27  C   -0.024138
    28  C    0.074895
    29  C    0.076017
    30  C    0.034843
    31  C   -0.004547
    32  N   -0.310381
    33  C    0.079877
    34  C   -0.169740
    35  C    0.008259
    36  C    0.082093
    37  C    0.127365
    38  C    0.045582
    39  O   -0.188559
    40  C   -0.005101
    41  C    0.213269
    42  O   -0.259165
    43  O   -0.304248
    44  C    0.157858
    45  H   -0.017304
    46  H   -0.015930
    47  H   -0.040805
    48  H    0.001165
    49  H   -0.004117
    50  H    0.025639
    51  H    0.016838
    52  H    0.016982
    53  H    0.010456
    54  H    0.042546
    55  H    0.018667
    56  H    0.018271
    57  H    0.005840
    58  H    0.027407
    59  H    0.039491
    60  H    0.037464
    61  H    0.036566
    62  H    0.031133
    63  H    0.017662
    64  H    0.009587
    65  H    0.023879
    66  H    0.012328
    67  H    0.004987
    68  H    0.007176
    69  H    0.004673
    70  H    0.010360
    71  H    0.021035
    72  H    0.026517
    73  H    0.047312
    74  H    0.009728
    75  H    0.046296
    76  H    0.035565
    77  H    0.043514
    78  H    0.046456
    79  H    0.052485
    80  Mg   0.837400
    81  C   -0.016883
    82  C   -0.087751
    83  C   -0.045503
    84  C   -0.064957
    85  N   -0.254493
    86  C   -0.050138
    87  C   -0.015069
    88  C   -0.090388
    89  C    0.045423
    90  C    0.114249
    91  C    0.062595
    92  C   -0.077584
    93  H    0.034037
    94  N   -0.423609
    95  C    0.162567
    96  C   -0.173786
    97  C   -0.007795
    98  C    0.152289
    99  C    0.098520
   100  C    0.015688
   101  O   -0.253530
   102  C    0.059723
   103  N   -0.350001
   104  C    0.037678
   105  C   -0.019876
   106  C   -0.034677
   107  C    0.088658
   108  C    0.073690
   109  C    0.034845
   110  C   -0.007622
   111  N   -0.323958
   112  C    0.078073
   113  C   -0.163493
   114  C    0.002075
   115  C    0.095899
   116  C    0.131563
   117  C    0.042086
   118  O   -0.188522
   119  C    0.000999
   120  C    0.211181
   121  O   -0.251272
   122  O   -0.305562
   123  C    0.152165
   124  H   -0.017976
   125  H   -0.015708
   126  H   -0.040862
   127  H   -0.000842
   128  H   -0.004245
   129  H    0.022159
   130  H    0.015077
   131  H    0.016775
   132  H    0.013728
   133  H    0.037401
   134  H    0.020865
   135  H    0.019467
   136  H    0.010211
   137  H    0.030736
   138  H    0.038999
   139  H    0.040800
   140  H    0.036858
   141  H    0.033171
   142  H    0.014229
   143  H    0.012205
   144  H    0.024779
   145  H    0.011987
   146  H    0.005518
   147  H    0.005970
   148  H    0.003433
   149  H    0.010881
   150  H    0.017597
   151  H    0.030202
   152  H    0.045596
   153  H    0.008223
   154  H    0.046695
   155  H    0.034915
   156  H    0.043691
   157  H    0.049386
   158  H    0.053317
 Sum of Mulliken charges =  -0.00000

 Dipole moment (field-independent basis, Debye):
    X=              5.7066    Y=              2.6569    Z=              2.4651  Tot=              6.7602
 Quadrupole moment (field-independent basis, Debye-Ang):
   XX=           -555.6760   YY=           -473.4268   ZZ=           -512.1376
   XY=             15.8940   XZ=             46.9673   YZ=             40.1467

 Normal termination of Gaussian 16 at Sat Sep 11 18:16:09 2021.
