 Gaussian 16, Revision A.03,
 Gaussian 16:  ES64L-G16RevA.03 25-Dec-2016

 -----------------------------------
 #p cam-b3lyp/Def2SVP td=(nstates=5)
 -----------------------------------

 --------------------------------
 TDDFT excited states in gaussian
 --------------------------------
 Symbolic Z-matrix:
 Charge =  0 Multiplicity = 1

                         Standard orientation:
 ---------------------------------------------------------------------
 Center     Atomic      Atomic             Coordinates (Angstroms)
 Number     Number       Type             X           Y           Z
 ---------------------------------------------------------------------
      1         12           0       -3.499920   -1.738187   -0.141317
      2          6           0       -4.634677    1.643861    0.152438
      3          6           0       -4.266975   -1.550278   -3.460863
      4          6           0       -2.934088   -4.852371   -0.337042
      5          6           0       -3.895026   -2.014923    3.310200
      6          7           0       -4.336966   -0.105240   -1.379658
      7          6           0       -4.672891    1.161684   -1.157787
      8          6           0       -4.997488    1.952034   -2.460614
      9          6           0       -5.395908    0.729875   -3.403793
     10          6           0       -4.591741   -0.368482   -2.730851
     11          6           0       -6.875716    0.366203   -3.337363
     12          6           0       -3.751608    2.721331   -3.015319
     13          6           0       -4.056139    3.770675   -4.088395
     14          1           0       -3.267196    4.993022   -4.116399
     15          7           0       -3.124740   -2.875934   -1.712183
     16          6           0       -3.498075   -2.637595   -2.992457
     17          6           0       -2.981928   -3.773789   -3.785764
     18          6           0       -2.443181   -4.785333   -2.834646
     19          6           0       -2.841306   -4.216042   -1.572591
     20          6           0       -2.986437   -3.801036   -5.283424
     21          6           0       -1.698367   -6.067639   -3.032322
     22          8           0       -1.527857   -6.908284   -2.084262
     23          6           0       -1.244131   -6.358745   -4.404170
     24          7           0       -3.631558   -3.295143    1.242949
     25          6           0       -3.272608   -4.541419    0.915938
     26          6           0       -3.180928   -5.419241    2.128770
     27          6           0       -3.317065   -4.447904    3.388819
     28          6           0       -3.558549   -3.116568    2.635493
     29          6           0       -4.230632   -6.534673    2.228496
     30          6           0       -2.184626   -4.502973    4.444739
     31          6           0       -0.900858   -3.970242    3.848723
     32          7           0       -3.975816   -0.392497    1.493824
     33          6           0       -4.109854   -0.726839    2.849155
     34          6           0       -4.544461    0.493094    3.554100
     35          6           0       -4.649741    1.454408    2.550787
     36          6           0       -4.328259    0.865208    1.294688
     37          6           0       -4.843041    0.592127    4.941715
     38          6           0       -4.982875    2.836038    2.244228
     39          8           0       -5.238789    3.836032    2.916548
     40          6           0       -5.104505    2.983204    0.663287
     41          6           0       -4.323048    4.203510    0.258952
     42          8           0       -3.080910    4.235192    0.374948
     43          8           0       -5.125030    5.041669   -0.415479
     44          6           0       -4.404022    6.260086   -0.871287
     45          1           0       -4.686253   -1.685583   -4.459782
     46          1           0       -2.639019   -5.903723   -0.342728
     47          1           0       -3.956845   -2.003754    4.399928
     48          1           0       -5.834877    2.644793   -2.375238
     49          1           0       -5.053087    0.877429   -4.427719
     50          1           0       -7.388435    0.924602   -2.554272
     51          1           0       -6.903495   -0.702415   -3.123408
     52          1           0       -7.348917    0.489063   -4.311920
     53          1           0       -3.135028    2.035452   -3.596232
     54          1           0       -3.193173    3.187884   -2.203035
     55          1           0       -5.120872    4.002269   -4.128586
     56          1           0       -3.836524    3.335729   -5.063480
     57          1           0       -3.594113   -2.997040   -5.696782
     58          1           0       -3.501927   -4.713063   -5.583734
     59          1           0       -1.977848   -3.795638   -5.697007
     60          1           0       -2.106718   -6.388318   -5.070217
     61          1           0       -0.653517   -7.271787   -4.337982
     62          1           0       -0.617401   -5.536446   -4.750555
     63          1           0       -2.218475   -5.927429    2.171840
     64          1           0       -4.223956   -4.644905    3.961019
     65          1           0       -3.801586   -7.533008    2.317660
     66          1           0       -4.880534   -6.464758    1.356699
     67          1           0       -4.946054   -6.417659    3.042066
     68          1           0       -1.995699   -5.533146    4.744736
     69          1           0       -2.407788   -3.930882    5.345384
     70          1           0       -0.496274   -4.837180    3.327607
     71          1           0       -0.224638   -3.637940    4.637084
     72          1           0       -1.097993   -3.202730    3.100024
     73          1           0       -4.387767    1.520586    5.286183
     74          1           0       -4.457649   -0.265992    5.491904
     75          1           0       -5.932312    0.614656    4.912775
     76          1           0       -6.165879    3.083726    0.438559
     77          1           0       -4.947911    7.120039   -0.480261
     78          1           0       -4.303737    6.174189   -1.953400
     79          1           0       -3.417076    6.426500   -0.438177
     80         12           0        4.161359    0.322766    0.293875
     81          6           0        2.454349    3.475644    0.450538
     82          6           0        4.010179    0.579134   -3.104073
     83          6           0        5.255271   -2.650545    0.120189
     84          6           0        3.172788   -0.218813    3.591617
     85          7           0        3.316878    1.874699   -1.036769
     86          6           0        2.747553    3.058136   -0.864439
     87          6           0        2.550145    3.873235   -2.170657
     88          6           0        2.536589    2.653708   -3.215377
     89          6           0        3.368538    1.645678   -2.425186
     90          6           0        1.153189    2.064079   -3.434227
     91          6           0        3.742431    4.854614   -2.448766
     92          6           0        3.475569    5.899311   -3.534651
     93          1           0        4.053361    7.231057   -3.376299
     94          7           0        5.009077   -0.647650   -1.215505
     95          6           0        4.855976   -0.396817   -2.532672
     96          6           0        5.672571   -1.401537   -3.231137
     97          6           0        6.189114   -2.368307   -2.224539
     98          6           0        5.471822   -1.928718   -1.044554
     99          6           0        5.960950   -1.335487   -4.702842
    100          6           0        7.157442   -3.508832   -2.312529
    101          8           0        7.278601   -4.363855   -1.365383
    102          6           0        7.892106   -3.648925   -3.578283
    103          7           0        4.031032   -1.304974    1.580663
    104          6           0        4.640587   -2.467405    1.288918
    105          6           0        4.641419   -3.396663    2.479236
    106          6           0        4.116947   -2.519580    3.709376
    107          6           0        3.805422   -1.202033    2.966136
    108          6           0        3.778511   -4.651107    2.344463
    109          6           0        5.023701   -2.460985    4.969146
    110          6           0        6.299601   -1.714549    4.652413
    111          7           0        3.184288    1.479967    1.834741
    112          6           0        2.843562    1.051544    3.136452
    113          6           0        2.091964    2.151933    3.774172
    114          6           0        2.027146    3.143138    2.783323
    115          6           0        2.673921    2.684436    1.604015
    116          6           0        1.534167    2.128925    5.083543
    117          6           0        1.549413    4.469055    2.463300
    118          8           0        1.007896    5.373813    3.097262
    119          6           0        1.694649    4.694058    0.896559
    120          6           0        2.334379    6.037679    0.677605
    121          8           0        3.503423    6.248619    1.045653
    122          8           0        1.542627    6.778047   -0.119491
    123          6           0        2.139894    8.115926   -0.374771
    124          1           0        3.815487    0.450261   -4.169139
    125          1           0        5.710122   -3.643343    0.151076
    126          1           0        2.915117   -0.271647    4.651567
    127          1           0        1.617543    4.421725   -2.227276
    128          1           0        3.039642    2.920987   -4.141049
    129          1           0        0.423678    2.486924   -2.759571
    130          1           0        1.256061    1.000680   -3.262087
    131          1           0        0.858571    2.172678   -4.481952
    132          1           0        4.561850    4.297713   -2.921150
    133          1           0        4.052291    5.343293   -1.545550
    134          1           0        2.410247    5.969975   -3.785740
    135          1           0        3.947773    5.564798   -4.461550
    136          1           0        5.311795   -0.609481   -5.207749
    137          1           0        5.670803   -2.301857   -5.129221
    138          1           0        7.016756   -1.157133   -4.917599
    139          1           0        7.184415   -3.766772   -4.395447
    140          1           0        8.599319   -4.464816   -3.416939
    141          1           0        8.441037   -2.719960   -3.768844
    142          1           0        5.643633   -3.744447    2.697649
    143          1           0        3.159041   -2.895010    4.098360
    144          1           0        4.346946   -5.589382    2.488010
    145          1           0        3.306390   -4.637675    1.371089
    146          1           0        2.922670   -4.697234    3.015733
    147          1           0        5.320229   -3.468956    5.269535
    148          1           0        4.544444   -1.997742    5.825125
    149          1           0        6.927162   -2.483101    4.191352
    150          1           0        6.753455   -1.328200    5.562798
    151          1           0        6.124212   -0.937026    3.899859
    152          1           0        1.756267    3.087444    5.533461
    153          1           0        1.938152    1.308812    5.673447
    154          1           0        0.478073    1.980282    4.843059
    155          1           0        0.694838    4.641297    0.463945
    156          1           0        1.396013    8.860430   -0.074704
    157          1           0        2.445016    8.108907   -1.438068
    158          1           0        2.989207    8.409493    0.230984
 ---------------------------------------------------------------------

 SCF Done:  E(RCAM-B3LYP) =  -4069.81130943     A.U. after   19 cycles

 Excitation energies and oscillator strengths:

 Excited State   1:      Singlet-A      1.6370 eV  757.40 nm  f=0.0167  <S**2>=0.000
     309 -> 315       -0.11454
     310 -> 316        0.11736
     311 -> 313       -0.47834
     312 -> 314        0.49492
 This state for optimization and/or second-order correction.
 Total Energy, E(TD-HF/TD-DFT) =  -4069.75115154
 Copying the excited state density for this state as the 1-particle RhoCI density.

 Excited State   2:      Singlet-A      1.7138 eV  723.47 nm  f=0.6641  <S**2>=0.000
     309 -> 315        0.13288
     310 -> 316        0.12707
     311 -> 313        0.49142
     312 -> 314        0.47504

 Excited State   3:      Singlet-A      2.1775 eV  569.40 nm  f=0.0078  <S**2>=0.000
     309 -> 313        0.35518
     310 -> 314        0.53982
     311 -> 315       -0.14515
     312 -> 316       -0.22290

 Excited State   4:      Singlet-A      2.1986 eV  563.93 nm  f=0.1584  <S**2>=0.000
     309 -> 313        0.53340
     310 -> 314       -0.34865
     311 -> 315       -0.23769
     312 -> 316        0.15702

 Excited State   5:      Singlet-A      2.2263 eV  556.90 nm  f=0.0000  <S**2>=0.000
     312 -> 313        0.70703

 The electronic state is 1-A.
 Alpha  occ. eigenvalues --  -46.87873 -46.87330 -19.26270 -19.25926 -19.19043
 Alpha  occ. eigenvalues --  -19.18863 -19.18722 -19.18425 -19.18144 -19.17471
 Alpha  occ. eigenvalues --  -14.42542 -14.42184 -14.41532 -14.41026 -14.39476
 Alpha  occ. eigenvalues --  -14.39020 -14.38650 -14.38237 -10.39094 -10.38629
 Alpha  occ. eigenvalues --  -10.35498 -10.35111 -10.34370 -10.33636 -10.31628
 Alpha  occ. eigenvalues --  -10.31492 -10.31451 -10.31006 -10.30956 -10.30696
 Alpha  occ. eigenvalues --  -10.30642 -10.30571 -10.30303 -10.30035 -10.29993
 Alpha  occ. eigenvalues --  -10.29984 -10.29871 -10.29695 -10.29539 -10.29332
 Alpha  occ. eigenvalues --  -10.29136 -10.29041 -10.28900 -10.28793 -10.28485
 Alpha  occ. eigenvalues --  -10.28428 -10.28417 -10.28247 -10.28023 -10.27879
 Alpha  occ. eigenvalues --  -10.27845 -10.27819 -10.27652 -10.27622 -10.27619
 Alpha  occ. eigenvalues --  -10.27595 -10.27548 -10.27479 -10.27369 -10.27280
 Alpha  occ. eigenvalues --  -10.27253 -10.27179 -10.27121 -10.27113 -10.27096
 Alpha  occ. eigenvalues --  -10.26955 -10.26467 -10.26450 -10.26386 -10.26366
 Alpha  occ. eigenvalues --  -10.26339 -10.26203 -10.26109 -10.25947 -10.25863
 Alpha  occ. eigenvalues --  -10.25803 -10.25626 -10.25514 -10.25440 -10.25101
 Alpha  occ. eigenvalues --  -10.24941 -10.24878 -10.24860 -10.24535 -10.24464
 Alpha  occ. eigenvalues --  -10.24339  -3.16615  -3.16081  -1.91496  -1.91083
 Alpha  occ. eigenvalues --   -1.90964  -1.90925  -1.90552  -1.90388  -1.16621
 Alpha  occ. eigenvalues --   -1.16214  -1.08593  -1.08051  -1.07262  -1.06682
 Alpha  occ. eigenvalues --   -1.06640  -1.06502  -1.04670  -1.04163  -1.03844
 Alpha  occ. eigenvalues --   -1.03328  -1.03304  -1.02700  -1.02484  -1.01761
 Alpha  occ. eigenvalues --   -0.92030  -0.91557  -0.89627  -0.89327  -0.89183
 Alpha  occ. eigenvalues --   -0.88873  -0.88391  -0.87925  -0.87921  -0.87777
 Alpha  occ. eigenvalues --   -0.87412  -0.87368  -0.87349  -0.86828  -0.85111
 Alpha  occ. eigenvalues --   -0.84712  -0.84049  -0.83582  -0.83047  -0.82748
 Alpha  occ. eigenvalues --   -0.82667  -0.82357  -0.81626  -0.81226  -0.80660
 Alpha  occ. eigenvalues --   -0.80100  -0.78870  -0.78313  -0.77328  -0.77039
 Alpha  occ. eigenvalues --   -0.76857  -0.76590  -0.75996  -0.75505  -0.74985
 Alpha  occ. eigenvalues --   -0.74485  -0.72851  -0.72357  -0.71752  -0.71250
 Alpha  occ. eigenvalues --   -0.70049  -0.69504  -0.68985  -0.68533  -0.67709
 Alpha  occ. eigenvalues --   -0.67361  -0.67252  -0.66928  -0.65403  -0.64953
 Alpha  occ. eigenvalues --   -0.64926  -0.64705  -0.64442  -0.64368  -0.64322
 Alpha  occ. eigenvalues --   -0.63900  -0.62324  -0.61902  -0.60520  -0.60033
 Alpha  occ. eigenvalues --   -0.59915  -0.59488  -0.59064  -0.58646  -0.58571
 Alpha  occ. eigenvalues --   -0.58057  -0.57612  -0.57377  -0.57070  -0.56861
 Alpha  occ. eigenvalues --   -0.56376  -0.56018  -0.55867  -0.55590  -0.55528
 Alpha  occ. eigenvalues --   -0.55417  -0.55135  -0.54911  -0.54588  -0.54149
 Alpha  occ. eigenvalues --   -0.54030  -0.53632  -0.53374  -0.53316  -0.52988
 Alpha  occ. eigenvalues --   -0.52916  -0.52851  -0.52828  -0.52582  -0.52569
 Alpha  occ. eigenvalues --   -0.52412  -0.52145  -0.51952  -0.51733  -0.51477
 Alpha  occ. eigenvalues --   -0.51375  -0.51262  -0.50823  -0.50663  -0.50231
 Alpha  occ. eigenvalues --   -0.50155  -0.50008  -0.49707  -0.49611  -0.49581
 Alpha  occ. eigenvalues --   -0.49277  -0.49198  -0.49187  -0.48859  -0.48750
 Alpha  occ. eigenvalues --   -0.48652  -0.48533  -0.48483  -0.48212  -0.48073
 Alpha  occ. eigenvalues --   -0.47979  -0.47783  -0.47371  -0.47292  -0.46898
 Alpha  occ. eigenvalues --   -0.46824  -0.46680  -0.46437  -0.46407  -0.46279
 Alpha  occ. eigenvalues --   -0.46223  -0.45958  -0.45862  -0.45725  -0.45438
 Alpha  occ. eigenvalues --   -0.45295  -0.44888  -0.44624  -0.44618  -0.44249
 Alpha  occ. eigenvalues --   -0.44225  -0.44194  -0.44127  -0.44061  -0.43816
 Alpha  occ. eigenvalues --   -0.43777  -0.43560  -0.43542  -0.43484  -0.43218
 Alpha  occ. eigenvalues --   -0.43098  -0.43057  -0.42806  -0.42678  -0.42573
 Alpha  occ. eigenvalues --   -0.42494  -0.42273  -0.42127  -0.41764  -0.41676
 Alpha  occ. eigenvalues --   -0.41660  -0.41243  -0.41222  -0.41176  -0.41004
 Alpha  occ. eigenvalues --   -0.40913  -0.40679  -0.40661  -0.40454  -0.40445
 Alpha  occ. eigenvalues --   -0.40405  -0.40191  -0.39975  -0.39604  -0.39181
 Alpha  occ. eigenvalues --   -0.38588  -0.38074  -0.37915  -0.37425  -0.37397
 Alpha  occ. eigenvalues --   -0.37376  -0.36967  -0.36889  -0.36747  -0.36391
 Alpha  occ. eigenvalues --   -0.36258  -0.35889  -0.34360  -0.33910  -0.33785
 Alpha  occ. eigenvalues --   -0.33433  -0.33256  -0.32830  -0.31395  -0.31113
 Alpha  occ. eigenvalues --   -0.30984  -0.30621  -0.30004  -0.29511  -0.29368
 Alpha  occ. eigenvalues --   -0.29366  -0.28993  -0.28792  -0.24158  -0.23680
 Alpha  occ. eigenvalues --   -0.21208  -0.20782
 Alpha virt. eigenvalues --   -0.08842  -0.08434  -0.01830  -0.01362  -0.00122
 Alpha virt. eigenvalues --    0.00302   0.02164   0.02455   0.02774   0.03663
 Alpha virt. eigenvalues --    0.04593   0.04998   0.05100   0.05625   0.05946

 Mulliken charges:
               1
     1  Mg   0.838834
     2  C   -0.003378
     3  C   -0.095031
     4  C   -0.045478
     5  C   -0.064306
     6  N   -0.256481
     7  C   -0.053488
     8  C   -0.013300
     9  C   -0.086882
    10  C    0.045830
    11  C    0.104798
    12  C    0.050812
    13  C   -0.071105
    14  H    0.034449
    15  N   -0.433252
    16  C    0.168218
    17  C   -0.177738
    18  C   -0.003790
    19  C    0.148985
    20  C    0.110341
    21  C    0.012989
    22  O   -0.249048
    23  C    0.062464
    24  N   -0.340955
    25  C    0.041088
    26  C   -0.028612
    27  C   -0.023891
    28  C    0.074854
    29  C    0.076060
    30  C    0.035517
    31  C   -0.009652
    32  N   -0.310676
    33  C    0.080590
    34  C   -0.170246
    35  C    0.009488
    36  C    0.083293
    37  C    0.126757
    38  C    0.047980
    39  O   -0.185288
    40  C   -0.006420
    41  C    0.215430
    42  O   -0.256847
    43  O   -0.305140
    44  C    0.155741
    45  H   -0.017897
    46  H   -0.016643
    47  H   -0.041686
    48  H    0.001671
    49  H   -0.004922
    50  H    0.025870
    51  H    0.016783
    52  H    0.016581
    53  H    0.010633
    54  H    0.043804
    55  H    0.019259
    56  H    0.017042
    57  H    0.005262
    58  H    0.027096
    59  H    0.038260
    60  H    0.037018
    61  H    0.036406
    62  H    0.030828
    63  H    0.016614
    64  H    0.009936
    65  H    0.023438
    66  H    0.012817
    67  H    0.004877
    68  H    0.006398
    69  H    0.004506
    70  H    0.011183
    71  H    0.016698
    72  H    0.031785
    73  H    0.049408
    74  H    0.008393
    75  H    0.046376
    76  H    0.035268
    77  H    0.043916
    78  H    0.044468
    79  H    0.057776
    80  Mg   0.835912
    81  C   -0.014994
    82  C   -0.088261
    83  C   -0.045686
    84  C   -0.066191
    85  N   -0.254246
    86  C   -0.049164
    87  C   -0.014683
    88  C   -0.091475
    89  C    0.045129
    90  C    0.111866
    91  C    0.062773
    92  C   -0.076830
    93  H    0.034005
    94  N   -0.423303
    95  C    0.162174
    96  C   -0.176132
    97  C   -0.008447
    98  C    0.151435
    99  C    0.100029
   100  C    0.014947
   101  O   -0.253794
   102  C    0.061532
   103  N   -0.350493
   104  C    0.037463
   105  C   -0.020391
   106  C   -0.035210
   107  C    0.089899
   108  C    0.073178
   109  C    0.034582
   110  C   -0.007216
   111  N   -0.324950
   112  C    0.079311
   113  C   -0.162718
   114  C    0.005744
   115  C    0.094575
   116  C    0.130538
   117  C    0.049682
   118  O   -0.183728
   119  C   -0.002918
   120  C    0.209580
   121  O   -0.252908
   122  O   -0.304061
   123  C    0.152487
   124  H   -0.022182
   125  H   -0.016134
   126  H   -0.041709
   127  H    0.001324
   128  H   -0.006015
   129  H    0.029029
   130  H    0.013382
   131  H    0.011911
   132  H    0.013346
   133  H    0.037976
   134  H    0.019499
   135  H    0.018510
   136  H    0.007222
   137  H    0.024040
   138  H    0.038824
   139  H    0.037276
   140  H    0.035599
   141  H    0.033414
   142  H    0.013688
   143  H    0.012095
   144  H    0.024312
   145  H    0.013711
   146  H    0.004941
   147  H    0.005421
   148  H    0.002651
   149  H    0.010786
   150  H    0.017311
   151  H    0.030682
   152  H    0.045992
   153  H    0.005930
   154  H    0.051088
   155  H    0.051093
   156  H    0.042581
   157  H    0.047678
   158  H    0.052950
 Sum of Mulliken charges =  -0.00000

 Dipole moment (field-independent basis, Debye):
    X=             -2.5109    Y=             -2.4470    Z=             -7.6379  Tot=              8.4041
 Quadrupole moment (field-independent basis, Debye-Ang):
   XX=           -516.2268   YY=           -543.1033   ZZ=           -452.9460
   XY=             13.8135   XZ=              6.6456   YZ=            -49.4307

 Normal termination of Gaussian 16 at Thu Sep  9 06:45:23 2021.
