 Gaussian 16, Revision A.03,
 Gaussian 16:  ES64L-G16RevA.03 25-Dec-2016

 -----------------------------------
 #p cam-b3lyp/Def2SVP td=(nstates=5)
 -----------------------------------

 --------------------------------
 TDDFT excited states in gaussian
 --------------------------------
 Symbolic Z-matrix:
 Charge =  0 Multiplicity = 1

                         Standard orientation:
 ---------------------------------------------------------------------
 Center     Atomic      Atomic             Coordinates (Angstroms)
 Number     Number       Type             X           Y           Z
 ---------------------------------------------------------------------
      1         12           0        7.661600   -0.890345    0.154068
      2          6           0        7.989497    2.115436   -1.761650
      3          6           0        8.541479    0.938513    2.897088
      4          6           0        7.821802   -3.608250    1.780092
      5          6           0        7.925423   -2.652836   -2.840875
      6          7           0        8.174355    1.248128    0.408352
      7          6           0        8.204517    2.306857   -0.394987
      8          6           0        8.411599    3.652046    0.363274
      9          6           0        9.124054    3.094010    1.675906
     10          6           0        8.553011    1.686960    1.682705
     11          6           0       10.642090    3.007434    1.555194
     12          6           0        7.055803    4.357691    0.703292
     13          6           0        7.172946    5.818686    1.147283
     14          1           0        6.131936    6.755937    0.753319
     15          7           0        7.635652   -1.221678    2.101476
     16          6           0        8.013101   -0.358429    3.074933
     17          6           0        7.808462   -1.071703    4.354012
     18          6           0        7.461400   -2.484800    4.036523
     19          6           0        7.653872   -2.501474    2.608918
     20          6           0        7.898309   -0.404116    5.691923
     21          6           0        7.035591   -3.640003    4.886420
     22          8           0        7.008530   -4.838260    4.441426
     23          6           0        6.731780   -3.340627    6.297489
     24          7           0        8.066499   -2.859573   -0.407922
     25          6           0        8.014861   -3.855919    0.482928
     26          6           0        8.058833   -5.194716   -0.192075
     27          6           0        7.906095   -4.906876   -1.755268
     28          6           0        7.881541   -3.359129   -1.708934
     29          6           0        9.325705   -6.026165    0.052344
     30          6           0        6.760749   -5.640845   -2.496815
     31          6           0        5.423480   -5.128572   -2.010618
     32          7           0        7.735370   -0.390067   -1.956696
     33          6           0        7.869180   -1.282153   -3.030452
     34          6           0        7.980333   -0.469653   -4.255832
     35          6           0        7.919718    0.847556   -3.805130
     36          6           0        7.805977    0.857652   -2.385534
     37          6           0        8.175060   -0.970742   -5.573187
     38          6           0        7.949359    2.249190   -4.190356
     39          8           0        7.937844    2.853999   -5.263467
     40          6           0        8.118344    3.127477   -2.872827
     41          6           0        7.105012    4.237777   -2.933664
     42          8           0        5.883213    3.993310   -2.864309
     43          8           0        7.732523    5.418819   -2.824523
     44          6           0        6.781155    6.561842   -2.847989
     45          1           0        9.032755    1.355147    3.778566
     46          1           0        7.771459   -4.571965    2.291126
     47          1           0        7.925334   -3.134661   -3.820312
     48          1           0        9.066012    4.362547   -0.142052
     49          1           0        8.811563    3.634108    2.569420
     50          1           0       10.973877    3.222273    0.539476
     51          1           0       10.898109    1.984239    1.830908
     52          1           0       11.126480    3.646865    2.293619
     53          1           0        6.640926    3.920489    1.611473
     54          1           0        6.364526    4.290727   -0.137528
     55          1           0        8.158916    6.225977    0.921704
     56          1           0        7.108740    5.851309    2.234947
     57          1           0        8.330626    0.592659    5.613911
     58          1           0        8.620866   -0.968208    6.281346
     59          1           0        6.937703   -0.386192    6.206944
     60          1           0        7.612959   -2.907505    6.771280
     61          1           0        6.358976   -4.269181    6.728365
     62          1           0        5.955427   -2.575992    6.336974
     63          1           0        7.234427   -5.825908    0.137131
     64          1           0        8.802443   -5.182472   -2.311400
     65          1           0        9.128062   -7.011072    0.476137
     66          1           0        9.988478   -5.449072    0.696538
     67          1           0        9.952359   -6.173613   -0.826849
     68          1           0        6.792720   -6.708399   -2.281750
     69          1           0        6.801506   -5.519240   -3.579313
     70          1           0        5.252415   -5.713524   -1.107622
     71          1           0        4.649065   -5.321996   -2.753638
     72          1           0        5.482333   -4.081153   -1.714079
     73          1           0        7.505054   -0.402124   -6.217962
     74          1           0        7.963936   -2.038568   -5.625894
     75          1           0        9.231324   -0.746157   -5.720574
     76          1           0        9.140298    3.505256   -2.876868
     77          1           0        7.096218    7.225204   -3.653545
     78          1           0        6.760221    6.968393   -1.836711
     79          1           0        5.760546    6.333253   -3.156930
     80         12           0       -8.205594   -0.407346   -0.144900
     81          6           0       -5.776465    1.923279    1.098707
     82          6           0      -10.597113    1.893037    0.644728
     83          6           0      -10.396758   -2.603426   -0.810841
     84          6           0       -5.799821   -2.901025    0.228602
     85          7           0       -8.078732    1.611139    0.750580
     86          6           0       -7.097201    2.417635    1.125411
     87          6           0       -7.549044    3.860512    1.476836
     88          6           0       -9.080623    3.549617    1.846283
     89          6           0       -9.284908    2.292237    1.003709
     90          6           0       -9.285060    3.184106    3.307085
     91          6           0       -7.440079    4.835860    0.252571
     92          6           0       -7.568958    6.320645    0.599772
     93          1           0       -6.773317    7.283863   -0.156305
     94          7           0      -10.138211   -0.211337   -0.551308
     95          6           0      -10.951373    0.796656   -0.171830
     96          6           0      -12.281381    0.462926   -0.704620
     97          6           0      -12.223182   -0.904736   -1.288435
     98          6           0      -10.893518   -1.309903   -0.878643
     99          6           0      -13.426369    1.433719   -0.701234
    100          6           0      -13.206857   -1.718752   -2.073262
    101          8           0      -13.034499   -2.972802   -2.274445
    102          6           0      -14.423799   -1.024927   -2.519533
    103          7           0       -8.186330   -2.485089   -0.074424
    104          6           0       -9.255157   -3.200082   -0.467266
    105          6           0       -8.915258   -4.666245   -0.590573
    106          6           0       -7.326322   -4.753754   -0.431721
    107          6           0       -7.018737   -3.268128   -0.142393
    108          6           0       -9.580057   -5.591253    0.428641
    109          6           0       -6.543164   -5.462541   -1.570557
    110          6           0       -6.625592   -4.645382   -2.839755
    111          7           0       -6.105681   -0.479819    0.358228
    112          6           0       -5.297882   -1.631254    0.483763
    113          6           0       -3.970962   -1.183049    0.953701
    114          6           0       -4.106844    0.206514    1.092114
    115          6           0       -5.431303    0.594307    0.753099
    116          6           0       -2.860868   -2.026999    1.239256
    117          6           0       -3.434109    1.432140    1.458117
    118          8           0       -2.277483    1.734923    1.748409
    119          6           0       -4.521654    2.582563    1.600113
    120          6           0       -4.019872    3.790374    0.857187
    121          8           0       -3.882486    3.760365   -0.378463
    122          8           0       -3.992711    4.843040    1.694758
    123          6           0       -3.512206    6.067644    1.001037
    124          1           0      -11.439735    2.445790    1.061074
    125          1           0      -11.081571   -3.389243   -1.137954
    126          1           0       -4.966816   -3.605715    0.275400
    127          1           0       -7.043162    4.300338    2.327965
    128          1           0       -9.738089    4.346266    1.508007
    129          1           0       -8.346756    3.078249    3.831036
    130          1           0       -9.824002    2.245718    3.302884
    131          1           0       -9.947145    3.909751    3.788137
    132          1           0       -8.326906    4.713760   -0.382542
    133          1           0       -6.528530    4.668881   -0.287635
    134          1           0       -7.470399    6.502133    1.676941
    135          1           0       -8.585768    6.644869    0.365291
    136          1           0      -13.218896    2.298174   -0.058538
    137          1           0      -14.270288    0.931120   -0.216398
    138          1           0      -13.725475    1.735771   -1.707205
    139          1           0      -14.952657   -0.631130   -1.654838
    140          1           0      -14.960396   -1.745690   -3.139565
    141          1           0      -14.131313   -0.162672   -3.129114
    142          1           0       -9.192381   -5.046760   -1.566028
    143          1           0       -7.037175   -5.315647    0.468555
    144          1           0      -10.172411   -6.400881   -0.037944
    145          1           0      -10.202369   -4.991221    1.079191
    146          1           0       -8.899959   -6.066589    1.133428
    147          1           0       -6.995751   -6.431452   -1.795303
    148          1           0       -5.500408   -5.642007   -1.330881
    149          1           0       -7.587997   -4.945907   -3.264661
    150          1           0       -5.804074   -4.893133   -3.508905
    151          1           0       -6.684620   -3.574107   -2.614964
    152          1           0       -1.988097   -1.547029    0.816882
    153          1           0       -3.004208   -3.024711    0.829634
    154          1           0       -2.889596   -2.023944    2.332160
    155          1           0       -4.651166    2.781354    2.664671
    156          1           0       -2.659846    6.445746    1.573938
    157          1           0       -4.395084    6.728740    0.916060
    158          1           0       -3.070016    5.946549    0.019071
 ---------------------------------------------------------------------

 SCF Done:  E(RCAM-B3LYP) =  -4069.81147440     A.U. after   19 cycles

 Excitation energies and oscillator strengths:

 Excited State   1:      Singlet-A      1.6747 eV  740.33 nm  f=0.3508  <S**2>=0.000
     309 -> 315        0.16227
     311 -> 313        0.64223
     312 -> 314        0.24141
 This state for optimization and/or second-order correction.
 Total Energy, E(TD-HF/TD-DFT) =  -4069.74993016
 Copying the excited state density for this state as the 1-particle RhoCI density.

 Excited State   2:      Singlet-A      1.6807 eV  737.68 nm  f=0.4337  <S**2>=0.000
     310 -> 316        0.16431
     311 -> 313       -0.24127
     312 -> 314        0.64179

 Excited State   3:      Singlet-A      2.1854 eV  567.33 nm  f=0.0426  <S**2>=0.000
     309 -> 313        0.61235
     310 -> 314       -0.19546
     311 -> 315       -0.25988

 Excited State   4:      Singlet-A      2.1922 eV  565.57 nm  f=0.1490  <S**2>=0.000
     309 -> 313        0.19431
     310 -> 314        0.61044
     312 -> 316       -0.26499

 Excited State   5:      Singlet-A      2.7238 eV  455.19 nm  f=0.0000  <S**2>=0.000
     312 -> 313        0.70678

 The electronic state is 1-A.
 Alpha  occ. eigenvalues --  -46.87592 -46.87523 -19.26263 -19.25996 -19.19057
 Alpha  occ. eigenvalues --  -19.18708 -19.18652 -19.18574 -19.17969 -19.17907
 Alpha  occ. eigenvalues --  -14.42432 -14.42180 -14.41292 -14.41191 -14.39284
 Alpha  occ. eigenvalues --  -14.39133 -14.38528 -14.38315 -10.38993 -10.38775
 Alpha  occ. eigenvalues --  -10.35330 -10.35209 -10.34147 -10.34125 -10.31673
 Alpha  occ. eigenvalues --  -10.31404 -10.31241 -10.31137 -10.30960 -10.30637
 Alpha  occ. eigenvalues --  -10.30326 -10.30302 -10.30288 -10.30246 -10.30078
 Alpha  occ. eigenvalues --  -10.29959 -10.29825 -10.29671 -10.29371 -10.29370
 Alpha  occ. eigenvalues --  -10.29330 -10.28994 -10.28661 -10.28597 -10.28470
 Alpha  occ. eigenvalues --  -10.28336 -10.28244 -10.28095 -10.28086 -10.27929
 Alpha  occ. eigenvalues --  -10.27852 -10.27605 -10.27532 -10.27464 -10.27455
 Alpha  occ. eigenvalues --  -10.27415 -10.27408 -10.27397 -10.27324 -10.27315
 Alpha  occ. eigenvalues --  -10.27285 -10.27236 -10.27225 -10.27136 -10.26976
 Alpha  occ. eigenvalues --  -10.26887 -10.26627 -10.26382 -10.26360 -10.26176
 Alpha  occ. eigenvalues --  -10.26069 -10.26000 -10.25985 -10.25983 -10.25865
 Alpha  occ. eigenvalues --  -10.25766 -10.25761 -10.25607 -10.25346 -10.25246
 Alpha  occ. eigenvalues --  -10.24799 -10.24655 -10.24622 -10.24570 -10.24533
 Alpha  occ. eigenvalues --  -10.24477  -3.16341  -3.16265  -1.91224  -1.91146
 Alpha  occ. eigenvalues --   -1.90812  -1.90733  -1.90649  -1.90575  -1.16553
 Alpha  occ. eigenvalues --   -1.16341  -1.08574  -1.08363  -1.06977  -1.06905
 Alpha  occ. eigenvalues --   -1.06845  -1.06336  -1.04429  -1.04312  -1.03596
 Alpha  occ. eigenvalues --   -1.03501  -1.02970  -1.02970  -1.02148  -1.02042
 Alpha  occ. eigenvalues --   -0.91916  -0.91705  -0.89426  -0.89281  -0.89093
 Alpha  occ. eigenvalues --   -0.88916  -0.88155  -0.88054  -0.87717  -0.87618
 Alpha  occ. eigenvalues --   -0.87615  -0.87408  -0.87056  -0.87018  -0.84937
 Alpha  occ. eigenvalues --   -0.84712  -0.83809  -0.83709  -0.82869  -0.82727
 Alpha  occ. eigenvalues --   -0.82590  -0.82387  -0.81521  -0.81318  -0.80372
 Alpha  occ. eigenvalues --   -0.80333  -0.78568  -0.78541  -0.77080  -0.76968
 Alpha  occ. eigenvalues --   -0.76832  -0.76674  -0.75773  -0.75663  -0.74739
 Alpha  occ. eigenvalues --   -0.74666  -0.72629  -0.72519  -0.71517  -0.71421
 Alpha  occ. eigenvalues --   -0.69691  -0.69685  -0.68764  -0.68609  -0.67533
 Alpha  occ. eigenvalues --   -0.67383  -0.67137  -0.66942  -0.65207  -0.65014
 Alpha  occ. eigenvalues --   -0.64701  -0.64593  -0.64584  -0.64362  -0.64136
 Alpha  occ. eigenvalues --   -0.64028  -0.62201  -0.62028  -0.60274  -0.60192
 Alpha  occ. eigenvalues --   -0.59734  -0.59536  -0.58924  -0.58731  -0.58355
 Alpha  occ. eigenvalues --   -0.58246  -0.57474  -0.57313  -0.57167  -0.57058
 Alpha  occ. eigenvalues --   -0.56134  -0.56054  -0.55812  -0.55703  -0.55383
 Alpha  occ. eigenvalues --   -0.55268  -0.55177  -0.55097  -0.54414  -0.54270
 Alpha  occ. eigenvalues --   -0.53852  -0.53621  -0.53160  -0.53074  -0.53048
 Alpha  occ. eigenvalues --   -0.52958  -0.52828  -0.52648  -0.52608  -0.52500
 Alpha  occ. eigenvalues --   -0.52330  -0.52214  -0.51801  -0.51665  -0.51595
 Alpha  occ. eigenvalues --   -0.51345  -0.51128  -0.50940  -0.50415  -0.50325
 Alpha  occ. eigenvalues --   -0.49919  -0.49804  -0.49803  -0.49666  -0.49424
 Alpha  occ. eigenvalues --   -0.49255  -0.49133  -0.49039  -0.48954  -0.48838
 Alpha  occ. eigenvalues --   -0.48486  -0.48335  -0.48309  -0.48273  -0.48225
 Alpha  occ. eigenvalues --   -0.48193  -0.47529  -0.47441  -0.47053  -0.47048
 Alpha  occ. eigenvalues --   -0.46642  -0.46546  -0.46492  -0.46284  -0.46201
 Alpha  occ. eigenvalues --   -0.46105  -0.46013  -0.45910  -0.45746  -0.45564
 Alpha  occ. eigenvalues --   -0.45145  -0.44971  -0.44444  -0.44411  -0.44318
 Alpha  occ. eigenvalues --   -0.44257  -0.44063  -0.44009  -0.43899  -0.43872
 Alpha  occ. eigenvalues --   -0.43831  -0.43761  -0.43478  -0.43319  -0.43232
 Alpha  occ. eigenvalues --   -0.43129  -0.42855  -0.42824  -0.42773  -0.42487
 Alpha  occ. eigenvalues --   -0.42450  -0.42394  -0.41897  -0.41763  -0.41598
 Alpha  occ. eigenvalues --   -0.41447  -0.41395  -0.41267  -0.40927  -0.40889
 Alpha  occ. eigenvalues --   -0.40661  -0.40637  -0.40613  -0.40573  -0.40428
 Alpha  occ. eigenvalues --   -0.40334  -0.40167  -0.39941  -0.39357  -0.39220
 Alpha  occ. eigenvalues --   -0.38287  -0.38232  -0.37590  -0.37466  -0.37200
 Alpha  occ. eigenvalues --   -0.37133  -0.37077  -0.36986  -0.36685  -0.36438
 Alpha  occ. eigenvalues --   -0.36144  -0.35926  -0.34183  -0.34021  -0.33764
 Alpha  occ. eigenvalues --   -0.33465  -0.33105  -0.32920  -0.31211  -0.31104
 Alpha  occ. eigenvalues --   -0.30905  -0.30774  -0.29873  -0.29765  -0.29258
 Alpha  occ. eigenvalues --   -0.29186  -0.29137  -0.29057  -0.23968  -0.23814
 Alpha  occ. eigenvalues --   -0.21049  -0.20866
 Alpha virt. eigenvalues --   -0.08723  -0.08512  -0.01617  -0.01490   0.00037
 Alpha virt. eigenvalues --    0.00200   0.02283   0.02459   0.03311   0.03477
 Alpha virt. eigenvalues --    0.04792   0.04985   0.05259   0.05396   0.06243

 Mulliken charges:
               1
     1  Mg   0.840442
     2  C   -0.002247
     3  C   -0.093628
     4  C   -0.046075
     5  C   -0.064246
     6  N   -0.256705
     7  C   -0.052110
     8  C   -0.014252
     9  C   -0.087135
    10  C    0.046734
    11  C    0.104948
    12  C    0.053343
    13  C   -0.071594
    14  H    0.036232
    15  N   -0.433012
    16  C    0.168904
    17  C   -0.176904
    18  C   -0.003981
    19  C    0.148978
    20  C    0.110263
    21  C    0.012441
    22  O   -0.250275
    23  C    0.062300
    24  N   -0.341174
    25  C    0.041235
    26  C   -0.028015
    27  C   -0.023903
    28  C    0.074962
    29  C    0.076365
    30  C    0.035244
    31  C   -0.004461
    32  N   -0.310499
    33  C    0.080690
    34  C   -0.169697
    35  C    0.008288
    36  C    0.083513
    37  C    0.127263
    38  C    0.046430
    39  O   -0.188719
    40  C   -0.005542
    41  C    0.212516
    42  O   -0.255453
    43  O   -0.305231
    44  C    0.157720
    45  H   -0.018013
    46  H   -0.017389
    47  H   -0.041964
    48  H    0.000459
    49  H   -0.003980
    50  H    0.025192
    51  H    0.016155
    52  H    0.016175
    53  H    0.012438
    54  H    0.045366
    55  H    0.016988
    56  H    0.017818
    57  H    0.005762
    58  H    0.026148
    59  H    0.040161
    60  H    0.036964
    61  H    0.035015
    62  H    0.032375
    63  H    0.016207
    64  H    0.009020
    65  H    0.022681
    66  H    0.012443
    67  H    0.004356
    68  H    0.005649
    69  H    0.004508
    70  H    0.008317
    71  H    0.017710
    72  H    0.030107
    73  H    0.047701
    74  H    0.008796
    75  H    0.045504
    76  H    0.034595
    77  H    0.042203
    78  H    0.046167
    79  H    0.054412
    80  Mg   0.838061
    81  C   -0.016681
    82  C   -0.087845
    83  C   -0.045550
    84  C   -0.064935
    85  N   -0.254526
    86  C   -0.049878
    87  C   -0.015066
    88  C   -0.090470
    89  C    0.045710
    90  C    0.114454
    91  C    0.062533
    92  C   -0.077836
    93  H    0.035088
    94  N   -0.423442
    95  C    0.162891
    96  C   -0.174758
    97  C   -0.007877
    98  C    0.152080
    99  C    0.099431
   100  C    0.015534
   101  O   -0.253295
   102  C    0.061199
   103  N   -0.350107
   104  C    0.037474
   105  C   -0.019794
   106  C   -0.034834
   107  C    0.089006
   108  C    0.073734
   109  C    0.034720
   110  C   -0.007668
   111  N   -0.324230
   112  C    0.078629
   113  C   -0.162698
   114  C    0.002362
   115  C    0.096449
   116  C    0.131289
   117  C    0.042839
   118  O   -0.187477
   119  C    0.000684
   120  C    0.211432
   121  O   -0.250060
   122  O   -0.306080
   123  C    0.151913
   124  H   -0.019882
   125  H   -0.015691
   126  H   -0.040319
   127  H   -0.000903
   128  H   -0.004410
   129  H    0.022219
   130  H    0.014361
   131  H    0.016030
   132  H    0.013990
   133  H    0.038083
   134  H    0.020433
   135  H    0.019467
   136  H    0.008626
   137  H    0.025936
   138  H    0.039752
   139  H    0.038128
   140  H    0.036288
   141  H    0.033950
   142  H    0.014391
   143  H    0.012321
   144  H    0.025027
   145  H    0.011503
   146  H    0.005550
   147  H    0.006095
   148  H    0.003756
   149  H    0.010822
   150  H    0.018121
   151  H    0.030314
   152  H    0.046945
   153  H    0.008686
   154  H    0.046467
   155  H    0.034436
   156  H    0.043355
   157  H    0.049136
   158  H    0.054614
 Sum of Mulliken charges =  -0.00000

 Dipole moment (field-independent basis, Debye):
    X=             -2.0110    Y=              2.2782    Z=              5.4798  Tot=              6.2659
 Quadrupole moment (field-independent basis, Debye-Ang):
   XX=           -440.6334   YY=           -471.4560   ZZ=           -517.1498
   XY=            -31.5989   XZ=             13.7621   YZ=             35.9661

 Normal termination of Gaussian 16 at Sun Sep 12 01:39:36 2021.
