 Gaussian 16, Revision A.03,
 Gaussian 16:  ES64L-G16RevA.03 25-Dec-2016

 -----------------------------------
 #p cam-b3lyp/Def2SVP td=(nstates=5)
 -----------------------------------

 --------------------------------
 TDDFT excited states in gaussian
 --------------------------------
 Symbolic Z-matrix:
 Charge =  0 Multiplicity = 1

                         Standard orientation:
 ---------------------------------------------------------------------
 Center     Atomic      Atomic             Coordinates (Angstroms)
 Number     Number       Type             X           Y           Z
 ---------------------------------------------------------------------
      1         12           0        4.008973   -1.602494    0.509679
      2          6           0        5.021101    1.713568   -0.380007
      3          6           0        4.694016   -0.782103    3.750164
      4          6           0        3.557265   -4.649734    1.262616
      5          6           0        4.491280   -2.486156   -2.826814
      6          7           0        4.755699    0.261703    1.441244
      7          6           0        5.048272    1.479875    0.996690
      8          6           0        5.313517    2.506842    2.137899
      9          6           0        5.736771    1.494252    3.294409
     10          6           0        4.990014    0.259503    2.821469
     11          6           0        7.230406    1.186018    3.317834
     12          6           0        4.027314    3.312097    2.523873
     13          6           0        4.267836    4.550869    3.391599
     14          1           0        3.432734    5.724245    3.183896
     15          7           0        3.642158   -2.449889    2.256166
     16          6           0        3.977505   -1.967328    3.476806
     17          6           0        3.487169   -2.960521    4.456509
     18          6           0        3.008501   -4.149639    3.698241
     19          6           0        3.412872   -3.803569    2.359549
     20          6           0        3.459250   -2.714558    5.933829
     21          6           0        2.308560   -5.404218    4.115667
     22          8           0        2.191231   -6.409669    3.334721
     23          6           0        1.835143   -5.459328    5.510615
     24          7           0        4.230376   -3.378572   -0.564641
     25          6           0        3.911670   -4.558276   -0.020848
     26          6           0        3.880419   -5.645178   -1.054098
     27          6           0        4.007784   -4.914583   -2.468228
     28          6           0        4.181781   -3.459566   -1.967308
     29          6           0        4.973583   -6.715796   -0.932512
     30          6           0        2.902113   -5.207629   -3.513233
     31          6           0        1.586096   -4.628830   -3.043991
     32          7           0        4.469968   -0.558346   -1.336474
     33          6           0        4.646815   -1.127922   -2.605719
     34          6           0        5.050545   -0.039748   -3.515087
     35          6           0        5.096901    1.091612   -2.702855
     36          6           0        4.769986    0.728065   -1.365226
     37          6           0        5.376083   -0.182639   -4.892781
     38          6           0        5.370536    2.518523   -2.648941
     39          8           0        5.603347    3.389174   -3.488737
     40          6           0        5.451159    2.955829   -1.119859
     41          6           0        4.615207    4.195995   -0.957126
     42          8           0        3.375661    4.154693   -1.095643
     43          8           0        5.369601    5.175298   -0.435209
     44          6           0        4.592961    6.425472   -0.220621
     45          1           0        5.095699   -0.715925    4.763185
     46          1           0        3.302174   -5.693773    1.455874
     47          1           0        4.576959   -2.670938   -3.899179
     48          1           0        6.125766    3.206491    1.939990
     49          1           0        5.365821    1.811385    4.268855
     50          1           0        7.738973    1.613282    2.453702
     51          1           0        7.303411    0.098383    3.303191
     52          1           0        7.676726    1.503620    4.260545
     53          1           0        3.424331    2.718508    3.210986
     54          1           0        3.469893    3.599563    1.631701
     55          1           0        5.321870    4.829698    3.404819
     56          1           0        4.043125    4.291937    4.426326
     57          1           0        4.026653   -1.824356    6.202415
     58          1           0        4.002076   -3.534616    6.403460
     59          1           0        2.442193   -2.675660    6.324231
     60          1           0        2.683137   -5.331536    6.183760
     61          1           0        1.281160   -6.392776    5.603496
     62          1           0        1.170137   -4.614330    5.691437
     63          1           0        2.939107   -6.192040   -1.018067
     64          1           0        4.934041   -5.174786   -2.981079
     65          1           0        4.584755   -7.730546   -0.844199
     66          1           0        5.600733   -6.461609   -0.078485
     67          1           0        5.702055   -6.719334   -1.742902
     68          1           0        2.759087   -6.282104   -3.622747
     69          1           0        3.123510   -4.800267   -4.499788
     70          1           0        1.203097   -5.402422   -2.379386
     71          1           0        0.915554   -4.473770   -3.889887
     72          1           0        1.737246   -3.730408   -2.445261
     73          1           0        4.893779    0.648015   -5.407919
     74          1           0        5.035854   -1.141730   -5.282643
     75          1           0        6.462800   -0.110236   -4.852051
     76          1           0        6.502679    3.139332   -0.901331
     77          1           0        5.112489    7.221630   -0.753968
     78          1           0        4.471854    6.533864    0.857335
     79          1           0        3.610343    6.469369   -0.691654
     80         12           0       -4.741154    0.244439   -0.536307
     81          6           0       -2.365338    2.932606   -0.627572
     82          6           0       -5.703982    1.398025    2.525852
     83          6           0       -6.522647   -2.362572   -0.224536
     84          6           0       -2.848903   -1.327040   -3.005208
     85          7           0       -4.049643    1.953681    0.685400
     86          6           0       -3.183778    2.942442    0.521119
     87          6           0       -3.251666    4.044729    1.611955
     88          6           0       -3.896280    3.172005    2.795900
     89          6           0       -4.627868    2.125598    1.957770
     90          6           0       -2.861195    2.460396    3.651215
     91          6           0       -4.187317    5.235418    1.201108
     92          6           0       -4.060448    6.484473    2.076055
     93          1           0       -4.203383    7.793675    1.445160
     94          7           0       -6.264792   -0.132174    0.678305
     95          6           0       -6.515131    0.444290    1.872585
     96          6           0       -7.741446   -0.192411    2.377480
     97          6           0       -8.102772   -1.307442    1.460502
     98          6           0       -6.940466   -1.324247    0.595140
     99          6           0       -8.490440    0.318763    3.573781
    100          6           0       -9.291121   -2.217489    1.384023
    101          8           0       -9.286766   -3.270710    0.653601
    102          6           0      -10.425018   -1.890171    2.260752
    103          7           0       -4.582147   -1.674121   -1.321278
    104          6           0       -5.520202   -2.603977   -1.069617
    105          6           0       -5.341716   -3.812921   -1.956744
    106          6           0       -4.229725   -3.398654   -3.028868
    107          6           0       -3.878109   -1.991569   -2.497959
    108          6           0       -4.913141   -5.098912   -1.250383
    109          6           0       -4.606628   -3.550111   -4.528094
    110          6           0       -5.689001   -2.559007   -4.890823
    111          7           0       -3.043566    0.769867   -1.765197
    112          6           0       -2.394214   -0.046594   -2.716939
    113          6           0       -1.224166    0.707554   -3.211560
    114          6           0       -1.261143    1.910699   -2.490757
    115          6           0       -2.363960    1.898357   -1.594570
    116          6           0       -0.275789    0.240542   -4.164776
    117          6           0       -0.611882    3.183992   -2.276570
    118          8           0        0.318326    3.785677   -2.811758
    119          6           0       -1.224562    3.850210   -0.969992
    120          6           0       -1.549886    5.283819   -1.288475
    121          8           0       -2.432446    5.562129   -2.119290
    122          8           0       -0.922820    6.084208   -0.407270
    123          6           0       -1.223473    7.515840   -0.675329
    124          1           0       -5.923520    1.538423    3.584617
    125          1           0       -7.168328   -3.243742   -0.235451
    126          1           0       -2.265431   -1.707848   -3.846173
    127          1           0       -2.290547    4.437985    1.920801
    128          1           0       -4.603716    3.757090    3.377759
    129          1           0       -1.864858    2.564641    3.248010
    130          1           0       -3.156636    1.419453    3.665343
    131          1           0       -2.925888    2.806122    4.686884
    132          1           0       -5.228897    4.962142    1.413661
    133          1           0       -4.039286    5.498671    0.171824
    134          1           0       -3.162805    6.457240    2.705693
    135          1           0       -4.888055    6.493927    2.789485
    136          1           0       -7.896246    1.047106    4.139330
    137          1           0       -8.610433   -0.525899    4.260806
    138          1           0       -9.477755    0.708870    3.317493
    139          1           0      -10.091743   -1.886031    3.295823
    140          1           0      -11.211520   -2.600573    1.998813
    141          1           0      -10.760060   -0.871881    2.033926
    142          1           0       -6.261338   -4.049429   -2.477751
    143          1           0       -3.319967   -4.008691   -2.928781
    144          1           0       -5.609905   -5.941865   -1.417821
    145          1           0       -4.814750   -4.891140   -0.193178
    146          1           0       -3.918504   -5.458264   -1.508763
    147          1           0       -5.020213   -4.543980   -4.716081
    148          1           0       -3.765294   -3.418966   -5.200359
    149          1           0       -6.604650   -3.065702   -4.571552
    150          1           0       -5.694239   -2.372786   -5.962900
    151          1           0       -5.596611   -1.641103   -4.298737
    152          1           0       -0.087960    1.060855   -4.844712
    153          1           0       -0.641636   -0.638057   -4.692011
    154          1           0        0.563283    0.003649   -3.505155
    155          1           0       -0.478745    3.765719   -0.178660
    156          1           0       -0.263327    8.026112   -0.799577
    157          1           0       -1.865827    7.848028    0.161804
    158          1           0       -1.714407    7.758281   -1.610554
 ---------------------------------------------------------------------

 SCF Done:  E(RCAM-B3LYP) =  -4069.80852273     A.U. after   19 cycles

 Excitation energies and oscillator strengths:

 Excited State   1:      Singlet-A      1.6442 eV  754.07 nm  f=0.1120  <S**2>=0.000
     309 -> 315       -0.11553
     310 -> 316        0.11907
     311 -> 313       -0.47782
     312 -> 314        0.49387
 This state for optimization and/or second-order correction.
 Total Energy, E(TD-HF/TD-DFT) =  -4069.74809978
 Copying the excited state density for this state as the 1-particle RhoCI density.

 Excited State   2:      Singlet-A      1.7090 eV  725.47 nm  f=0.6115  <S**2>=0.000
     309 -> 315        0.13131
     310 -> 316        0.12601
     311 -> 313        0.49138
     312 -> 314        0.47570

 Excited State   3:      Singlet-A      2.1813 eV  568.39 nm  f=0.0024  <S**2>=0.000
     309 -> 313       -0.40755
     310 -> 314        0.49942
     311 -> 315        0.16966
     312 -> 316       -0.20948

 Excited State   4:      Singlet-A      2.1985 eV  563.95 nm  f=0.1666  <S**2>=0.000
     309 -> 313        0.49412
     310 -> 314        0.40213
     311 -> 315       -0.22071
     312 -> 316       -0.17921

 Excited State   5:      Singlet-A      2.3449 eV  528.73 nm  f=0.0000  <S**2>=0.000
     312 -> 313        0.70637

 The electronic state is 1-A.
 Alpha  occ. eigenvalues --  -46.87705 -46.87324 -19.25911 -19.25800 -19.18739
 Alpha  occ. eigenvalues --  -19.18693 -19.18409 -19.18404 -19.17856 -19.17252
 Alpha  occ. eigenvalues --  -14.42363 -14.42190 -14.41368 -14.41020 -14.39307
 Alpha  occ. eigenvalues --  -14.39008 -14.38478 -14.38226 -10.38615 -10.38501
 Alpha  occ. eigenvalues --  -10.35377 -10.35094 -10.34076 -10.33423 -10.31474
 Alpha  occ. eigenvalues --  -10.31287 -10.31277 -10.30950 -10.30802 -10.30712
 Alpha  occ. eigenvalues --  -10.30446 -10.30398 -10.30165 -10.30020 -10.29963
 Alpha  occ. eigenvalues --  -10.29868 -10.29829 -10.29530 -10.29517 -10.29186
 Alpha  occ. eigenvalues --  -10.29130 -10.29018 -10.28657 -10.28509 -10.28495
 Alpha  occ. eigenvalues --  -10.28469 -10.28228 -10.28033 -10.28018 -10.27907
 Alpha  occ. eigenvalues --  -10.27654 -10.27641 -10.27580 -10.27513 -10.27478
 Alpha  occ. eigenvalues --  -10.27434 -10.27433 -10.27359 -10.27268 -10.27266
 Alpha  occ. eigenvalues --  -10.27201 -10.27120 -10.27098 -10.27094 -10.26846
 Alpha  occ. eigenvalues --  -10.26646 -10.26469 -10.26418 -10.26367 -10.26283
 Alpha  occ. eigenvalues --  -10.26177 -10.26154 -10.25958 -10.25939 -10.25874
 Alpha  occ. eigenvalues --  -10.25676 -10.25620 -10.25413 -10.25384 -10.25118
 Alpha  occ. eigenvalues --  -10.24883 -10.24692 -10.24669 -10.24528 -10.24436
 Alpha  occ. eigenvalues --  -10.24334  -3.16449  -3.16075  -1.91330  -1.90958
 Alpha  occ. eigenvalues --   -1.90917  -1.90758  -1.90546  -1.90382  -1.16194
 Alpha  occ. eigenvalues --   -1.16130  -1.08280  -1.07817  -1.07144  -1.06669
 Alpha  occ. eigenvalues --   -1.06456  -1.06041  -1.04480  -1.04167  -1.03675
 Alpha  occ. eigenvalues --   -1.03323  -1.03131  -1.02689  -1.02311  -1.01753
 Alpha  occ. eigenvalues --   -0.91795  -0.91552  -0.89482  -0.89175  -0.89101
 Alpha  occ. eigenvalues --   -0.88901  -0.88248  -0.87921  -0.87729  -0.87589
 Alpha  occ. eigenvalues --   -0.87394  -0.87351  -0.87190  -0.86800  -0.84894
 Alpha  occ. eigenvalues --   -0.84722  -0.83912  -0.83580  -0.82911  -0.82646
 Alpha  occ. eigenvalues --   -0.82537  -0.82361  -0.81353  -0.81219  -0.80434
 Alpha  occ. eigenvalues --   -0.80096  -0.78696  -0.78285  -0.77152  -0.76858
 Alpha  occ. eigenvalues --   -0.76822  -0.76599  -0.75761  -0.75511  -0.74822
 Alpha  occ. eigenvalues --   -0.74487  -0.72672  -0.72343  -0.71563  -0.71254
 Alpha  occ. eigenvalues --   -0.69934  -0.69500  -0.68777  -0.68534  -0.67513
 Alpha  occ. eigenvalues --   -0.67228  -0.67143  -0.66924  -0.65179  -0.64963
 Alpha  occ. eigenvalues --   -0.64732  -0.64480  -0.64438  -0.64323  -0.64209
 Alpha  occ. eigenvalues --   -0.63888  -0.62009  -0.61892  -0.60365  -0.60012
 Alpha  occ. eigenvalues --   -0.59705  -0.59501  -0.58870  -0.58635  -0.58361
 Alpha  occ. eigenvalues --   -0.58041  -0.57352  -0.57100  -0.57045  -0.56855
 Alpha  occ. eigenvalues --   -0.56187  -0.55848  -0.55696  -0.55526  -0.55411
 Alpha  occ. eigenvalues --   -0.55213  -0.55122  -0.54900  -0.54300  -0.54135
 Alpha  occ. eigenvalues --   -0.53795  -0.53647  -0.53201  -0.53108  -0.52900
 Alpha  occ. eigenvalues --   -0.52820  -0.52721  -0.52681  -0.52564  -0.52398
 Alpha  occ. eigenvalues --   -0.52378  -0.52125  -0.51745  -0.51511  -0.51439
 Alpha  occ. eigenvalues --   -0.51374  -0.51043  -0.50771  -0.50524  -0.50205
 Alpha  occ. eigenvalues --   -0.50024  -0.49838  -0.49708  -0.49571  -0.49407
 Alpha  occ. eigenvalues --   -0.49193  -0.49034  -0.48979  -0.48868  -0.48700
 Alpha  occ. eigenvalues --   -0.48446  -0.48331  -0.48256  -0.48198  -0.48058
 Alpha  occ. eigenvalues --   -0.47857  -0.47583  -0.47256  -0.47181  -0.46810
 Alpha  occ. eigenvalues --   -0.46716  -0.46453  -0.46401  -0.46283  -0.46259
 Alpha  occ. eigenvalues --   -0.45990  -0.45940  -0.45722  -0.45602  -0.45417
 Alpha  occ. eigenvalues --   -0.45145  -0.44892  -0.44461  -0.44371  -0.44241
 Alpha  occ. eigenvalues --   -0.44089  -0.44077  -0.44002  -0.43809  -0.43796
 Alpha  occ. eigenvalues --   -0.43759  -0.43484  -0.43325  -0.43264  -0.43217
 Alpha  occ. eigenvalues --   -0.43041  -0.42898  -0.42687  -0.42563  -0.42465
 Alpha  occ. eigenvalues --   -0.42267  -0.42261  -0.41943  -0.41676  -0.41539
 Alpha  occ. eigenvalues --   -0.41443  -0.41192  -0.41145  -0.41026  -0.40820
 Alpha  occ. eigenvalues --   -0.40761  -0.40642  -0.40508  -0.40449  -0.40440
 Alpha  occ. eigenvalues --   -0.40181  -0.40177  -0.39992  -0.39497  -0.39175
 Alpha  occ. eigenvalues --   -0.38442  -0.38077  -0.37673  -0.37406  -0.37270
 Alpha  occ. eigenvalues --   -0.37162  -0.36967  -0.36887  -0.36446  -0.36372
 Alpha  occ. eigenvalues --   -0.35878  -0.35842  -0.34178  -0.33899  -0.33412
 Alpha  occ. eigenvalues --   -0.33303  -0.32954  -0.32819  -0.31268  -0.30971
 Alpha  occ. eigenvalues --   -0.30909  -0.30626  -0.29713  -0.29342  -0.29164
 Alpha  occ. eigenvalues --   -0.29142  -0.28966  -0.28739  -0.23971  -0.23685
 Alpha  occ. eigenvalues --   -0.21033  -0.20772
 Alpha virt. eigenvalues --   -0.08660  -0.08412  -0.01665  -0.01363   0.00054
 Alpha virt. eigenvalues --    0.00326   0.02393   0.02606   0.03048   0.03598
 Alpha virt. eigenvalues --    0.04793   0.05009   0.05558   0.05667   0.06233

 Mulliken charges:
               1
     1  Mg   0.837091
     2  C   -0.001630
     3  C   -0.094618
     4  C   -0.046112
     5  C   -0.065931
     6  N   -0.256351
     7  C   -0.053344
     8  C   -0.013220
     9  C   -0.086826
    10  C    0.045562
    11  C    0.104907
    12  C    0.053185
    13  C   -0.070982
    14  H    0.035292
    15  N   -0.433125
    16  C    0.167790
    17  C   -0.177726
    18  C   -0.004409
    19  C    0.148617
    20  C    0.110341
    21  C    0.012080
    22  O   -0.250150
    23  C    0.062652
    24  N   -0.341053
    25  C    0.040861
    26  C   -0.028106
    27  C   -0.023764
    28  C    0.075105
    29  C    0.076209
    30  C    0.035363
    31  C   -0.004928
    32  N   -0.311054
    33  C    0.078952
    34  C   -0.169851
    35  C    0.010671
    36  C    0.084000
    37  C    0.126422
    38  C    0.053315
    39  O   -0.184882
    40  C   -0.007459
    41  C    0.211146
    42  O   -0.243838
    43  O   -0.307045
    44  C    0.156600
    45  H   -0.018112
    46  H   -0.017425
    47  H   -0.042015
    48  H    0.001531
    49  H   -0.004978
    50  H    0.025731
    51  H    0.016339
    52  H    0.016138
    53  H    0.008897
    54  H    0.045903
    55  H    0.018336
    56  H    0.016451
    57  H    0.005303
    58  H    0.026529
    59  H    0.038396
    60  H    0.037143
    61  H    0.035413
    62  H    0.030952
    63  H    0.015757
    64  H    0.009733
    65  H    0.022907
    66  H    0.012864
    67  H    0.004623
    68  H    0.006333
    69  H    0.004672
    70  H    0.009019
    71  H    0.014419
    72  H    0.029450
    73  H    0.050563
    74  H    0.007741
    75  H    0.045831
    76  H    0.033946
    77  H    0.041390
    78  H    0.043270
    79  H    0.058434
    80  Mg   0.835972
    81  C   -0.016852
    82  C   -0.088160
    83  C   -0.045953
    84  C   -0.066411
    85  N   -0.253876
    86  C   -0.050513
    87  C   -0.014385
    88  C   -0.090360
    89  C    0.044724
    90  C    0.114559
    91  C    0.062790
    92  C   -0.076998
    93  H    0.034168
    94  N   -0.423187
    95  C    0.161830
    96  C   -0.175697
    97  C   -0.008672
    98  C    0.151447
    99  C    0.099831
   100  C    0.014895
   101  O   -0.254173
   102  C    0.061480
   103  N   -0.350244
   104  C    0.037087
   105  C   -0.019570
   106  C   -0.034972
   107  C    0.089952
   108  C    0.073732
   109  C    0.034937
   110  C   -0.007467
   111  N   -0.324541
   112  C    0.078678
   113  C   -0.166037
   114  C    0.004859
   115  C    0.094637
   116  C    0.131431
   117  C    0.047008
   118  O   -0.169611
   119  C    0.000502
   120  C    0.212078
   121  O   -0.252742
   122  O   -0.304515
   123  C    0.153133
   124  H   -0.021406
   125  H   -0.016458
   126  H   -0.041318
   127  H   -0.001115
   128  H   -0.005366
   129  H    0.021990
   130  H    0.013876
   131  H    0.013953
   132  H    0.013711
   133  H    0.038212
   134  H    0.019437
   135  H    0.018869
   136  H    0.007586
   137  H    0.024775
   138  H    0.038737
   139  H    0.037633
   140  H    0.035472
   141  H    0.033471
   142  H    0.013658
   143  H    0.012301
   144  H    0.024280
   145  H    0.012089
   146  H    0.005638
   147  H    0.005520
   148  H    0.002420
   149  H    0.010794
   150  H    0.017255
   151  H    0.030726
   152  H    0.047136
   153  H    0.004824
   154  H    0.052079
   155  H    0.041410
   156  H    0.040769
   157  H    0.047526
   158  H    0.053478
 Sum of Mulliken charges =  -0.00000

 Dipole moment (field-independent basis, Debye):
    X=              0.8620    Y=             -0.2391    Z=              7.7386  Tot=              7.7902
 Quadrupole moment (field-independent basis, Debye-Ang):
   XX=           -508.4970   YY=           -514.3932   ZZ=           -476.1164
   XY=            -24.4247   XZ=              3.0206   YZ=             57.0248

 Normal termination of Gaussian 16 at Fri Sep 10 02:19:23 2021.
