 Gaussian 16, Revision A.03,
 Gaussian 16:  ES64L-G16RevA.03 25-Dec-2016

 -----------------------------------
 #p cam-b3lyp/Def2SVP td=(nstates=5)
 -----------------------------------

 --------------------------------
 TDDFT excited states in gaussian
 --------------------------------
 Symbolic Z-matrix:
 Charge =  0 Multiplicity = 1

                         Standard orientation:
 ---------------------------------------------------------------------
 Center     Atomic      Atomic             Coordinates (Angstroms)
 Number     Number       Type             X           Y           Z
 ---------------------------------------------------------------------
      1         12           0       -6.519887   -0.745527   -0.155903
      2          6           0       -6.830572    1.958658    2.168548
      3          6           0       -7.359417    1.467202   -2.613969
      4          6           0       -6.696425   -3.200644   -2.155367
      5          6           0       -6.825182   -2.915414    2.554087
      6          7           0       -7.008035    1.413107   -0.104377
      7          6           0       -7.033123    2.346215    0.842117
      8          6           0       -7.220171    3.788396    0.283100
      9          6           0       -7.928455    3.432282   -1.100199
     10          6           0       -7.372295    2.034189   -1.305003
     11          6           0       -9.448199    3.346877   -1.002295
     12          6           0       -5.854431    4.519723    0.055842
     13          6           0       -5.952720    6.030483   -0.175022
     14          1           0       -4.904889    6.889587    0.355391
     15          7           0       -6.482590   -0.794959   -2.130496
     16          6           0       -6.843449    0.203053   -2.972540
     17          6           0       -6.636615   -0.322097   -4.339331
     18          6           0       -6.306954   -1.770006   -4.225414
     19          6           0       -6.510477   -1.988640   -2.816104
     20          6           0       -6.709184    0.531126   -5.568352
     21          6           0       -5.886919   -2.796497   -5.229416
     22          8           0       -5.875932   -4.046346   -4.960473
     23          6           0       -5.569201   -2.301747   -6.581200
     24          7           0       -6.949872   -2.770107    0.115799
     25          6           0       -6.901983   -3.629200   -0.908237
     26          6           0       -6.965265   -5.050234   -0.432218
     27          6           0       -6.821420   -4.990911    1.156978
     28          6           0       -6.780141   -3.452860    1.332943
     29          6           0       -8.238960   -5.823428   -0.800841
     30          6           0       -5.689594   -5.836665    1.792657
     31          6           0       -4.343310   -5.275567    1.392921
     32          7           0       -6.604461   -0.551732    2.004267
     33          6           0       -6.755889   -1.586728    2.938358
     34          6           0       -6.867785   -0.956774    4.266780
     35          6           0       -6.789802    0.410596    4.009754
     36          6           0       -6.665133    0.622483    2.606952
     37          6           0       -7.077847   -1.638993    5.497587
     38          6           0       -6.807550    1.742899    4.591569
     39          8           0       -6.797825    2.187693    5.740289
     40          6           0       -6.957178    2.802636    3.412419
     41          6           0       -5.932650    3.881001    3.637764
     42          8           0       -4.713012    3.634868    3.541486
     43          8           0       -6.546780    5.072679    3.695115
     44          6           0       -5.583580    6.189494    3.887788
     45          1           0       -7.839519    2.011379   -3.429637
     46          1           0       -6.652383   -4.081799   -2.798845
     47          1           0       -6.837662   -3.532449    3.454400
     48          1           0       -7.870867    4.426763    0.881018
     49          1           0       -7.603460    4.091072   -1.905243
     50          1           0       -9.785433    3.417928    0.031700
     51          1           0       -9.712917    2.376716   -1.423251
     52          1           0       -9.920150    4.090984   -1.644435
     53          1           0       -5.437286    4.212259   -0.903073
     54          1           0       -5.170336    4.325099    0.882559
     55          1           0       -6.936018    6.412662    0.100610
     56          1           0       -5.879877    6.217722   -1.246393
     57          1           0       -7.131515    1.511400   -5.350994
     58          1           0       -7.433152    0.065612   -6.236840
     59          1           0       -5.744542    0.611481   -6.069690
     60          1           0       -6.442109   -1.795104   -6.993383
     61          1           0       -5.202966   -3.163308   -7.138367
     62          1           0       -4.784524   -1.548363   -6.506078
     63          1           0       -6.145095   -5.637291   -0.843450
     64          1           0       -7.724850   -5.332895    1.662484
     65          1           0       -8.048521   -6.739746   -1.360126
     66          1           0       -8.890657   -5.152440   -1.359729
     67          1           0       -8.873828   -6.087956    0.044372
     68          1           0       -5.731216   -6.861997    1.426722
     69          1           0       -5.737319   -5.870805    2.881146
     70          1           0       -4.171559   -5.727172    0.416506
     71          1           0       -3.576675   -5.582302    2.105239
     72          1           0       -4.388814   -4.195877    1.249105
     73          1           0       -6.406801   -1.176314    6.221186
     74          1           0       -6.878440   -2.705736    5.398086
     75          1           0       -8.132770   -1.425621    5.669243
     76          1           0       -7.975079    3.187737    3.464357
     77          1           0       -5.897744    6.734309    4.778131
     78          1           0       -5.550632    6.736350    2.945308
     79          1           0       -4.567833    5.907250    4.166959
     80         12           0        6.696718   -0.534766    0.227207
     81          6           0        6.078407    1.916424   -2.320027
     82          6           0        8.223863    1.932147    2.020750
     83          6           0        7.651187   -2.756224    2.281845
     84          6           0        6.166755   -2.983399   -2.195402
     85          7           0        7.042841    1.607603   -0.200235
     86          6           0        6.708798    2.442147   -1.173005
     87          6           0        6.998462    3.936063   -0.866601
     88          6           0        8.159753    3.736950    0.224556
     89          6           0        7.771546    2.354588    0.745193
     90          6           0        9.548826    3.645053   -0.384846
     91          6           0        5.755472    4.672636   -0.254686
     92          6           0        5.865804    6.198497   -0.218275
     93          1           0        4.657323    6.989095   -0.435068
     94          7           0        7.334552   -0.364043    2.098730
     95          6           0        7.908989    0.716733    2.667251
     96          6           0        8.214386    0.327945    4.052796
     97          6           0        7.923687   -1.123336    4.207686
     98          6           0        7.638704   -1.483255    2.833155
     99          6           0        8.654050    1.313393    5.096357
    100          6           0        7.917325   -2.038796    5.394316
    101          8           0        7.867923   -3.312688    5.261713
    102          6           0        8.064795   -1.404522    6.712434
    103          7           0        7.091664   -2.565896    0.025065
    104          6           0        7.441043   -3.311388    1.088135
    105          6           0        7.404499   -4.784318    0.757177
    106          6           0        6.721280   -4.883699   -0.685360
    107          6           0        6.554924   -3.378897   -0.990790
    108          6           0        8.758223   -5.493547    0.728802
    109          6           0        5.477813   -5.805726   -0.813136
    110          6           0        4.323673   -5.227746   -0.026201
    111          7           0        6.031715   -0.571037   -1.828153
    112          6           0        5.906193   -1.702116   -2.664220
    113          6           0        5.530785   -1.211944   -4.006325
    114          6           0        5.486080    0.182977   -3.862526
    115          6           0        5.830397    0.538385   -2.530372
    116          6           0        5.329815   -2.019879   -5.160865
    117          6           0        5.236247    1.436247   -4.537514
    118          8           0        4.823895    1.755646   -5.651819
    119          6           0        5.731851    2.621716   -3.601862
    120          6           0        4.647230    3.662937   -3.557523
    121          8           0        3.547331    3.408055   -3.036109
    122          8           0        5.157937    4.847745   -3.939329
    123          6           0        4.122775    5.914887   -3.901165
    124          1           0        8.920350    2.572641    2.562561
    125          1           0        7.866575   -3.569681    2.978539
    126          1           0        5.887822   -3.689938   -2.980048
    127          1           0        7.372341    4.508013   -1.707359
    128          1           0        8.087913    4.476988    1.017356
    129          1           0        9.514017    3.610278   -1.463611
    130          1           0        9.983350    2.735664    0.009170
    131          1           0       10.176233    4.462425   -0.017999
    132          1           0        5.708413    4.461937    0.821483
    133          1           0        4.855135    4.387479   -0.763311
    134          1           0        6.684627    6.567698   -0.847700
    135          1           0        6.147282    6.502034    0.792986
    136          1           0        8.938924    2.273394    4.648434
    137          1           0        9.584271    0.928369    5.527987
    138          1           0        7.919051    1.437774    5.894466
    139          1           0        8.998593   -0.848150    6.743042
    140          1           0        7.946978   -2.210475    7.439379
    141          1           0        7.258632   -0.673677    6.841175
    142          1           0        6.797213   -5.326280    1.471723
    143          1           0        7.416407   -5.282313   -1.438846
    144          1           0        8.812644   -6.357885    1.417313
    145          1           0        9.527485   -4.770335    0.964860
    146          1           0        9.071125   -5.852425   -0.250222
    147          1           0        5.687909   -6.786997   -0.380537
    148          1           0        5.162997   -5.966668   -1.838797
    149          1           0        4.521571   -5.574196    0.992571
    150          1           0        3.376052   -5.613105   -0.397066
    151          1           0        4.364015   -4.132335   -0.015535
    152          1           0        4.440498   -1.646656   -5.651084
    153          1           0        5.228461   -3.070778   -4.897984
    154          1           0        6.258057   -1.819979   -5.702789
    155          1           0        6.656472    3.011663   -4.029160
    156          1           0        4.093203    6.367082   -4.897325
    157          1           0        4.403129    6.573018   -3.057358
    158          1           0        3.090816    5.607914   -3.777532
 ---------------------------------------------------------------------

 SCF Done:  E(RCAM-B3LYP) =  -4069.81187509     A.U. after   19 cycles

 Excitation energies and oscillator strengths:

 Excited State   1:      Singlet-A      1.6664 eV  744.05 nm  f=0.0364  <S**2>=0.000
     309 -> 315        0.13362
     310 -> 316        0.10762
     311 -> 313        0.53547
     312 -> 314        0.42977
 This state for optimization and/or second-order correction.
 Total Energy, E(TD-HF/TD-DFT) =  -4069.75063778
 Copying the excited state density for this state as the 1-particle RhoCI density.

 Excited State   2:      Singlet-A      1.6890 eV  734.09 nm  f=0.7126  <S**2>=0.000
     309 -> 315       -0.11085
     310 -> 316        0.13871
     311 -> 313       -0.42891
     312 -> 314        0.53432

 Excited State   3:      Singlet-A      2.1852 eV  567.38 nm  f=0.0423  <S**2>=0.000
     309 -> 313        0.61234
     310 -> 314       -0.19636
     311 -> 315       -0.25931

 Excited State   4:      Singlet-A      2.1936 eV  565.21 nm  f=0.1466  <S**2>=0.000
     309 -> 313        0.19483
     310 -> 314        0.60999
     312 -> 316       -0.26564

 Excited State   5:      Singlet-A      2.6782 eV  462.94 nm  f=0.0000  <S**2>=0.000
     312 -> 313        0.70706

 The electronic state is 1-A.
 Alpha  occ. eigenvalues --  -46.87582 -46.87578 -19.26334 -19.26128 -19.19130
 Alpha  occ. eigenvalues --  -19.18848 -19.18623 -19.18589 -19.18007 -19.17987
 Alpha  occ. eigenvalues --  -14.42418 -14.42240 -14.41281 -14.41245 -14.39269
 Alpha  occ. eigenvalues --  -14.39186 -14.38522 -14.38379 -10.39058 -10.38907
 Alpha  occ. eigenvalues --  -10.35299 -10.35220 -10.34208 -10.34184 -10.31765
 Alpha  occ. eigenvalues --  -10.31547 -10.31238 -10.31204 -10.30944 -10.30695
 Alpha  occ. eigenvalues --  -10.30364 -10.30321 -10.30303 -10.30287 -10.30058
 Alpha  occ. eigenvalues --  -10.30000 -10.29822 -10.29728 -10.29423 -10.29354
 Alpha  occ. eigenvalues --  -10.29324 -10.29040 -10.28648 -10.28586 -10.28544
 Alpha  occ. eigenvalues --  -10.28340 -10.28329 -10.28154 -10.28071 -10.27929
 Alpha  occ. eigenvalues --  -10.27917 -10.27591 -10.27587 -10.27518 -10.27442
 Alpha  occ. eigenvalues --  -10.27410 -10.27386 -10.27370 -10.27368 -10.27323
 Alpha  occ. eigenvalues --  -10.27304 -10.27275 -10.27232 -10.27199 -10.27004
 Alpha  occ. eigenvalues --  -10.26977 -10.26608 -10.26478 -10.26307 -10.26148
 Alpha  occ. eigenvalues --  -10.26056 -10.26055 -10.26017 -10.25969 -10.25857
 Alpha  occ. eigenvalues --  -10.25818 -10.25801 -10.25674 -10.25336 -10.25278
 Alpha  occ. eigenvalues --  -10.24804 -10.24634 -10.24631 -10.24614 -10.24586
 Alpha  occ. eigenvalues --  -10.24511  -3.16327  -3.16324  -1.91209  -1.91205
 Alpha  occ. eigenvalues --   -1.90798  -1.90792  -1.90635  -1.90635  -1.16624
 Alpha  occ. eigenvalues --   -1.16473  -1.08619  -1.08448  -1.06990  -1.06917
 Alpha  occ. eigenvalues --   -1.06875  -1.06472  -1.04417  -1.04372  -1.03584
 Alpha  occ. eigenvalues --   -1.03555  -1.03025  -1.02961  -1.02205  -1.02035
 Alpha  occ. eigenvalues --   -0.91921  -0.91774  -0.89418  -0.89329  -0.89080
 Alpha  occ. eigenvalues --   -0.88985  -0.88145  -0.88100  -0.87728  -0.87676
 Alpha  occ. eigenvalues --   -0.87607  -0.87466  -0.87045  -0.87032  -0.84927
 Alpha  occ. eigenvalues --   -0.84778  -0.83804  -0.83757  -0.82843  -0.82743
 Alpha  occ. eigenvalues --   -0.82579  -0.82445  -0.81549  -0.81406  -0.80398
 Alpha  occ. eigenvalues --   -0.80380  -0.78581  -0.78556  -0.77071  -0.77021
 Alpha  occ. eigenvalues --   -0.76838  -0.76747  -0.75780  -0.75735  -0.74736
 Alpha  occ. eigenvalues --   -0.74717  -0.72627  -0.72575  -0.71514  -0.71480
 Alpha  occ. eigenvalues --   -0.69727  -0.69678  -0.68755  -0.68670  -0.67530
 Alpha  occ. eigenvalues --   -0.67438  -0.67119  -0.67004  -0.65203  -0.65086
 Alpha  occ. eigenvalues --   -0.64703  -0.64660  -0.64590  -0.64429  -0.64130
 Alpha  occ. eigenvalues --   -0.64079  -0.62234  -0.62123  -0.60257  -0.60227
 Alpha  occ. eigenvalues --   -0.59724  -0.59600  -0.58923  -0.58791  -0.58359
 Alpha  occ. eigenvalues --   -0.58307  -0.57507  -0.57401  -0.57165  -0.57115
 Alpha  occ. eigenvalues --   -0.56136  -0.56109  -0.55840  -0.55803  -0.55384
 Alpha  occ. eigenvalues --   -0.55311  -0.55187  -0.55162  -0.54432  -0.54349
 Alpha  occ. eigenvalues --   -0.53840  -0.53692  -0.53155  -0.53097  -0.53074
 Alpha  occ. eigenvalues --   -0.53012  -0.52839  -0.52723  -0.52581  -0.52532
 Alpha  occ. eigenvalues --   -0.52321  -0.52259  -0.51829  -0.51732  -0.51583
 Alpha  occ. eigenvalues --   -0.51406  -0.51140  -0.51007  -0.50381  -0.50332
 Alpha  occ. eigenvalues --   -0.49902  -0.49841  -0.49791  -0.49702  -0.49410
 Alpha  occ. eigenvalues --   -0.49307  -0.49136  -0.49044  -0.49015  -0.48905
 Alpha  occ. eigenvalues --   -0.48502  -0.48408  -0.48314  -0.48278  -0.48258
 Alpha  occ. eigenvalues --   -0.48232  -0.47524  -0.47493  -0.47095  -0.47045
 Alpha  occ. eigenvalues --   -0.46638  -0.46602  -0.46481  -0.46353  -0.46199
 Alpha  occ. eigenvalues --   -0.46160  -0.46024  -0.45977  -0.45773  -0.45645
 Alpha  occ. eigenvalues --   -0.45138  -0.45018  -0.44457  -0.44403  -0.44393
 Alpha  occ. eigenvalues --   -0.44296  -0.44064  -0.44004  -0.43948  -0.43895
 Alpha  occ. eigenvalues --   -0.43865  -0.43816  -0.43508  -0.43319  -0.43316
 Alpha  occ. eigenvalues --   -0.43187  -0.42890  -0.42841  -0.42834  -0.42528
 Alpha  occ. eigenvalues --   -0.42476  -0.42474  -0.41888  -0.41822  -0.41607
 Alpha  occ. eigenvalues --   -0.41510  -0.41385  -0.41333  -0.40947  -0.40922
 Alpha  occ. eigenvalues --   -0.40672  -0.40642  -0.40615  -0.40598  -0.40420
 Alpha  occ. eigenvalues --   -0.40386  -0.40145  -0.40017  -0.39343  -0.39260
 Alpha  occ. eigenvalues --   -0.38282  -0.38276  -0.37581  -0.37543  -0.37191
 Alpha  occ. eigenvalues --   -0.37127  -0.37125  -0.37056  -0.36735  -0.36541
 Alpha  occ. eigenvalues --   -0.36153  -0.36008  -0.34179  -0.34081  -0.33822
 Alpha  occ. eigenvalues --   -0.33591  -0.33101  -0.32983  -0.31184  -0.31122
 Alpha  occ. eigenvalues --   -0.30898  -0.30832  -0.29913  -0.29848  -0.29247
 Alpha  occ. eigenvalues --   -0.29233  -0.29140  -0.29116  -0.23960  -0.23874
 Alpha  occ. eigenvalues --   -0.21040  -0.20921
 Alpha virt. eigenvalues --   -0.08715  -0.08564  -0.01604  -0.01541   0.00053
 Alpha virt. eigenvalues --    0.00160   0.02270   0.02394   0.03356   0.03393
 Alpha virt. eigenvalues --    0.04804   0.04920   0.05199   0.05272   0.06248

 Mulliken charges:
               1
     1  Mg   0.839932
     2  C   -0.002702
     3  C   -0.093522
     4  C   -0.045916
     5  C   -0.064141
     6  N   -0.256760
     7  C   -0.052389
     8  C   -0.014206
     9  C   -0.087173
    10  C    0.046708
    11  C    0.104896
    12  C    0.053317
    13  C   -0.071542
    14  H    0.035588
    15  N   -0.433173
    16  C    0.169020
    17  C   -0.176510
    18  C   -0.003628
    19  C    0.149025
    20  C    0.110103
    21  C    0.012731
    22  O   -0.250094
    23  C    0.062075
    24  N   -0.341166
    25  C    0.041328
    26  C   -0.028099
    27  C   -0.023849
    28  C    0.074779
    29  C    0.076311
    30  C    0.035220
    31  C   -0.004477
    32  N   -0.310348
    33  C    0.080316
    34  C   -0.170005
    35  C    0.008067
    36  C    0.083054
    37  C    0.127380
    38  C    0.045916
    39  O   -0.189289
    40  C   -0.005339
    41  C    0.212635
    42  O   -0.256695
    43  O   -0.304889
    44  C    0.157953
    45  H   -0.017723
    46  H   -0.017104
    47  H   -0.041953
    48  H    0.000425
    49  H   -0.003803
    50  H    0.025184
    51  H    0.016327
    52  H    0.016376
    53  H    0.012562
    54  H    0.044450
    55  H    0.017226
    56  H    0.018185
    57  H    0.005803
    58  H    0.026396
    59  H    0.041256
    60  H    0.036964
    61  H    0.035459
    62  H    0.033319
    63  H    0.016399
    64  H    0.009064
    65  H    0.022881
    66  H    0.012491
    67  H    0.004435
    68  H    0.005844
    69  H    0.004479
    70  H    0.008527
    71  H    0.017913
    72  H    0.029684
    73  H    0.047162
    74  H    0.008879
    75  H    0.045564
    76  H    0.034747
    77  H    0.042283
    78  H    0.046420
    79  H    0.053440
    80  Mg   0.838868
    81  C   -0.016683
    82  C   -0.087628
    83  C   -0.045432
    84  C   -0.064858
    85  N   -0.254599
    86  C   -0.049757
    87  C   -0.015248
    88  C   -0.090584
    89  C    0.046037
    90  C    0.114422
    91  C    0.062442
    92  C   -0.077784
    93  H    0.034622
    94  N   -0.423544
    95  C    0.163344
    96  C   -0.174413
    97  C   -0.007541
    98  C    0.152329
    99  C    0.099372
   100  C    0.015898
   101  O   -0.253212
   102  C    0.060984
   103  N   -0.350131
   104  C    0.037607
   105  C   -0.019825
   106  C   -0.034788
   107  C    0.088926
   108  C    0.073729
   109  C    0.034742
   110  C   -0.007735
   111  N   -0.324044
   112  C    0.078454
   113  C   -0.163226
   114  C    0.001877
   115  C    0.096367
   116  C    0.131551
   117  C    0.042200
   118  O   -0.188914
   119  C    0.000931
   120  C    0.210896
   121  O   -0.250705
   122  O   -0.305638
   123  C    0.152344
   124  H   -0.019722
   125  H   -0.015577
   126  H   -0.040566
   127  H   -0.001045
   128  H   -0.004184
   129  H    0.022239
   130  H    0.014385
   131  H    0.016140
   132  H    0.014723
   133  H    0.037933
   134  H    0.020327
   135  H    0.019834
   136  H    0.008732
   137  H    0.025985
   138  H    0.040518
   139  H    0.038043
   140  H    0.036473
   141  H    0.034657
   142  H    0.014501
   143  H    0.012179
   144  H    0.025057
   145  H    0.011535
   146  H    0.005504
   147  H    0.006025
   148  H    0.003643
   149  H    0.010863
   150  H    0.018174
   151  H    0.030473
   152  H    0.045495
   153  H    0.008676
   154  H    0.046604
   155  H    0.034727
   156  H    0.043170
   157  H    0.049704
   158  H    0.053123
 Sum of Mulliken charges =  -0.00000

 Dipole moment (field-independent basis, Debye):
    X=              1.1370    Y=              3.1110    Z=             -1.2466  Tot=              3.5391
 Quadrupole moment (field-independent basis, Debye-Ang):
   XX=           -456.1497   YY=           -460.9899   ZZ=           -539.9405
   XY=             12.1177   XZ=             38.5656   YZ=             -5.6551

 Normal termination of Gaussian 16 at Sat Sep 11 07:47:43 2021.
