 Gaussian 16, Revision A.03,
 Gaussian 16:  ES64L-G16RevA.03 25-Dec-2016

 -----------------------------------
 #p cam-b3lyp/Def2SVP td=(nstates=5)
 -----------------------------------

 --------------------------------
 TDDFT excited states in gaussian
 --------------------------------
 Symbolic Z-matrix:
 Charge =  0 Multiplicity = 1

                         Standard orientation:
 ---------------------------------------------------------------------
 Center     Atomic      Atomic             Coordinates (Angstroms)
 Number     Number       Type             X           Y           Z
 ---------------------------------------------------------------------
      1         12           0       -4.128051    0.443037   -0.161157
      2          6           0       -3.292678    3.877550   -0.725501
      3          6           0       -4.793600    0.210884   -3.499751
      4          6           0       -5.301006   -2.452281    0.384673
      5          6           0       -4.490629    1.238799    3.212411
      6          7           0       -4.017476    1.925209   -1.801762
      7          6           0       -3.625072    3.191826   -1.895946
      8          6           0       -3.527464    3.700747   -3.365247
      9          6           0       -4.543891    2.682544   -4.052369
     10          6           0       -4.419235    1.522143   -3.080847
     11          6           0       -5.988976    3.170632   -4.051702
     12          6           0       -2.083188    3.551610   -3.951386
     13          6           0       -1.823747    4.316896   -5.252302
     14          1           0       -0.509422    4.901994   -5.470378
     15          7           0       -4.465319   -1.057381   -1.401256
     16          6           0       -4.700063   -0.970509   -2.732660
     17          6           0       -4.890176   -2.359015   -3.204453
     18          6           0       -4.935177   -3.244140   -2.007531
     19          6           0       -4.928485   -2.271128   -0.945183
     20          6           0       -4.959961   -2.733516   -4.653118
     21          6           0       -4.988071   -4.730586   -1.846876
     22          8           0       -5.255171   -5.284490   -0.725973
     23          6           0       -4.803903   -5.530635   -3.071231
     24          7           0       -5.015048   -0.437796    1.510670
     25          6           0       -5.380628   -1.724354    1.500481
     26          6           0       -5.725127   -2.205025    2.878964
     27          6           0       -5.283772   -1.039160    3.876821
     28          6           0       -4.810789    0.000273    2.830811
     29          6           0       -7.201639   -2.549654    3.118035
     30          6           0       -4.316023   -1.424141    5.023848
     31          6           0       -2.966082   -1.796823    4.453003
     32          7           0       -3.764077    2.181677    1.086119
     33          6           0       -4.007838    2.298058    2.462240
     34          6           0       -3.707342    3.691869    2.837824
     35          6           0       -3.323033    4.297698    1.643201
     36          6           0       -3.405050    3.349680    0.583566
     37          6           0       -3.860472    4.257044    4.134574
     38          6           0       -2.885820    5.531864    1.011112
     39          8           0       -2.551143    6.644493    1.420429
     40          6           0       -2.965618    5.341701   -0.567905
     41          6           0       -1.671677    5.839946   -1.151667
     42          8           0       -0.597386    5.246508   -0.925625
     43          8           0       -1.932069    6.785436   -2.067520
     44          6           0       -0.692170    7.301429   -2.706703
     45          1           0       -5.255131    0.081809   -4.480704
     46          1           0       -5.606671   -3.469632    0.637664
     47          1           0       -4.499644    1.538096    4.262075
     48          1           0       -3.868589    4.725265   -3.514981
     49          1           0       -4.210372    2.382670   -5.045628
     50          1           0       -6.101727    4.081015   -3.463135
     51          1           0       -6.570038    2.359241   -3.612949
     52          1           0       -6.358941    3.287157   -5.070684
     53          1           0       -1.942770    2.530432   -4.305703
     54          1           0       -1.334956    3.835733   -3.210611
     55          1           0       -2.605792    5.051832   -5.445130
     56          1           0       -1.900954    3.614968   -6.082685
     57          1           0       -5.064620   -1.855441   -5.289179
     58          1           0       -5.889619   -3.284206   -4.795197
     59          1           0       -4.115885   -3.352238   -4.958161
     60          1           0       -5.574089   -5.263329   -3.795046
     61          1           0       -4.783309   -6.571443   -2.750067
     62          1           0       -3.849587   -5.264547   -3.526673
     63          1           0       -5.175940   -3.112882    3.125167
     64          1           0       -6.137411   -0.593013    4.387632
     65          1           0       -7.362377   -3.570841    3.464508
     66          1           0       -7.745926   -2.360210    2.193290
     67          1           0       -7.718582   -1.888525    3.813086
     68          1           0       -4.689996   -2.296488    5.558732
     69          1           0       -4.171893   -0.625497    5.751615
     70          1           0       -3.099123   -2.841952    4.175806
     71          1           0       -2.189735   -1.689818    5.211321
     72          1           0       -2.753359   -1.241851    3.539088
     73          1           0       -2.971683    4.863024    4.310103
     74          1           0       -3.968249    3.482725    4.893795
     75          1           0       -4.773453    4.835943    3.996015
     76          1           0       -3.820451    5.923700   -0.910923
     77          1           0       -0.685455    8.382582   -2.567788
     78          1           0       -0.689769    6.922608   -3.728904
     79          1           0        0.247809    7.026461   -2.226941
     80         12           0        3.474682   -1.758559    0.556410
     81          6           0        5.717664    1.040115    0.431936
     82          6           0        4.324597   -2.393086   -2.685444
     83          6           0        1.181136   -3.950002    0.488143
     84          6           0        1.978712   -0.259096    3.323972
     85          7           0        4.854568   -0.737562   -0.838477
     86          6           0        5.699492    0.279078   -0.755468
     87          6           0        6.631392    0.443034   -1.986010
     88          6           0        5.718137   -0.297769   -3.079657
     89          6           0        4.937220   -1.229602   -2.155259
     90          6           0        4.730720    0.630289   -3.767452
     91          6           0        8.006706   -0.287966   -1.795876
     92          6           0        9.080276    0.084954   -2.820638
     93          1           0       10.471274    0.146467   -2.380388
     94          7           0        3.186759   -3.277906   -0.687475
     95          6           0        3.621013   -3.380345   -1.961129
     96          6           0        3.130934   -4.678375   -2.450117
     97          6           0        2.232934   -5.260520   -1.415983
     98          6           0        2.147101   -4.151642   -0.486954
     99          6           0        3.583742   -5.282833   -3.747429
    100          6           0        1.552451   -6.590007   -1.291038
    101          8           0        0.627712   -6.794587   -0.427426
    102          6           0        1.934996   -7.616956   -2.271104
    103          7           0        1.687611   -1.962166    1.599141
    104          6           0        0.899705   -3.036450    1.417410
    105          6           0       -0.183555   -3.102323    2.467454
    106          6           0        0.189018   -1.976357    3.540296
    107          6           0        1.428506   -1.367815    2.848389
    108          6           0       -1.609923   -2.875869    1.966879
    109          6           0        0.316722   -2.429415    5.020532
    110          6           0        1.514712   -3.337446    5.180829
    111          7           0        3.881058   -0.042851    1.805121
    112          6           0        3.112050    0.420005    2.895287
    113          6           0        3.724604    1.683288    3.354980
    114          6           0        4.802412    1.881250    2.478834
    115          6           0        4.845576    0.827046    1.526835
    116          6           0        3.247326    2.500686    4.418080
    117          6           0        5.907072    2.747883    2.136247
    118          8           0        6.416325    3.747274    2.641827
    119          6           0        6.472955    2.308449    0.717423
    120          6           0        7.971158    2.223547    0.820903
    121          8           0        8.506964    1.371815    1.551702
    122          8           0        8.523165    3.011672   -0.119575
    123          6           0       10.008183    2.952593   -0.064211
    124          1           0        4.347460   -2.545470   -3.764862
    125          1           0        0.429665   -4.737904    0.577444
    126          1           0        1.630023    0.218177    4.242286
    127          1           0        6.812141    1.468410   -2.285535
    128          1           0        6.323543   -0.871515   -3.776559
    129          1           0        4.724797    1.613925   -3.321857
    130          1           0        3.761767    0.160519   -3.660210
    131          1           0        4.931611    0.664880   -4.842056
    132          1           0        7.882254   -1.352393   -2.033042
    133          1           0        8.385416   -0.135275   -0.803961
    134          1           0        8.815578    0.987314   -3.385110
    135          1           0        9.125130   -0.701425   -3.578018
    136          1           0        4.115760   -4.551268   -4.368044
    137          1           0        2.681635   -5.520953   -4.321343
    138          1           0        4.164345   -6.196959   -3.606248
    139          1           0        1.736728   -7.249570   -3.275191
    140          1           0        1.409165   -8.523394   -1.964931
    141          1           0        3.016453   -7.779627   -2.203346
    142          1           0       -0.188045   -4.067753    2.958402
    143          1           0       -0.571180   -1.182322    3.578316
    144          1           0       -2.293395   -3.713300    2.202768
    145          1           0       -1.573725   -2.703733    0.899357
    146          1           0       -2.088562   -1.968430    2.331110
    147          1           0       -0.557999   -3.014896    5.314197
    148          1           0        0.400963   -1.603744    5.719219
    149          1           0        1.126446   -4.314188    4.876994
    150          1           0        1.849709   -3.350500    6.216039
    151          1           0        2.311029   -3.066133    4.478032
    152          1           0        4.113418    2.801640    4.992370
    153          1           0        2.525416    1.969395    5.034804
    154          1           0        2.783449    3.310363    3.848427
    155          1           0        6.154536    3.057528   -0.008574
    156          1           0       10.364839    3.981020    0.048946
    157          1           0       10.319715    2.408832   -0.975806
    158          1           0       10.459000    2.476258    0.798530
 ---------------------------------------------------------------------

 SCF Done:  E(RCAM-B3LYP) =  -4069.79699259     A.U. after   19 cycles

 Excitation energies and oscillator strengths:

 Excited State   1:      Singlet-A      1.6341 eV  758.71 nm  f=0.0021  <S**2>=0.000
     309 -> 315       -0.11039
     310 -> 316        0.12052
     311 -> 313       -0.46310
     312 -> 314        0.50872
 This state for optimization and/or second-order correction.
 Total Energy, E(TD-HF/TD-DFT) =  -4069.73693881
 Copying the excited state density for this state as the 1-particle RhoCI density.

 Excited State   2:      Singlet-A      1.7108 eV  724.70 nm  f=0.6723  <S**2>=0.000
     309 -> 315        0.13599
     310 -> 316        0.12287
     311 -> 313        0.50543
     312 -> 314        0.46027

 Excited State   3:      Singlet-A      2.1784 eV  569.15 nm  f=0.0399  <S**2>=0.000
     309 -> 313       -0.31734
     310 -> 314        0.56311
     311 -> 315        0.12942
     312 -> 316       -0.23098

 Excited State   4:      Singlet-A      2.1981 eV  564.06 nm  f=0.1397  <S**2>=0.000
     309 -> 313        0.55603
     310 -> 314        0.31053
     311 -> 315       -0.24681
     312 -> 316       -0.14142

 Excited State   5:      Singlet-A      2.2208 eV  558.29 nm  f=0.0003  <S**2>=0.000
     312 -> 313        0.70543

 The electronic state is 1-A.
 Alpha  occ. eigenvalues --  -46.87888 -46.87365 -19.26316 -19.26113 -19.19053
 Alpha  occ. eigenvalues --  -19.18912 -19.18753 -19.18467 -19.18221 -19.17723
 Alpha  occ. eigenvalues --  -14.42554 -14.42211 -14.41603 -14.41066 -14.39488
 Alpha  occ. eigenvalues --  -14.39063 -14.38694 -14.38284 -10.39118 -10.38834
 Alpha  occ. eigenvalues --  -10.35382 -10.35152 -10.34444 -10.33899 -10.31701
 Alpha  occ. eigenvalues --  -10.31555 -10.31521 -10.31010 -10.30987 -10.30761
 Alpha  occ. eigenvalues --  -10.30680 -10.30611 -10.30358 -10.30086 -10.30074
 Alpha  occ. eigenvalues --  -10.30050 -10.29883 -10.29711 -10.29572 -10.29343
 Alpha  occ. eigenvalues --  -10.29152 -10.29103 -10.28840 -10.28654 -10.28492
 Alpha  occ. eigenvalues --  -10.28484 -10.28441 -10.28215 -10.28108 -10.27903
 Alpha  occ. eigenvalues --  -10.27869 -10.27835 -10.27699 -10.27689 -10.27649
 Alpha  occ. eigenvalues --  -10.27647 -10.27537 -10.27498 -10.27396 -10.27308
 Alpha  occ. eigenvalues --  -10.27218 -10.27191 -10.27186 -10.27184 -10.27066
 Alpha  occ. eigenvalues --  -10.26806 -10.26735 -10.26493 -10.26383 -10.26322
 Alpha  occ. eigenvalues --  -10.26274 -10.26268 -10.26179 -10.25958 -10.25945
 Alpha  occ. eigenvalues --  -10.25792 -10.25634 -10.25570 -10.25410 -10.24913
 Alpha  occ. eigenvalues --  -10.24908 -10.24877 -10.24661 -10.24572 -10.24546
 Alpha  occ. eigenvalues --  -10.24366  -3.16636  -3.16114  -1.91517  -1.91105
 Alpha  occ. eigenvalues --   -1.90997  -1.90946  -1.90586  -1.90422  -1.16666
 Alpha  occ. eigenvalues --   -1.16403  -1.08677  -1.08328  -1.07138  -1.06724
 Alpha  occ. eigenvalues --   -1.06694  -1.06676  -1.04680  -1.04208  -1.03886
 Alpha  occ. eigenvalues --   -1.03371  -1.03336  -1.02738  -1.02522  -1.01808
 Alpha  occ. eigenvalues --   -0.92062  -0.91683  -0.89745  -0.89292  -0.89239
 Alpha  occ. eigenvalues --   -0.88911  -0.88494  -0.87963  -0.87962  -0.87785
 Alpha  occ. eigenvalues --   -0.87450  -0.87398  -0.87305  -0.86885  -0.85079
 Alpha  occ. eigenvalues --   -0.84755  -0.84195  -0.83624  -0.83020  -0.82730
 Alpha  occ. eigenvalues --   -0.82694  -0.82414  -0.81666  -0.81327  -0.80675
 Alpha  occ. eigenvalues --   -0.80176  -0.78865  -0.78365  -0.77409  -0.77069
 Alpha  occ. eigenvalues --   -0.76887  -0.76649  -0.76026  -0.75583  -0.75120
 Alpha  occ. eigenvalues --   -0.74547  -0.72926  -0.72416  -0.71787  -0.71431
 Alpha  occ. eigenvalues --   -0.70547  -0.69217  -0.68915  -0.68586  -0.67721
 Alpha  occ. eigenvalues --   -0.67323  -0.67278  -0.66974  -0.65402  -0.65041
 Alpha  occ. eigenvalues --   -0.64977  -0.64777  -0.64537  -0.64461  -0.64369
 Alpha  occ. eigenvalues --   -0.63970  -0.62388  -0.62021  -0.60518  -0.60084
 Alpha  occ. eigenvalues --   -0.59896  -0.59533  -0.59104  -0.58704  -0.58613
 Alpha  occ. eigenvalues --   -0.58146  -0.57660  -0.57438  -0.57255  -0.56964
 Alpha  occ. eigenvalues --   -0.56393  -0.56045  -0.55926  -0.55674  -0.55644
 Alpha  occ. eigenvalues --   -0.55512  -0.55200  -0.55087  -0.54720  -0.54255
 Alpha  occ. eigenvalues --   -0.53992  -0.53686  -0.53381  -0.53258  -0.53058
 Alpha  occ. eigenvalues --   -0.52962  -0.52890  -0.52798  -0.52722  -0.52622
 Alpha  occ. eigenvalues --   -0.52464  -0.52225  -0.52014  -0.51677  -0.51500
 Alpha  occ. eigenvalues --   -0.51448  -0.51420  -0.50920  -0.50730  -0.50429
 Alpha  occ. eigenvalues --   -0.50273  -0.49989  -0.49812  -0.49690  -0.49551
 Alpha  occ. eigenvalues --   -0.49267  -0.49258  -0.49178  -0.48942  -0.48852
 Alpha  occ. eigenvalues --   -0.48722  -0.48583  -0.48439  -0.48369  -0.48240
 Alpha  occ. eigenvalues --   -0.48085  -0.47755  -0.47409  -0.47361  -0.47220
 Alpha  occ. eigenvalues --   -0.46855  -0.46665  -0.46569  -0.46458  -0.46364
 Alpha  occ. eigenvalues --   -0.46312  -0.46001  -0.45950  -0.45780  -0.45604
 Alpha  occ. eigenvalues --   -0.45380  -0.45163  -0.44625  -0.44444  -0.44345
 Alpha  occ. eigenvalues --   -0.44278  -0.44169  -0.44058  -0.43980  -0.43828
 Alpha  occ. eigenvalues --   -0.43795  -0.43673  -0.43561  -0.43496  -0.43296
 Alpha  occ. eigenvalues --   -0.43105  -0.43031  -0.42778  -0.42723  -0.42642
 Alpha  occ. eigenvalues --   -0.42498  -0.42346  -0.42060  -0.41748  -0.41716
 Alpha  occ. eigenvalues --   -0.41589  -0.41402  -0.41253  -0.41217  -0.40878
 Alpha  occ. eigenvalues --   -0.40802  -0.40770  -0.40579  -0.40506  -0.40447
 Alpha  occ. eigenvalues --   -0.40303  -0.40017  -0.39941  -0.39445  -0.39190
 Alpha  occ. eigenvalues --   -0.38570  -0.37945  -0.37845  -0.37462  -0.37417
 Alpha  occ. eigenvalues --   -0.37354  -0.36943  -0.36853  -0.36727  -0.36488
 Alpha  occ. eigenvalues --   -0.36267  -0.35938  -0.34391  -0.33952  -0.33814
 Alpha  occ. eigenvalues --   -0.33603  -0.33283  -0.32879  -0.31303  -0.31117
 Alpha  occ. eigenvalues --   -0.31021  -0.30662  -0.30083  -0.29627  -0.29503
 Alpha  occ. eigenvalues --   -0.29396  -0.29052  -0.28873  -0.24194  -0.23736
 Alpha  occ. eigenvalues --   -0.21238  -0.20811
 Alpha virt. eigenvalues --   -0.08862  -0.08497  -0.01865  -0.01384  -0.00077
 Alpha virt. eigenvalues --    0.00232   0.02112   0.02525   0.02835   0.03673
 Alpha virt. eigenvalues --    0.04593   0.05008   0.05060   0.05427   0.06029

 Mulliken charges:
               1
     1  Mg   0.831919
     2  C   -0.001879
     3  C   -0.094050
     4  C   -0.047885
     5  C   -0.062621
     6  N   -0.255449
     7  C   -0.053108
     8  C   -0.013791
     9  C   -0.087078
    10  C    0.046446
    11  C    0.104765
    12  C    0.053610
    13  C   -0.071532
    14  H    0.035484
    15  N   -0.433270
    16  C    0.170244
    17  C   -0.177589
    18  C   -0.001864
    19  C    0.151737
    20  C    0.110478
    21  C    0.016566
    22  O   -0.247944
    23  C    0.061790
    24  N   -0.340069
    25  C    0.040528
    26  C   -0.028359
    27  C   -0.024246
    28  C    0.070748
    29  C    0.076928
    30  C    0.073981
    31  C   -0.066643
    32  N   -0.309407
    33  C    0.073115
    34  C   -0.169199
    35  C    0.007383
    36  C    0.084171
    37  C    0.127289
    38  C    0.046343
    39  O   -0.187665
    40  C   -0.005679
    41  C    0.213013
    42  O   -0.256641
    43  O   -0.304905
    44  C    0.157389
    45  H   -0.017424
    46  H   -0.016705
    47  H   -0.042365
    48  H    0.001188
    49  H   -0.004247
    50  H    0.025757
    51  H    0.016607
    52  H    0.016775
    53  H    0.010783
    54  H    0.044419
    55  H    0.018263
    56  H    0.017434
    57  H    0.005347
    58  H    0.027237
    59  H    0.039733
    60  H    0.035670
    61  H    0.038231
    62  H    0.032600
    63  H    0.014583
    64  H    0.009984
    65  H    0.023665
    66  H    0.013483
    67  H    0.005035
    68  H    0.003930
    69  H   -0.001194
    70  H    0.014257
    71  H    0.027246
    72  H    0.066847
    73  H    0.047508
    74  H    0.008081
    75  H    0.046487
    76  H    0.035366
    77  H    0.043520
    78  H    0.045834
    79  H    0.054356
    80  Mg   0.838296
    81  C   -0.016187
    82  C   -0.088610
    83  C   -0.047954
    84  C   -0.062530
    85  N   -0.254381
    86  C   -0.048867
    87  C   -0.015161
    88  C   -0.090698
    89  C    0.045921
    90  C    0.114663
    91  C    0.062696
    92  C   -0.077392
    93  H    0.034213
    94  N   -0.423240
    95  C    0.162611
    96  C   -0.176562
    97  C   -0.008490
    98  C    0.150931
    99  C    0.100356
   100  C    0.013682
   101  O   -0.251906
   102  C    0.061589
   103  N   -0.350275
   104  C    0.040502
   105  C   -0.021126
   106  C   -0.037776
   107  C    0.092943
   108  C    0.108270
   109  C    0.009389
   110  C    0.010371
   111  N   -0.325023
   112  C    0.079960
   113  C   -0.159871
   114  C    0.003627
   115  C    0.097069
   116  C    0.130526
   117  C    0.043964
   118  O   -0.187373
   119  C    0.000327
   120  C    0.210936
   121  O   -0.251576
   122  O   -0.305447
   123  C    0.152263
   124  H   -0.021572
   125  H   -0.013747
   126  H   -0.040997
   127  H   -0.000688
   128  H   -0.005451
   129  H    0.024241
   130  H    0.014192
   131  H    0.014111
   132  H    0.013642
   133  H    0.037637
   134  H    0.020480
   135  H    0.018982
   136  H    0.007868
   137  H    0.023280
   138  H    0.039033
   139  H    0.036045
   140  H    0.036048
   141  H    0.033738
   142  H    0.009217
   143  H    0.005847
   144  H    0.032399
   145  H    0.006211
   146  H   -0.038539
   147  H    0.014848
   148  H    0.005125
   149  H    0.009378
   150  H    0.015571
   151  H    0.028999
   152  H    0.044757
   153  H    0.006531
   154  H    0.054226
   155  H    0.036793
   156  H    0.043626
   157  H    0.048936
   158  H    0.053233
 Sum of Mulliken charges =  -0.00000

 Dipole moment (field-independent basis, Debye):
    X=             -3.1043    Y=             -2.5724    Z=             -7.8390  Tot=              8.8149
 Quadrupole moment (field-independent basis, Debye-Ang):
   XX=           -501.7872   YY=           -554.7389   ZZ=           -449.7404
   XY=            -21.0389   XZ=            -31.5342   YZ=            -12.4624

 Normal termination of Gaussian 16 at Thu Sep  9 07:53:39 2021.
