 Gaussian 16, Revision A.03,
 Gaussian 16:  ES64L-G16RevA.03 25-Dec-2016

 -----------------------------------
 #p cam-b3lyp/Def2SVP td=(nstates=5)
 -----------------------------------

 --------------------------------
 TDDFT excited states in gaussian
 --------------------------------
 Symbolic Z-matrix:
 Charge =  0 Multiplicity = 1

                         Standard orientation:
 ---------------------------------------------------------------------
 Center     Atomic      Atomic             Coordinates (Angstroms)
 Number     Number       Type             X           Y           Z
 ---------------------------------------------------------------------
      1         12           0       -5.213435    1.072610    0.388384
      2          6           0       -5.908589   -1.468399   -2.034889
      3          6           0       -6.556738   -1.007620    2.735987
      4          6           0       -5.027546    3.467155    2.459186
      5          6           0       -4.990592    3.328740   -2.258479
      6          7           0       -6.086797   -0.956566    0.245808
      7          6           0       -6.239418   -1.844933   -0.731271
      8          6           0       -6.713529   -3.241209   -0.228273
      9          6           0       -7.406993   -2.795048    1.136295
     10          6           0       -6.613531   -1.529472    1.409534
     11          6           0       -8.879101   -2.427692    0.979938
     12          6           0       -5.517180   -4.217909    0.029676
     13          6           0       -5.901696   -5.689748    0.206286
     14          1           0       -5.006261   -6.714217   -0.309475
     15          7           0       -5.258200    1.064804    2.363424
     16          6           0       -5.834383    0.129942    3.156729
     17          6           0       -5.597472    0.573381    4.547382
     18          6           0       -5.002666    1.937763    4.494831
     19          6           0       -5.097795    2.225499    3.086450
     20          6           0       -5.881718   -0.282234    5.743575
     21          6           0       -4.447723    2.843407    5.548386
     22          8           0       -4.195099    4.076014    5.321591
     23          6           0       -4.288532    2.264731    6.894801
     24          7           0       -5.251421    3.147947    0.166637
     25          6           0       -5.093555    3.957439    1.219625
     26          6           0       -4.872936    5.377146    0.788697
     27          6           0       -4.669776    5.332086   -0.794480
     28          6           0       -4.903618    3.817822   -1.019406
     29          6           0       -5.998515    6.363028    1.130921
     30          6           0       -3.373973    5.969642   -1.355583
     31          6           0       -2.173371    5.159457   -0.920548
     32          7           0       -5.233100    0.951980   -1.778667
     33          6           0       -5.148936    2.020203   -2.683371
     34          6           0       -5.313629    1.455287   -4.035337
     35          6           0       -5.499925    0.091071   -3.820735
     36          6           0       -5.480689   -0.175295   -2.421817
     37          6           0       -5.338227    2.195203   -5.250390
     38          6           0       -5.735353   -1.199976   -4.446538
     39          8           0       -5.754854   -1.609974   -5.608009
     40          6           0       -6.130902   -2.242980   -3.310092
     41          6           0       -5.312590   -3.486194   -3.529395
     42          8           0       -4.074208   -3.472305   -3.375823
     43          8           0       -6.131825   -4.541955   -3.650898
     44          6           0       -5.382290   -5.812424   -3.841323
     45          1           0       -7.165462   -1.473908    3.513144
     46          1           0       -4.851972    4.308569    3.132709
     47          1           0       -4.848290    3.959804   -3.137661
     48          1           0       -7.442296   -3.733071   -0.872783
     49          1           0       -7.245730   -3.522530    1.931586
     50          1           0       -9.175916   -2.409234   -0.068624
     51          1           0       -8.980167   -1.436170    1.421710
     52          1           0       -9.508585   -3.087558    1.577521
     53          1           0       -5.095046   -4.017000    1.014308
     54          1           0       -4.771834   -4.132477   -0.761833
     55          1           0       -6.924775   -5.876500   -0.121344
     56          1           0       -5.913637   -5.914011    1.272946
     57          1           0       -6.466468   -1.161759    5.477026
     58          1           0       -6.537743    0.292216    6.397293
     59          1           0       -4.972234   -0.552100    6.280552
     60          1           0       -5.257583    1.918057    7.254391
     61          1           0       -3.796231    3.029485    7.494502
     62          1           0       -3.652941    1.381374    6.826573
     63          1           0       -3.978626    5.791942    1.251927
     64          1           0       -5.470918    5.847772   -1.324492
     65          1           0       -5.668875    7.214029    1.727445
     66          1           0       -6.787255    5.810318    1.640520
     67          1           0       -6.534610    6.761474    0.269956
     68          1           0       -3.243323    6.975494   -0.957918
     69          1           0       -3.364698    6.039280   -2.443386
     70          1           0       -1.966529    5.546910    0.076412
     71          1           0       -1.331630    5.336903   -1.590770
     72          1           0       -2.422909    4.103538   -0.814477
     73          1           0       -4.731121    1.634705   -5.961188
     74          1           0       -4.951093    3.203849   -5.107686
     75          1           0       -6.405402    2.184932   -5.471497
     76          1           0       -7.198743   -2.431809   -3.415828
     77          1           0       -5.750031   -6.267275   -4.761166
     78          1           0       -5.493538   -6.379382   -2.916885
     79          1           0       -4.320282   -5.715951   -4.069733
     80         12           0        5.152299   -1.027016    0.511976
     81          6           0        6.115281    1.306003   -2.039240
     82          6           0        6.666573    1.039423    2.763953
     83          6           0        4.716539   -3.270070    2.713400
     84          6           0        4.744702   -3.400599   -2.007092
     85          7           0        6.218229    0.896078    0.271694
     86          6           0        6.468382    1.717183   -0.737050
     87          6           0        7.061756    3.088936   -0.317837
     88          6           0        7.703272    2.653756    1.088561
     89          6           0        6.788288    1.476867    1.420842
     90          6           0        9.125664    2.133100    0.965831
     91          6           0        5.955985    4.186181   -0.129811
     92          6           0        6.483134    5.618860   -0.023622
     93          1           0        5.689365    6.697520   -0.605785
     94          7           0        5.177979   -0.904775    2.492632
     95          6           0        5.825549    0.011094    3.243042
     96          6           0        5.545710   -0.345034    4.642701
     97          6           0        4.815978   -1.641915    4.659847
     98          6           0        4.895208   -2.007501    3.259796
     99          6           0        5.892103    0.551985    5.795437
    100          6           0        4.166823   -2.429734    5.757192
    101          8           0        3.797991   -3.645251    5.585989
    102          6           0        4.060516   -1.767210    7.065333
    103          7           0        4.988812   -3.096742    0.402959
    104          6           0        4.749239   -3.830253    1.504090
    105          6           0        4.398214   -5.254434    1.145084
    106          6           0        4.214770   -5.264301   -0.443566
    107          6           0        4.595560   -3.799496   -0.751383
    108          6           0        5.424982   -6.313712    1.545155
    109          6           0        2.867941   -5.809016   -0.993135
    110          6           0        1.740680   -4.875625   -0.614399
    111          7           0        5.199642   -1.026419   -1.648069
    112          6           0        5.028433   -2.135421   -2.505312
    113          6           0        5.260366   -1.659506   -3.884498
    114          6           0        5.575510   -0.301011   -3.730722
    115          6           0        5.562109    0.040577   -2.351358
    116          6           0        5.216028   -2.461380   -5.059726
    117          6           0        5.926873    0.919245   -4.420821
    118          8           0        6.003363    1.258668   -5.600935
    119          6           0        6.415881    1.984235   -3.347015
    120          6           0        5.722442    3.287347   -3.636092
    121          8           0        4.489405    3.388765   -3.509854
    122          8           0        6.646688    4.251041   -3.801731
    123          6           0        6.007335    5.564696   -4.079848
    124          1           0        7.306121    1.497709    3.518836
    125          1           0        4.453755   -4.058045    3.422992
    126          1           0        4.540760   -4.056535   -2.856105
    127          1           0        7.833004    3.470533   -0.976122
    128          1           0        7.597637    3.440372    1.831157
    129          1           0        9.429594    2.030576   -0.065319
    130          1           0        9.129937    1.169914    1.459080
    131          1           0        9.809793    2.767220    1.536954
    132          1           0        5.508322    4.076370    0.866326
    133          1           0        5.224114    4.127456   -0.911825
    134          1           0        7.529960    5.697499   -0.341283
    135          1           0        6.500812    5.904853    1.030849
    136          1           0        6.568967    1.358713    5.488102
    137          1           0        6.482689   -0.044906    6.498849
    138          1           0        5.009000    0.934823    6.311417
    139          1           0        5.053698   -1.493173    7.413125
    140          1           0        3.489451   -2.452685    7.694532
    141          1           0        3.502054   -0.832859    6.939927
    142          1           0        3.465325   -5.551343    1.608410
    143          1           0        4.968656   -5.895286   -0.936868
    144          1           0        5.004880   -7.106016    2.193103
    145          1           0        6.251909   -5.818938    2.037017
    146          1           0        5.917532   -6.816373    0.714537
    147          1           0        2.636607   -6.775489   -0.538633
    148          1           0        2.865833   -5.950230   -2.068791
    149          1           0        1.493419   -5.188030    0.404602
    150          1           0        0.893178   -5.006981   -1.284116
    151          1           0        2.088990   -3.837383   -0.565511
    152          1           0        4.677717   -1.891492   -5.805344
    153          1           0        4.737879   -3.419945   -4.869181
    154          1           0        6.284870   -2.568997   -5.262851
    155          1           0        7.499467    2.067975   -3.438617
    156          1           0        6.429717    5.932972   -5.019872
    157          1           0        6.179674    6.178230   -3.175617
    158          1           0        4.947969    5.568160   -4.308278
 ---------------------------------------------------------------------

 SCF Done:  E(RCAM-B3LYP) =  -4069.81177656     A.U. after   19 cycles

 Excitation energies and oscillator strengths:

 Excited State   1:      Singlet-A      1.6566 eV  748.44 nm  f=0.0050  <S**2>=0.000
     309 -> 315       -0.11331
     310 -> 316        0.12525
     311 -> 313        0.51090
     312 -> 314       -0.45950
 This state for optimization and/or second-order correction.
 Total Energy, E(TD-HF/TD-DFT) =  -4069.75089881
 Copying the excited state density for this state as the 1-particle RhoCI density.

 Excited State   2:      Singlet-A      1.6955 eV  731.27 nm  f=0.7189  <S**2>=0.000
     309 -> 315        0.13338
     310 -> 316        0.11927
     311 -> 313        0.45796
     312 -> 314        0.50905

 Excited State   3:      Singlet-A      2.1830 eV  567.95 nm  f=0.0265  <S**2>=0.000
     309 -> 314        0.26503
     310 -> 313        0.58656
     311 -> 316       -0.24684
     312 -> 315       -0.11081

 Excited State   4:      Singlet-A      2.1932 eV  565.31 nm  f=0.1577  <S**2>=0.000
     309 -> 314        0.58345
     310 -> 313       -0.26252
     311 -> 316        0.11536
     312 -> 315       -0.25478

 Excited State   5:      Singlet-A      2.5801 eV  480.54 nm  f=0.0000  <S**2>=0.000
     312 -> 313        0.70710

 The electronic state is 1-A.
 Alpha  occ. eigenvalues --  -46.87619 -46.87509 -19.26251 -19.26179 -19.19049
 Alpha  occ. eigenvalues --  -19.18900 -19.18691 -19.18629 -19.18004 -19.17908
 Alpha  occ. eigenvalues --  -14.42354 -14.42279 -14.41272 -14.41206 -14.39231
 Alpha  occ. eigenvalues --  -14.39209 -14.38442 -14.38405 -10.38977 -10.38957
 Alpha  occ. eigenvalues --  -10.35328 -10.35310 -10.34225 -10.34086 -10.31683
 Alpha  occ. eigenvalues --  -10.31605 -10.31230 -10.31159 -10.30898 -10.30755
 Alpha  occ. eigenvalues --  -10.30387 -10.30330 -10.30246 -10.30202 -10.30032
 Alpha  occ. eigenvalues --  -10.29992 -10.29738 -10.29735 -10.29456 -10.29294
 Alpha  occ. eigenvalues --  -10.29253 -10.29083 -10.28610 -10.28605 -10.28569
 Alpha  occ. eigenvalues --  -10.28435 -10.28266 -10.28199 -10.28021 -10.27969
 Alpha  occ. eigenvalues --  -10.27853 -10.27618 -10.27556 -10.27526 -10.27418
 Alpha  occ. eigenvalues --  -10.27356 -10.27343 -10.27338 -10.27331 -10.27328
 Alpha  occ. eigenvalues --  -10.27302 -10.27273 -10.27238 -10.27224 -10.27010
 Alpha  occ. eigenvalues --  -10.26922 -10.26587 -10.26576 -10.26376 -10.26324
 Alpha  occ. eigenvalues --  -10.26098 -10.25933 -10.25918 -10.25892 -10.25829
 Alpha  occ. eigenvalues --  -10.25766 -10.25641 -10.25617 -10.25289 -10.25283
 Alpha  occ. eigenvalues --  -10.24722 -10.24657 -10.24619 -10.24547 -10.24391
 Alpha  occ. eigenvalues --  -10.24368  -3.16361  -3.16259  -1.91243  -1.91141
 Alpha  occ. eigenvalues --   -1.90830  -1.90729  -1.90672  -1.90566  -1.16542
 Alpha  occ. eigenvalues --   -1.16524  -1.08516  -1.08463  -1.07096  -1.06886
 Alpha  occ. eigenvalues --   -1.06833  -1.06522  -1.04413  -1.04354  -1.03586
 Alpha  occ. eigenvalues --   -1.03517  -1.03057  -1.02886  -1.02235  -1.01961
 Alpha  occ. eigenvalues --   -0.91845  -0.91807  -0.89323  -0.89321  -0.89040
 Alpha  occ. eigenvalues --   -0.89028  -0.88098  -0.88050  -0.87679  -0.87627
 Alpha  occ. eigenvalues --   -0.87540  -0.87506  -0.87122  -0.87004  -0.84876
 Alpha  occ. eigenvalues --   -0.84834  -0.83739  -0.83694  -0.82826  -0.82823
 Alpha  occ. eigenvalues --   -0.82531  -0.82502  -0.81468  -0.81442  -0.80443
 Alpha  occ. eigenvalues --   -0.80314  -0.78632  -0.78498  -0.77044  -0.77002
 Alpha  occ. eigenvalues --   -0.76782  -0.76758  -0.75773  -0.75711  -0.74726
 Alpha  occ. eigenvalues --   -0.74653  -0.72594  -0.72543  -0.71511  -0.71446
 Alpha  occ. eigenvalues --   -0.69687  -0.69548  -0.68722  -0.68700  -0.67481
 Alpha  occ. eigenvalues --   -0.67467  -0.67091  -0.67083  -0.65144  -0.65133
 Alpha  occ. eigenvalues --   -0.64689  -0.64623  -0.64520  -0.64459  -0.64080
 Alpha  occ. eigenvalues --   -0.64032  -0.62157  -0.62151  -0.60282  -0.60210
 Alpha  occ. eigenvalues --   -0.59666  -0.59648  -0.58847  -0.58818  -0.58337
 Alpha  occ. eigenvalues --   -0.58283  -0.57433  -0.57422  -0.57142  -0.57092
 Alpha  occ. eigenvalues --   -0.56144  -0.56062  -0.55853  -0.55772  -0.55372
 Alpha  occ. eigenvalues --   -0.55339  -0.55164  -0.55091  -0.54358  -0.54331
 Alpha  occ. eigenvalues --   -0.53793  -0.53749  -0.53141  -0.53093  -0.53073
 Alpha  occ. eigenvalues --   -0.53015  -0.52772  -0.52763  -0.52620  -0.52573
 Alpha  occ. eigenvalues --   -0.52208  -0.52172  -0.51714  -0.51701  -0.51546
 Alpha  occ. eigenvalues --   -0.51475  -0.51048  -0.51023  -0.50435  -0.50371
 Alpha  occ. eigenvalues --   -0.49857  -0.49844  -0.49769  -0.49699  -0.49378
 Alpha  occ. eigenvalues --   -0.49373  -0.49079  -0.49059  -0.48972  -0.48946
 Alpha  occ. eigenvalues --   -0.48440  -0.48431  -0.48315  -0.48288  -0.48239
 Alpha  occ. eigenvalues --   -0.48225  -0.47540  -0.47465  -0.47143  -0.46992
 Alpha  occ. eigenvalues --   -0.46618  -0.46556  -0.46432  -0.46413  -0.46184
 Alpha  occ. eigenvalues --   -0.46119  -0.45991  -0.45936  -0.45676  -0.45658
 Alpha  occ. eigenvalues --   -0.45053  -0.45025  -0.44421  -0.44392  -0.44348
 Alpha  occ. eigenvalues --   -0.44329  -0.44005  -0.43974  -0.43932  -0.43904
 Alpha  occ. eigenvalues --   -0.43866  -0.43827  -0.43415  -0.43343  -0.43255
 Alpha  occ. eigenvalues --   -0.43223  -0.42861  -0.42809  -0.42759  -0.42570
 Alpha  occ. eigenvalues --   -0.42455  -0.42379  -0.41814  -0.41781  -0.41539
 Alpha  occ. eigenvalues --   -0.41527  -0.41382  -0.41317  -0.40983  -0.40856
 Alpha  occ. eigenvalues --   -0.40718  -0.40683  -0.40628  -0.40562  -0.40384
 Alpha  occ. eigenvalues --   -0.40319  -0.40125  -0.40103  -0.39209  -0.39203
 Alpha  occ. eigenvalues --   -0.38288  -0.38193  -0.37609  -0.37537  -0.37137
 Alpha  occ. eigenvalues --   -0.37110  -0.37108  -0.37067  -0.36650  -0.36575
 Alpha  occ. eigenvalues --   -0.36069  -0.36033  -0.34111  -0.34104  -0.33743
 Alpha  occ. eigenvalues --   -0.33641  -0.33027  -0.33014  -0.31221  -0.31187
 Alpha  occ. eigenvalues --   -0.30869  -0.30833  -0.29863  -0.29811  -0.29284
 Alpha  occ. eigenvalues --   -0.29192  -0.29142  -0.29056  -0.23907  -0.23887
 Alpha  occ. eigenvalues --   -0.20968  -0.20951
 Alpha virt. eigenvalues --   -0.08648  -0.08603  -0.01579  -0.01540   0.00088
 Alpha virt. eigenvalues --    0.00091   0.02356   0.02373   0.03280   0.03478
 Alpha virt. eigenvalues --    0.04861   0.04874   0.05226   0.05281   0.06284

 Mulliken charges:
               1
     1  Mg   0.839449
     2  C   -0.003128
     3  C   -0.094069
     4  C   -0.045983
     5  C   -0.063185
     6  N   -0.256756
     7  C   -0.052415
     8  C   -0.014085
     9  C   -0.087014
    10  C    0.046241
    11  C    0.104890
    12  C    0.053466
    13  C   -0.071390
    14  H    0.034932
    15  N   -0.433000
    16  C    0.168370
    17  C   -0.177291
    18  C   -0.004346
    19  C    0.148643
    20  C    0.110225
    21  C    0.011867
    22  O   -0.250354
    23  C    0.062589
    24  N   -0.341257
    25  C    0.041338
    26  C   -0.027918
    27  C   -0.024093
    28  C    0.075173
    29  C    0.076381
    30  C    0.034978
    31  C   -0.004741
    32  N   -0.310723
    33  C    0.081085
    34  C   -0.168395
    35  C    0.008356
    36  C    0.083569
    37  C    0.127084
    38  C    0.046499
    39  O   -0.188378
    40  C   -0.005562
    41  C    0.212947
    42  O   -0.257171
    43  O   -0.304722
    44  C    0.158017
    45  H   -0.017987
    46  H   -0.017384
    47  H   -0.040798
    48  H    0.000659
    49  H   -0.004121
    50  H    0.025293
    51  H    0.016404
    52  H    0.016336
    53  H    0.011781
    54  H    0.043830
    55  H    0.017746
    56  H    0.018206
    57  H    0.005848
    58  H    0.026245
    59  H    0.039547
    60  H    0.037384
    61  H    0.034502
    62  H    0.031426
    63  H    0.016231
    64  H    0.009105
    65  H    0.022566
    66  H    0.012235
    67  H    0.004556
    68  H    0.005345
    69  H    0.005473
    70  H    0.007146
    71  H    0.021918
    72  H    0.029497
    73  H    0.048711
    74  H    0.009998
    75  H    0.045449
    76  H    0.034888
    77  H    0.042822
    78  H    0.046189
    79  H    0.052827
    80  Mg   0.838524
    81  C   -0.016992
    82  C   -0.087881
    83  C   -0.045677
    84  C   -0.063994
    85  N   -0.254541
    86  C   -0.049745
    87  C   -0.015174
    88  C   -0.090468
    89  C    0.045631
    90  C    0.114473
    91  C    0.062532
    92  C   -0.077563
    93  H    0.034114
    94  N   -0.423296
    95  C    0.162769
    96  C   -0.174860
    97  C   -0.008281
    98  C    0.151996
    99  C    0.099431
   100  C    0.015027
   101  O   -0.254080
   102  C    0.061382
   103  N   -0.350208
   104  C    0.037612
   105  C   -0.019513
   106  C   -0.034948
   107  C    0.089389
   108  C    0.073924
   109  C    0.034568
   110  C   -0.008238
   111  N   -0.324410
   112  C    0.079311
   113  C   -0.161616
   114  C    0.002218
   115  C    0.096883
   116  C    0.131272
   117  C    0.042869
   118  O   -0.187690
   119  C    0.000690
   120  C    0.211257
   121  O   -0.250828
   122  O   -0.305653
   123  C    0.152262
   124  H   -0.020110
   125  H   -0.016247
   126  H   -0.039525
   127  H   -0.000883
   128  H   -0.004498
   129  H    0.022288
   130  H    0.014351
   131  H    0.015923
   132  H    0.014271
   133  H    0.037601
   134  H    0.020631
   135  H    0.019659
   136  H    0.008686
   137  H    0.025530
   138  H    0.039529
   139  H    0.038331
   140  H    0.035063
   141  H    0.033685
   142  H    0.013967
   143  H    0.011967
   144  H    0.024310
   145  H    0.011289
   146  H    0.005452
   147  H    0.004826
   148  H    0.004578
   149  H    0.008614
   150  H    0.023603
   151  H    0.030552
   152  H    0.047318
   153  H    0.009636
   154  H    0.046302
   155  H    0.034720
   156  H    0.043741
   157  H    0.049259
   158  H    0.053100
 Sum of Mulliken charges =  -0.00000

 Dipole moment (field-independent basis, Debye):
    X=             -0.0170    Y=              0.0451    Z=              7.0055  Tot=              7.0057
 Quadrupole moment (field-independent basis, Debye-Ang):
   XX=           -463.5457   YY=           -467.8486   ZZ=           -540.2350
   XY=             27.0178   XZ=              1.4261   YZ=             -1.9911

 Normal termination of Gaussian 16 at Fri Sep 10 13:03:59 2021.
