 Gaussian 16, Revision A.03,
 Gaussian 16:  ES64L-G16RevA.03 25-Dec-2016

 -----------------------------------
 #p cam-b3lyp/Def2SVP td=(nstates=5)
 -----------------------------------

 --------------------------------
 TDDFT excited states in gaussian
 --------------------------------
 Symbolic Z-matrix:
 Charge =  0 Multiplicity = 1

                         Standard orientation:
 ---------------------------------------------------------------------
 Center     Atomic      Atomic             Coordinates (Angstroms)
 Number     Number       Type             X           Y           Z
 ---------------------------------------------------------------------
      1         12           0       -7.756265   -0.919710    0.218861
      2          6           0       -8.029136    2.647554    0.330139
      3          6           0       -8.690568   -0.740160   -3.058013
      4          6           0       -7.963710   -4.084135    0.217376
      5          6           0       -7.959429   -0.896237    3.697918
      6          7           0       -8.266244    0.794434   -1.085853
      7          6           0       -8.274149    2.115483   -0.937739
      8          6           0       -8.492997    2.885718   -2.274233
      9          6           0       -9.237030    1.745031   -3.103237
     10          6           0       -8.671800    0.524557   -2.398339
     11          6           0      -10.752288    1.755099   -2.928900
     12          6           0       -7.142455    3.297497   -2.951142
     13          6           0       -7.263852    4.326751   -4.078641
     14          1           0       -6.210566    5.317914   -4.238431
     15          7           0       -7.775506   -2.201674   -1.284152
     16          6           0       -8.171414   -1.952999   -2.555648
     17          6           0       -7.998446   -3.223508   -3.292243
     18          6           0       -7.649853   -4.279814   -2.301893
     19          6           0       -7.810169   -3.560384   -1.064114
     20          6           0       -8.115805   -3.333756   -4.781478
     21          6           0       -7.247831   -5.713455   -2.447441
     22          8           0       -7.215441   -6.515194   -1.452082
     23          6           0       -6.974726   -6.183273   -3.817743
     24          7           0       -8.156104   -2.317282    1.717045
     25          6           0       -8.128457   -3.629874    1.461462
     26          6           0       -8.162448   -4.433503    2.727544
     27          6           0       -7.973396   -3.388262    3.919804
     28          6           0       -7.943833   -2.083025    3.086885
     29          6           0       -9.437752   -5.253868    2.965480
     30          6           0       -6.814513   -3.656075    4.912619
     31          6           0       -5.486545   -3.484943    4.209546
     32          7           0       -7.780490    0.591703    1.776452
     33          6           0       -7.893561    0.377229    3.157716
     34          6           0       -7.973889    1.704075    3.795756
     35          6           0       -7.918289    2.603749    2.733052
     36          6           0       -7.836529    1.883943    1.506885
     37          6           0       -8.140841    1.951042    5.187003
     38          6           0       -7.933753    4.005245    2.346494
     39          8           0       -7.895691    5.073925    2.958024
     40          6           0       -8.128946    4.087577    0.768221
     41          6           0       -7.110160    5.057231    0.234222
     42          8           0       -5.891201    4.793547    0.278676
     43          8           0       -7.735342    6.025078   -0.453501
     44          6           0       -6.779219    7.004629   -1.035275
     45          1           0       -9.199948   -0.826286   -4.019811
     46          1           0       -7.928670   -5.174230    0.271254
     47          1           0       -7.939155   -0.808630    4.785744
     48          1           0       -9.133069    3.764415   -2.192845
     49          1           0       -8.942642    1.746805   -4.152548
     50          1           0      -11.060258    2.464576   -2.160968
     51          1           0      -11.018460    0.738960   -2.637170
     52          1           0      -11.250689    1.933464   -3.882084
     53          1           0       -6.749864    2.450855   -3.514285
     54          1           0       -6.432673    3.660151   -2.206818
     55          1           0       -8.242885    4.806748   -4.076428
     56          1           0       -7.224045    3.796968   -5.030453
     57          1           0       -8.542348   -2.431266   -5.217503
     58          1           0       -8.853665   -4.109236   -4.986178
     59          1           0       -7.166987   -3.596351   -5.249580
     60          1           0       -7.864656   -6.040705   -4.431134
     61          1           0       -6.615366   -7.206937   -3.718635
     62          1           0       -6.196472   -5.558331   -4.256739
     63          1           0       -7.348148   -5.156449    2.753823
     64          1           0       -8.858056   -3.326886    4.554063
     65          1           0       -9.253568   -6.319695    3.102571
     66          1           0      -10.112609   -5.078143    2.128235
     67          1           0      -10.045007   -4.921053    3.806844
     68          1           0       -6.855502   -4.682602    5.275261
     69          1           0       -6.830389   -2.996823    5.780598
     70          1           0       -5.338163   -4.452195    3.730758
     71          1           0       -4.696345   -3.282212    4.933214
     72          1           0       -5.547963   -2.736278    3.419473
     73          1           0       -7.454254    2.759532    5.437827
     74          1           0       -7.932765    1.057748    5.775504
     75          1           0       -9.192628    2.235133    5.216868
     76          1           0       -9.149062    4.429342    0.595936
     77          1           0       -7.073449    7.991487   -0.677821
     78          1           0       -6.779488    6.835756   -2.112255
     79          1           0       -5.752810    6.951255   -0.670617
     80         12           0        8.118596   -0.594737   -0.056748
     81          6           0        7.205863    2.869556    0.154545
     82          6           0        6.625080   -0.647065   -3.122901
     83          6           0        8.507436   -3.743633   -0.082354
     84          6           0        8.502170   -0.561601    3.406986
     85          7           0        7.084285    0.972421   -1.225712
     86          6           0        6.852400    2.267256   -1.070899
     87          6           0        6.278425    2.972791   -2.328811
     88          6           0        5.622736    1.693203   -3.044065
     89          6           0        6.517356    0.601668   -2.460203
     90          6           0        4.193020    1.424842   -2.604515
     91          6           0        7.400292    3.615669   -3.217720
     92          6           0        6.895151    4.581285   -4.292043
     93          1           0        7.708834    5.749894   -4.615696
     94          7           0        8.084383   -1.880728   -1.567921
     95          6           0        7.447313   -1.732412   -2.748347
     96          6           0        7.714131   -2.964208   -3.507076
     97          6           0        8.423295   -3.920679   -2.614348
     98          6           0        8.345727   -3.211169   -1.353128
     99          6           0        7.375776   -3.113139   -4.961978
    100          6           0        9.054192   -5.259001   -2.853217
    101          8           0        9.404788   -6.020787   -1.883890
    102          6           0        9.163981   -5.691372   -4.254110
    103          7           0        8.250129   -2.011536    1.459070
    104          6           0        8.472341   -3.307272    1.176887
    105          6           0        8.802840   -4.088702    2.426096
    106          6           0        8.994501   -2.996172    3.578147
    107          6           0        8.638391   -1.722355    2.780677
    108          6           0        7.757461   -5.113520    2.865765
    109          6           0       10.335486   -3.027143    4.361383
    110          6           0       11.475256   -2.634870    3.449003
    111          7           0        8.082681    0.905286    1.497832
    112          6           0        8.240974    0.699177    2.885834
    113          6           0        8.023844    2.002290    3.547027
    114          6           0        7.729262    2.878306    2.491412
    115          6           0        7.740739    2.166862    1.261284
    116          6           0        8.061790    2.239851    4.949965
    117          6           0        7.400765    4.240899    2.139104
    118          8           0        7.335843    5.305288    2.752768
    119          6           0        6.922873    4.269789    0.623454
    120          6           0        7.638208    5.398133   -0.067684
    121          8           0        8.872005    5.365086   -0.220220
    122          8           0        6.730102    6.220680   -0.623674
    123          6           0        7.391475    7.349800   -1.330423
    124          1           0        5.988838   -0.831381   -3.988990
    125          1           0        8.754059   -4.807230   -0.044665
    126          1           0        8.700259   -0.447730    4.474913
    127          1           0        5.516761    3.715832   -2.125077
    128          1           0        5.736785    1.742617   -4.123845
    129          1           0        3.892968    2.071096   -1.793053
    130          1           0        4.171006    0.389227   -2.291363
    131          1           0        3.515926    1.495285   -3.460610
    132          1           0        7.840904    2.838697   -3.855615
    133          1           0        8.135269    4.105079   -2.608698
    134          1           0        5.851375    4.873998   -4.125315
    135          1           0        6.876391    4.055733   -5.249888
    136          1           0        6.713307   -2.308978   -5.305272
    137          1           0        6.772183   -4.022106   -5.058485
    138          1           0        8.262046   -3.208791   -5.592892
    139          1           0        8.173403   -5.720548   -4.701732
    140          1           0        9.720876   -6.630006   -4.227457
    141          1           0        9.737705   -4.940069   -4.808189
    142          1           0        9.728488   -4.637921    2.305120
    143          1           0        8.233409   -3.096823    4.365837
    144          1           0        8.161641   -6.139818    2.951967
    145          1           0        6.935824   -5.086255    2.162416
    146          1           0        7.261470   -4.891645    3.809148
    147          1           0       10.549209   -4.041760    4.706399
    148          1           0       10.341071   -2.382423    5.233909
    149          1           0       11.712194   -3.570569    2.933814
    150          1           0       12.324119   -2.277408    4.028393
    151          1           0       11.143038   -1.916134    2.690907
    152          1           0        8.612911    3.159448    5.095236
    153          1           0        8.523806    1.410389    5.481304
    154          1           0        6.992475    2.319335    5.163320
    155          1           0        5.841234    4.409874    0.623618
    156          1           0        6.979889    8.273542   -0.912095
    157          1           0        7.224003    7.166617   -2.408448
    158          1           0        8.451956    7.494943   -1.160821
 ---------------------------------------------------------------------

 SCF Done:  E(RCAM-B3LYP) =  -4069.81167588     A.U. after   19 cycles

 Excitation energies and oscillator strengths:

 Excited State   1:      Singlet-A      1.6697 eV  742.56 nm  f=0.0146  <S**2>=0.000
     309 -> 315       -0.10486
     310 -> 316        0.13681
     311 -> 313       -0.41595
     312 -> 314        0.54598
 This state for optimization and/or second-order correction.
 Total Energy, E(TD-HF/TD-DFT) =  -4069.75031599
 Copying the excited state density for this state as the 1-particle RhoCI density.

 Excited State   2:      Singlet-A      1.6853 eV  735.68 nm  f=0.7416  <S**2>=0.000
     309 -> 315        0.14079
     310 -> 316        0.10662
     311 -> 313        0.54514
     312 -> 314        0.41540

 Excited State   3:      Singlet-A      2.1853 eV  567.34 nm  f=0.0600  <S**2>=0.000
     309 -> 313       -0.13741
     310 -> 314        0.62790
     312 -> 316       -0.26627

 Excited State   4:      Singlet-A      2.1928 eV  565.41 nm  f=0.1339  <S**2>=0.000
     309 -> 313        0.62589
     310 -> 314        0.13636
     311 -> 315       -0.27213

 Excited State   5:      Singlet-A      2.7564 eV  449.80 nm  f=0.0000  <S**2>=0.000
     312 -> 313        0.70709

 The electronic state is 1-A.
 Alpha  occ. eigenvalues --  -46.87856 -46.87584 -19.26334 -19.26256 -19.19073
 Alpha  occ. eigenvalues --  -19.19071 -19.18879 -19.18655 -19.18215 -19.17959
 Alpha  occ. eigenvalues --  -14.42510 -14.42420 -14.41506 -14.41284 -14.39463
 Alpha  occ. eigenvalues --  -14.39278 -14.38643 -14.38521 -10.39131 -10.39001
 Alpha  occ. eigenvalues --  -10.35513 -10.35334 -10.34435 -10.34135 -10.31727
 Alpha  occ. eigenvalues --  -10.31669 -10.31463 -10.31227 -10.30973 -10.30947
 Alpha  occ. eigenvalues --  -10.30626 -10.30563 -10.30321 -10.30282 -10.30264
 Alpha  occ. eigenvalues --  -10.30072 -10.29972 -10.29818 -10.29687 -10.29365
 Alpha  occ. eigenvalues --  -10.29327 -10.29314 -10.28819 -10.28635 -10.28630
 Alpha  occ. eigenvalues --  -10.28593 -10.28424 -10.28327 -10.28182 -10.28055
 Alpha  occ. eigenvalues --  -10.27924 -10.27848 -10.27787 -10.27644 -10.27594
 Alpha  occ. eigenvalues --  -10.27556 -10.27548 -10.27496 -10.27461 -10.27453
 Alpha  occ. eigenvalues --  -10.27418 -10.27404 -10.27395 -10.27310 -10.27209
 Alpha  occ. eigenvalues --  -10.26953 -10.26790 -10.26623 -10.26486 -10.26372
 Alpha  occ. eigenvalues --  -10.26293 -10.26226 -10.26080 -10.26074 -10.25916
 Alpha  occ. eigenvalues --  -10.25877 -10.25861 -10.25763 -10.25477 -10.25332
 Alpha  occ. eigenvalues --  -10.24886 -10.24843 -10.24792 -10.24732 -10.24677
 Alpha  occ. eigenvalues --  -10.24615  -3.16599  -3.16334  -1.91481  -1.91216
 Alpha  occ. eigenvalues --   -1.91067  -1.90909  -1.90805  -1.90642  -1.16682
 Alpha  occ. eigenvalues --   -1.16552  -1.08671  -1.08564  -1.07280  -1.06908
 Alpha  occ. eigenvalues --   -1.06857  -1.06693  -1.04641  -1.04417  -1.03818
 Alpha  occ. eigenvalues --   -1.03587  -1.03291  -1.02964  -1.02468  -1.02035
 Alpha  occ. eigenvalues --   -0.92027  -0.91904  -0.89571  -0.89423  -0.89255
 Alpha  occ. eigenvalues --   -0.89069  -0.88338  -0.88152  -0.87920  -0.87734
 Alpha  occ. eigenvalues --   -0.87713  -0.87609  -0.87338  -0.87058  -0.85048
 Alpha  occ. eigenvalues --   -0.84923  -0.83985  -0.83808  -0.83031  -0.82874
 Alpha  occ. eigenvalues --   -0.82711  -0.82579  -0.81639  -0.81514  -0.80654
 Alpha  occ. eigenvalues --   -0.80366  -0.78857  -0.78566  -0.77277  -0.77071
 Alpha  occ. eigenvalues --   -0.76994  -0.76821  -0.75981  -0.75756  -0.74948
 Alpha  occ. eigenvalues --   -0.74731  -0.72829  -0.72623  -0.71728  -0.71502
 Alpha  occ. eigenvalues --   -0.69955  -0.69693  -0.68937  -0.68752  -0.67698
 Alpha  occ. eigenvalues --   -0.67527  -0.67292  -0.67132  -0.65350  -0.65192
 Alpha  occ. eigenvalues --   -0.64909  -0.64694  -0.64678  -0.64576  -0.64321
 Alpha  occ. eigenvalues --   -0.64133  -0.62349  -0.62195  -0.60502  -0.60273
 Alpha  occ. eigenvalues --   -0.59867  -0.59716  -0.59042  -0.58916  -0.58559
 Alpha  occ. eigenvalues --   -0.58348  -0.57636  -0.57465  -0.57362  -0.57164
 Alpha  occ. eigenvalues --   -0.56366  -0.56129  -0.56034  -0.55805  -0.55580
 Alpha  occ. eigenvalues --   -0.55388  -0.55380  -0.55172  -0.54573  -0.54412
 Alpha  occ. eigenvalues --   -0.53962  -0.53833  -0.53357  -0.53285  -0.53156
 Alpha  occ. eigenvalues --   -0.53067  -0.52971  -0.52825  -0.52823  -0.52605
 Alpha  occ. eigenvalues --   -0.52485  -0.52338  -0.51958  -0.51800  -0.51684
 Alpha  occ. eigenvalues --   -0.51586  -0.51249  -0.51122  -0.50642  -0.50420
 Alpha  occ. eigenvalues --   -0.50084  -0.49982  -0.49908  -0.49800  -0.49578
 Alpha  occ. eigenvalues --   -0.49417  -0.49271  -0.49156  -0.49124  -0.49020
 Alpha  occ. eigenvalues --   -0.48646  -0.48517  -0.48500  -0.48477  -0.48305
 Alpha  occ. eigenvalues --   -0.48272  -0.47755  -0.47522  -0.47355  -0.47050
 Alpha  occ. eigenvalues --   -0.46853  -0.46635  -0.46622  -0.46479  -0.46414
 Alpha  occ. eigenvalues --   -0.46213  -0.46198  -0.46008  -0.45871  -0.45738
 Alpha  occ. eigenvalues --   -0.45252  -0.45138  -0.44630  -0.44570  -0.44434
 Alpha  occ. eigenvalues --   -0.44402  -0.44200  -0.44151  -0.44075  -0.44047
 Alpha  occ. eigenvalues --   -0.44010  -0.43868  -0.43546  -0.43473  -0.43446
 Alpha  occ. eigenvalues --   -0.43308  -0.43081  -0.42849  -0.42818  -0.42750
 Alpha  occ. eigenvalues --   -0.42704  -0.42487  -0.42064  -0.41894  -0.41758
 Alpha  occ. eigenvalues --   -0.41600  -0.41587  -0.41385  -0.41198  -0.40932
 Alpha  occ. eigenvalues --   -0.40910  -0.40890  -0.40658  -0.40628  -0.40623
 Alpha  occ. eigenvalues --   -0.40422  -0.40312  -0.40158  -0.39489  -0.39362
 Alpha  occ. eigenvalues --   -0.38523  -0.38281  -0.37821  -0.37583  -0.37374
 Alpha  occ. eigenvalues --   -0.37329  -0.37194  -0.37123  -0.36764  -0.36687
 Alpha  occ. eigenvalues --   -0.36246  -0.36141  -0.34343  -0.34176  -0.33823
 Alpha  occ. eigenvalues --   -0.33776  -0.33243  -0.33099  -0.31408  -0.31213
 Alpha  occ. eigenvalues --   -0.31093  -0.30896  -0.30074  -0.29862  -0.29508
 Alpha  occ. eigenvalues --   -0.29375  -0.29256  -0.29131  -0.24138  -0.23958
 Alpha  occ. eigenvalues --   -0.21185  -0.21041
 Alpha virt. eigenvalues --   -0.08832  -0.08716  -0.01808  -0.01610  -0.00120
 Alpha virt. eigenvalues --    0.00041   0.02150   0.02290   0.03050   0.03296
 Alpha virt. eigenvalues --    0.04654   0.04806   0.05047   0.05254   0.06101

 Mulliken charges:
               1
     1  Mg   0.838473
     2  C   -0.003058
     3  C   -0.094365
     4  C   -0.045843
     5  C   -0.063867
     6  N   -0.256753
     7  C   -0.052513
     8  C   -0.013962
     9  C   -0.086958
    10  C    0.046194
    11  C    0.104801
    12  C    0.053568
    13  C   -0.071652
    14  H    0.035741
    15  N   -0.433116
    16  C    0.168284
    17  C   -0.177361
    18  C   -0.004085
    19  C    0.148605
    20  C    0.110216
    21  C    0.012164
    22  O   -0.249520
    23  C    0.062573
    24  N   -0.341150
    25  C    0.041222
    26  C   -0.028188
    27  C   -0.024039
    28  C    0.074895
    29  C    0.076130
    30  C    0.035085
    31  C   -0.004520
    32  N   -0.310521
    33  C    0.080469
    34  C   -0.169492
    35  C    0.008496
    36  C    0.082985
    37  C    0.127255
    38  C    0.046282
    39  O   -0.187997
    40  C   -0.005377
    41  C    0.212977
    42  O   -0.257195
    43  O   -0.304770
    44  C    0.157614
    45  H   -0.017666
    46  H   -0.016779
    47  H   -0.041259
    48  H    0.001091
    49  H   -0.004265
    50  H    0.025590
    51  H    0.016535
    52  H    0.016655
    53  H    0.010774
    54  H    0.044036
    55  H    0.018154
    56  H    0.017697
    57  H    0.005770
    58  H    0.026906
    59  H    0.039038
    60  H    0.037411
    61  H    0.035669
    62  H    0.031035
    63  H    0.016566
    64  H    0.009609
    65  H    0.023286
    66  H    0.012551
    67  H    0.004867
    68  H    0.006484
    69  H    0.004906
    70  H    0.008743
    71  H    0.018285
    72  H    0.028828
    73  H    0.047921
    74  H    0.009248
    75  H    0.046144
    76  H    0.035261
    77  H    0.043253
    78  H    0.046147
    79  H    0.053778
    80  Mg   0.837879
    81  C   -0.016764
    82  C   -0.087796
    83  C   -0.045561
    84  C   -0.064861
    85  N   -0.254557
    86  C   -0.049577
    87  C   -0.015151
    88  C   -0.090588
    89  C    0.045832
    90  C    0.114373
    91  C    0.062565
    92  C   -0.077747
    93  H    0.034616
    94  N   -0.423454
    95  C    0.162865
    96  C   -0.174768
    97  C   -0.007938
    98  C    0.152088
    99  C    0.099471
   100  C    0.015479
   101  O   -0.253312
   102  C    0.061243
   103  N   -0.350044
   104  C    0.037522
   105  C   -0.019814
   106  C   -0.034839
   107  C    0.089001
   108  C    0.073672
   109  C    0.034741
   110  C   -0.007641
   111  N   -0.324169
   112  C    0.078583
   113  C   -0.163010
   114  C    0.002487
   115  C    0.096176
   116  C    0.131431
   117  C    0.042654
   118  O   -0.187449
   119  C    0.000805
   120  C    0.211197
   121  O   -0.251275
   122  O   -0.305333
   123  C    0.152114
   124  H   -0.019942
   125  H   -0.015717
   126  H   -0.040458
   127  H   -0.000132
   128  H   -0.004751
   129  H    0.023510
   130  H    0.014448
   131  H    0.015981
   132  H    0.013704
   133  H    0.037642
   134  H    0.021000
   135  H    0.019257
   136  H    0.008512
   137  H    0.025865
   138  H    0.039513
   139  H    0.038104
   140  H    0.036208
   141  H    0.033775
   142  H    0.014245
   143  H    0.012489
   144  H    0.024957
   145  H    0.011774
   146  H    0.005678
   147  H    0.006141
   148  H    0.003650
   149  H    0.010843
   150  H    0.017822
   151  H    0.030153
   152  H    0.045985
   153  H    0.008349
   154  H    0.047515
   155  H    0.035968
   156  H    0.044102
   157  H    0.049285
   158  H    0.053376
 Sum of Mulliken charges =  -0.00000

 Dipole moment (field-independent basis, Debye):
    X=             -4.4676    Y=             -3.0610    Z=             -7.0973  Tot=              8.9276
 Quadrupole moment (field-independent basis, Debye-Ang):
   XX=           -519.2525   YY=           -556.0589   ZZ=           -446.6645
   XY=             -7.6343   XZ=             15.6321   YZ=            -43.4926

 Normal termination of Gaussian 16 at Sun Sep 12 05:46:02 2021.
