 Gaussian 16, Revision A.03,
 Gaussian 16:  ES64L-G16RevA.03 25-Dec-2016

 -----------------------------------
 #p cam-b3lyp/Def2SVP td=(nstates=5)
 -----------------------------------

 --------------------------------
 TDDFT excited states in gaussian
 --------------------------------
 Symbolic Z-matrix:
 Charge =  0 Multiplicity = 1

                         Standard orientation:
 ---------------------------------------------------------------------
 Center     Atomic      Atomic             Coordinates (Angstroms)
 Number     Number       Type             X           Y           Z
 ---------------------------------------------------------------------
      1         12           0        6.471698   -0.940905    0.291972
      2          6           0        7.037702    1.953167   -1.736870
      3          6           0        7.655172    0.863859    2.934940
      4          6           0        6.409164   -3.610233    2.002936
      5          6           0        6.420966   -2.810605   -2.648659
      6          7           0        7.219540    1.136465    0.452934
      7          6           0        7.328764    2.161193   -0.386813
      8          6           0        7.709464    3.498343    0.316374
      9          6           0        8.412587    2.906360    1.619130
     10          6           0        7.695669    1.569934    1.696049
     11          6           0        9.906388    2.653012    1.443417
     12          6           0        6.451951    4.355954    0.683656
     13          6           0        6.742519    5.808454    1.072460
     14          1           0        5.791756    6.840254    0.686733
     15          7           0        6.491925   -1.208944    2.249163
     16          6           0        6.999511   -0.362622    3.177269
     17          6           0        6.773625   -1.010981    4.486958
     18          6           0        6.265032   -2.387296    4.231649
     19          6           0        6.394860   -2.467442    2.799134
     20          6           0        6.989867   -0.317146    5.796761
     21          6           0        5.754426   -3.463830    5.136353
     22          8           0        5.581298   -4.664988    4.734085
     23          6           0        5.543420   -3.091249    6.546921
     24          7           0        6.640667   -2.958278   -0.217234
     25          6           0        6.520409   -3.916074    0.708590
     26          6           0        6.393272   -5.271447    0.078718
     27          6           0        6.206939   -5.015834   -1.486433
     28          6           0        6.349382   -3.473775   -1.492308
     29          6           0        7.573441   -6.226951    0.302820
     30          6           0        4.959957   -5.643927   -2.157965
     31          6           0        3.706351   -4.976087   -1.638774
     32          7           0        6.510158   -0.515039   -1.835986
     33          6           0        6.503214   -1.448157   -2.882847
     34          6           0        6.649041   -0.689504   -4.138732
     35          6           0        6.747981    0.639484   -3.731486
     36          6           0        6.695332    0.704363   -2.309758
     37          6           0        6.734101   -1.247957   -5.444614
     38          6           0        6.910677    2.017559   -4.165415
     39          8           0        6.918873    2.587620   -5.257412
     40          6           0        7.227135    2.911625   -2.886225
     41          6           0        6.336213    4.122394   -2.946262
     42          8           0        5.099290    4.013295   -2.821828
     43          8           0        7.089991    5.231622   -2.901806
     44          6           0        6.265673    6.469348   -2.928016
     45          1           0        8.224413    1.251339    3.782150
     46          1           0        6.277810   -4.547135    2.548279
     47          1           0        6.328650   -3.318772   -3.610271
     48          1           0        8.414179    4.118654   -0.237714
     49          1           0        8.196997    3.503562    2.504902
     50          1           0       10.216477    2.800256    0.408968
     51          1           0       10.063222    1.616908    1.744059
     52          1           0       10.486553    3.258341    2.140384
     53          1           0        6.031135    3.993478    1.621519
     54          1           0        5.722975    4.338733   -0.127284
     55          1           0        7.755988    6.100099    0.795454
     56          1           0        6.727622    5.880421    2.160026
     57          1           0        7.522286    0.624407    5.668108
     58          1           0        7.672188   -0.937929    6.377085
     59          1           0        6.058984   -0.180300    6.347271
     60          1           0        6.484738   -2.741658    6.971486
     61          1           0        5.092125   -3.960843    7.023353
     62          1           0        4.855282   -2.246517    6.589855
     63          1           0        5.520777   -5.799899    0.460708
     64          1           0        7.044817   -5.403036   -2.066699
     65          1           0        7.289856   -7.171644    0.767405
     66          1           0        8.320242   -5.705631    0.900989
     67          1           0        8.143562   -6.467419   -0.594149
     68          1           0        4.886958   -6.701769   -1.907791
     69          1           0        4.968208   -5.559951   -3.244763
     70          1           0        3.511788   -5.511830   -0.710358
     71          1           0        2.885393   -5.107074   -2.344522
     72          1           0        3.888792   -3.932700   -1.380808
     73          1           0        6.102159   -0.630003   -6.082384
     74          1           0        6.408395   -2.287888   -5.452540
     75          1           0        7.801201   -1.143105   -5.639958
     76          1           0        8.282457    3.176708   -2.942352
     77          1           0        6.615710    7.070404   -3.767325
     78          1           0        6.330413    6.905936   -1.931219
     79          1           0        5.214515    6.342985   -3.189626
     80         12           0       -6.637841    0.873048    0.533739
     81          6           0       -6.894816   -2.250610   -1.214327
     82          6           0       -5.615835    2.264336   -2.408102
     83          6           0       -5.970453    3.528924    2.136344
     84          6           0       -6.563972   -0.952742    3.501349
     85          7           0       -6.334578    0.015084   -1.482237
     86          6           0       -6.523155   -1.170523   -2.041806
     87          6           0       -6.378980   -1.182569   -3.587324
     88          6           0       -5.436636    0.107420   -3.750994
     89          6           0       -5.840385    0.866778   -2.488840
     90          6           0       -3.954281   -0.214826   -3.660898
     91          6           0       -7.753857   -0.985930   -4.317439
     92          6           0       -7.736025   -1.294502   -5.816174
     93          1           0       -8.922818   -1.897080   -6.416904
     94          7           0       -6.376899    2.731408   -0.112005
     95          6           0       -5.980698    3.116981   -1.343112
     96          6           0       -5.922874    4.586468   -1.305305
     97          6           0       -6.157898    5.029255    0.095922
     98          6           0       -6.156861    3.751603    0.779790
     99          6           0       -5.743697    5.425717   -2.536964
    100          6           0       -6.339173    6.380081    0.719305
    101          8           0       -6.292809    6.547315    1.989227
    102          6           0       -6.479309    7.515040   -0.204666
    103          7           0       -6.101289    1.229942    2.510374
    104          6           0       -5.919675    2.483366    2.961900
    105          6           0       -5.812202    2.510429    4.467919
    106          6           0       -6.202903    1.037481    4.953057
    107          6           0       -6.390327    0.359559    3.578043
    108          6           0       -4.440963    2.884233    5.030383
    109          6           0       -7.347256    0.920700    5.996851
    110          6           0       -8.659555    1.337607    5.372804
    111          7           0       -6.897904   -1.197666    1.092806
    112          6           0       -6.800528   -1.749989    2.388773
    113          6           0       -6.940757   -3.214036    2.249743
    114          6           0       -7.088124   -3.415486    0.869095
    115          6           0       -7.022709   -2.167085    0.193297
    116          6           0       -6.874607   -4.160548    3.310816
    117          6           0       -7.273522   -4.401347   -0.171291
    118          8           0       -7.483852   -5.613397   -0.191992
    119          6           0       -7.029965   -3.703157   -1.578272
    120          6           0       -8.158582   -4.094323   -2.492467
    121          8           0       -9.321801   -3.724186   -2.254725
    122          8           0       -7.650261   -4.652984   -3.605965
    123          6           0       -8.730637   -5.047707   -4.548722
    124          1           0       -5.070855    2.749885   -3.218107
    125          1           0       -5.846986    4.425186    2.748672
    126          1           0       -6.649951   -1.583069    4.389029
    127          1           0       -5.884250   -2.058010   -3.990596
    128          1           0       -5.697902    0.677333   -4.638849
    129          1           0       -3.781879   -1.243940   -3.382791
    130          1           0       -3.553331    0.452483   -2.909232
    131          1           0       -3.453487    0.049584   -4.596649
    132          1           0       -7.992604    0.084937   -4.348923
    133          1           0       -8.524396   -1.559148   -3.839632
    134          1           0       -6.834100   -1.843321   -6.113320
    135          1           0       -7.668492   -0.351379   -6.363878
    136          1           0       -5.431947    4.818418   -3.395684
    137          1           0       -4.892604    6.089598   -2.350493
    138          1           0       -6.622423    6.032993   -2.764366
    139          1           0       -5.600114    7.572562   -0.841977
    140          1           0       -6.688648    8.381203    0.426058
    141          1           0       -7.333990    7.326103   -0.863786
    142          1           0       -6.513441    3.218001    4.893010
    143          1           0       -5.356732    0.531136    5.440345
    144          1           0       -4.470958    3.757113    5.709545
    145          1           0       -3.771158    3.070317    4.201361
    146          1           0       -3.928880    2.087154    5.566705
    147          1           0       -7.169713    1.603407    6.831450
    148          1           0       -7.452517   -0.075779    6.412715
    149          1           0       -8.639855    2.427901    5.461953
    150          1           0       -9.497113    0.911771    5.921620
    151          1           0       -8.681917    1.094612    4.304103
    152          1           0       -7.673843   -4.870612    3.144895
    153          1           0       -6.966375   -3.677071    4.281170
    154          1           0       -5.872760   -4.566709    3.147679
    155          1           0       -6.063802   -4.045493   -1.950992
    156          1           0       -8.595391   -6.112591   -4.761869
    157          1           0       -8.651842   -4.349082   -5.402806
    158          1           0       -9.748959   -5.033856   -4.178211
 ---------------------------------------------------------------------

 SCF Done:  E(RCAM-B3LYP) =  -4069.81199151     A.U. after   19 cycles

 Excitation energies and oscillator strengths:

 Excited State   1:      Singlet-A      1.6714 eV  741.78 nm  f=0.2241  <S**2>=0.000
     310 -> 316        0.14206
     311 -> 313        0.38738
     312 -> 314        0.56639
 This state for optimization and/or second-order correction.
 Total Energy, E(TD-HF/TD-DFT) =  -4069.75056735
 Copying the excited state density for this state as the 1-particle RhoCI density.

 Excited State   2:      Singlet-A      1.6830 eV  736.70 nm  f=0.5089  <S**2>=0.000
     309 -> 315        0.14554
     311 -> 313        0.56578
     312 -> 314       -0.38709

 Excited State   3:      Singlet-A      2.1859 eV  567.19 nm  f=0.0907  <S**2>=0.000
     310 -> 314        0.63767
     312 -> 316       -0.27050

 Excited State   4:      Singlet-A      2.1928 eV  565.42 nm  f=0.1066  <S**2>=0.000
     309 -> 313        0.63585
     311 -> 315       -0.27618

 Excited State   5:      Singlet-A      2.6466 eV  468.46 nm  f=0.0000  <S**2>=0.000
     312 -> 313        0.70710

 The electronic state is 1-A.
 Alpha  occ. eigenvalues --  -46.87859 -46.87549 -19.26389 -19.26260 -19.19129
 Alpha  occ. eigenvalues --  -19.19069 -19.18863 -19.18620 -19.18255 -19.17950
 Alpha  occ. eigenvalues --  -14.42511 -14.42378 -14.41508 -14.41255 -14.39464
 Alpha  occ. eigenvalues --  -14.39240 -14.38654 -14.38491 -10.39185 -10.38997
 Alpha  occ. eigenvalues --  -10.35495 -10.35297 -10.34475 -10.34127 -10.31791
 Alpha  occ. eigenvalues --  -10.31673 -10.31472 -10.31183 -10.30969 -10.30900
 Alpha  occ. eigenvalues --  -10.30638 -10.30571 -10.30296 -10.30258 -10.30247
 Alpha  occ. eigenvalues --  -10.30039 -10.29980 -10.29802 -10.29696 -10.29323
 Alpha  occ. eigenvalues --  -10.29313 -10.29294 -10.28811 -10.28597 -10.28581
 Alpha  occ. eigenvalues --  -10.28532 -10.28430 -10.28290 -10.28175 -10.27979
 Alpha  occ. eigenvalues --  -10.27890 -10.27860 -10.27788 -10.27646 -10.27542
 Alpha  occ. eigenvalues --  -10.27538 -10.27532 -10.27488 -10.27469 -10.27452
 Alpha  occ. eigenvalues --  -10.27372 -10.27357 -10.27321 -10.27314 -10.27241
 Alpha  occ. eigenvalues --  -10.26947 -10.26768 -10.26568 -10.26451 -10.26321
 Alpha  occ. eigenvalues --  -10.26288 -10.26219 -10.26088 -10.26079 -10.25930
 Alpha  occ. eigenvalues --  -10.25832 -10.25810 -10.25758 -10.25466 -10.25358
 Alpha  occ. eigenvalues --  -10.24904 -10.24845 -10.24763 -10.24724 -10.24680
 Alpha  occ. eigenvalues --  -10.24589  -3.16602  -3.16299  -1.91483  -1.91181
 Alpha  occ. eigenvalues --   -1.91070  -1.90912  -1.90770  -1.90607  -1.16738
 Alpha  occ. eigenvalues --   -1.16553  -1.08716  -1.08559  -1.07262  -1.06874
 Alpha  occ. eigenvalues --   -1.06853  -1.06750  -1.04643  -1.04375  -1.03820
 Alpha  occ. eigenvalues --   -1.03553  -1.03297  -1.02934  -1.02473  -1.02003
 Alpha  occ. eigenvalues --   -0.92042  -0.91877  -0.89573  -0.89406  -0.89248
 Alpha  occ. eigenvalues --   -0.89007  -0.88336  -0.88141  -0.87943  -0.87733
 Alpha  occ. eigenvalues --   -0.87689  -0.87567  -0.87330  -0.87006  -0.85043
 Alpha  occ. eigenvalues --   -0.84873  -0.83987  -0.83804  -0.83016  -0.82834
 Alpha  occ. eigenvalues --   -0.82710  -0.82533  -0.81666  -0.81496  -0.80665
 Alpha  occ. eigenvalues --   -0.80337  -0.78858  -0.78522  -0.77277  -0.77030
 Alpha  occ. eigenvalues --   -0.76999  -0.76791  -0.75992  -0.75712  -0.74950
 Alpha  occ. eigenvalues --   -0.74720  -0.72838  -0.72590  -0.71732  -0.71470
 Alpha  occ. eigenvalues --   -0.69952  -0.69687  -0.68934  -0.68705  -0.67705
 Alpha  occ. eigenvalues --   -0.67497  -0.67279  -0.67084  -0.65351  -0.65150
 Alpha  occ. eigenvalues --   -0.64922  -0.64685  -0.64665  -0.64546  -0.64323
 Alpha  occ. eigenvalues --   -0.64118  -0.62381  -0.62183  -0.60497  -0.60236
 Alpha  occ. eigenvalues --   -0.59867  -0.59665  -0.59050  -0.58888  -0.58569
 Alpha  occ. eigenvalues --   -0.58322  -0.57668  -0.57453  -0.57370  -0.57143
 Alpha  occ. eigenvalues --   -0.56377  -0.56094  -0.56064  -0.55784  -0.55581
 Alpha  occ. eigenvalues --   -0.55402  -0.55345  -0.55166  -0.54594  -0.54406
 Alpha  occ. eigenvalues --   -0.53956  -0.53775  -0.53360  -0.53285  -0.53126
 Alpha  occ. eigenvalues --   -0.53030  -0.52988  -0.52811  -0.52793  -0.52547
 Alpha  occ. eigenvalues --   -0.52485  -0.52334  -0.51995  -0.51787  -0.51680
 Alpha  occ. eigenvalues --   -0.51536  -0.51264  -0.51100  -0.50621  -0.50363
 Alpha  occ. eigenvalues --   -0.50078  -0.49973  -0.49864  -0.49775  -0.49575
 Alpha  occ. eigenvalues --   -0.49372  -0.49284  -0.49161  -0.49084  -0.48978
 Alpha  occ. eigenvalues --   -0.48666  -0.48517  -0.48505  -0.48443  -0.48297
 Alpha  occ. eigenvalues --   -0.48234  -0.47754  -0.47482  -0.47356  -0.47011
 Alpha  occ. eigenvalues --   -0.46857  -0.46617  -0.46604  -0.46426  -0.46423
 Alpha  occ. eigenvalues --   -0.46229  -0.46168  -0.45995  -0.45901  -0.45722
 Alpha  occ. eigenvalues --   -0.45251  -0.45128  -0.44654  -0.44560  -0.44412
 Alpha  occ. eigenvalues --   -0.44353  -0.44204  -0.44148  -0.44086  -0.44008
 Alpha  occ. eigenvalues --   -0.43985  -0.43830  -0.43575  -0.43457  -0.43442
 Alpha  occ. eigenvalues --   -0.43274  -0.43091  -0.42835  -0.42800  -0.42787
 Alpha  occ. eigenvalues --   -0.42711  -0.42468  -0.42067  -0.41872  -0.41770
 Alpha  occ. eigenvalues --   -0.41593  -0.41564  -0.41344  -0.41200  -0.40925
 Alpha  occ. eigenvalues --   -0.40873  -0.40871  -0.40622  -0.40615  -0.40587
 Alpha  occ. eigenvalues --   -0.40402  -0.40293  -0.40106  -0.39483  -0.39357
 Alpha  occ. eigenvalues --   -0.38517  -0.38266  -0.37810  -0.37535  -0.37373
 Alpha  occ. eigenvalues --   -0.37328  -0.37171  -0.37077  -0.36801  -0.36683
 Alpha  occ. eigenvalues --   -0.36262  -0.36123  -0.34350  -0.34145  -0.33872
 Alpha  occ. eigenvalues --   -0.33767  -0.33252  -0.33067  -0.31392  -0.31180
 Alpha  occ. eigenvalues --   -0.31097  -0.30863  -0.30115  -0.29855  -0.29512
 Alpha  occ. eigenvalues --   -0.29392  -0.29217  -0.29103  -0.24143  -0.23925
 Alpha  occ. eigenvalues --   -0.21190  -0.21006
 Alpha virt. eigenvalues --   -0.08837  -0.08681  -0.01808  -0.01577  -0.00117
 Alpha virt. eigenvalues --    0.00084   0.02128   0.02308   0.03054   0.03326
 Alpha virt. eigenvalues --    0.04658   0.04853   0.04997   0.05261   0.06116

 Mulliken charges:
               1
     1  Mg   0.838681
     2  C   -0.003120
     3  C   -0.094083
     4  C   -0.045760
     5  C   -0.063985
     6  N   -0.256834
     7  C   -0.052506
     8  C   -0.014035
     9  C   -0.087053
    10  C    0.046406
    11  C    0.104774
    12  C    0.053453
    13  C   -0.071879
    14  H    0.036065
    15  N   -0.433212
    16  C    0.168533
    17  C   -0.177030
    18  C   -0.003877
    19  C    0.148792
    20  C    0.110133
    21  C    0.012383
    22  O   -0.249231
    23  C    0.062441
    24  N   -0.341158
    25  C    0.041312
    26  C   -0.028291
    27  C   -0.023972
    28  C    0.074816
    29  C    0.076084
    30  C    0.035099
    31  C   -0.004535
    32  N   -0.310357
    33  C    0.080204
    34  C   -0.170133
    35  C    0.008136
    36  C    0.082747
    37  C    0.127439
    38  C    0.045718
    39  O   -0.188998
    40  C   -0.005166
    41  C    0.212823
    42  O   -0.257723
    43  O   -0.304580
    44  C    0.157899
    45  H   -0.017425
    46  H   -0.016513
    47  H   -0.041572
    48  H    0.000902
    49  H   -0.003877
    50  H    0.025468
    51  H    0.016525
    52  H    0.016826
    53  H    0.011370
    54  H    0.043768
    55  H    0.017906
    56  H    0.018244
    57  H    0.005997
    58  H    0.027038
    59  H    0.039648
    60  H    0.037436
    61  H    0.035907
    62  H    0.031376
    63  H    0.016913
    64  H    0.009523
    65  H    0.023574
    66  H    0.012529
    67  H    0.004842
    68  H    0.006872
    69  H    0.004484
    70  H    0.009394
    71  H    0.017979
    72  H    0.028527
    73  H    0.046862
    74  H    0.009067
    75  H    0.046140
    76  H    0.035268
    77  H    0.042863
    78  H    0.046724
    79  H    0.052993
    80  Mg   0.838035
    81  C   -0.016782
    82  C   -0.087265
    83  C   -0.045522
    84  C   -0.064996
    85  N   -0.254610
    86  C   -0.049696
    87  C   -0.015157
    88  C   -0.090456
    89  C    0.045560
    90  C    0.114040
    91  C    0.062503
    92  C   -0.077811
    93  H    0.034405
    94  N   -0.423600
    95  C    0.162803
    96  C   -0.173870
    97  C   -0.007970
    98  C    0.152363
    99  C    0.099074
   100  C    0.015563
   101  O   -0.253666
   102  C    0.061205
   103  N   -0.350010
   104  C    0.037613
   105  C   -0.019782
   106  C   -0.034694
   107  C    0.088829
   108  C    0.073793
   109  C    0.034814
   110  C   -0.007586
   111  N   -0.324068
   112  C    0.078343
   113  C   -0.163305
   114  C    0.002212
   115  C    0.096104
   116  C    0.131507
   117  C    0.042249
   118  O   -0.188259
   119  C    0.000979
   120  C    0.211218
   121  O   -0.251128
   122  O   -0.305591
   123  C    0.152103
   124  H   -0.018222
   125  H   -0.015983
   126  H   -0.040847
   127  H   -0.000712
   128  H   -0.004121
   129  H    0.022053
   130  H    0.015609
   131  H    0.017707
   132  H    0.013868
   133  H    0.037378
   134  H    0.020944
   135  H    0.019830
   136  H    0.009556
   137  H    0.026946
   138  H    0.039505
   139  H    0.038642
   140  H    0.035943
   141  H    0.033853
   142  H    0.014124
   143  H    0.012055
   144  H    0.024502
   145  H    0.012006
   146  H    0.005061
   147  H    0.005743
   148  H    0.003497
   149  H    0.010762
   150  H    0.017701
   151  H    0.030388
   152  H    0.045733
   153  H    0.008190
   154  H    0.047040
   155  H    0.035059
   156  H    0.043646
   157  H    0.049625
   158  H    0.053427
 Sum of Mulliken charges =  -0.00000

 Dipole moment (field-independent basis, Debye):
    X=              4.6198    Y=              3.3576    Z=              1.3331  Tot=              5.8645
 Quadrupole moment (field-independent basis, Debye-Ang):
   XX=           -520.1693   YY=           -522.0959   ZZ=           -476.5327
   XY=            -15.1041   XZ=             46.2205   YZ=             19.0290

 Normal termination of Gaussian 16 at Sat Sep 11 03:59:25 2021.
