 Gaussian 16, Revision A.03,
 Gaussian 16:  ES64L-G16RevA.03 25-Dec-2016

 -----------------------------------
 #p cam-b3lyp/Def2SVP td=(nstates=5)
 -----------------------------------

 --------------------------------
 TDDFT excited states in gaussian
 --------------------------------
 Symbolic Z-matrix:
 Charge =  0 Multiplicity = 1

                         Standard orientation:
 ---------------------------------------------------------------------
 Center     Atomic      Atomic             Coordinates (Angstroms)
 Number     Number       Type             X           Y           Z
 ---------------------------------------------------------------------
      1         12           0        6.506460   -0.624191    0.472954
      2          6           0        6.966637    2.071621   -1.836386
      3          6           0        7.570965    1.493640    2.927477
      4          6           0        6.543149   -3.105469    2.447425
      5          6           0        6.580345   -2.783838   -2.261297
      6          7           0        7.156420    1.491484    0.426959
      7          6           0        7.229892    2.429389   -0.512247
      8          6           0        7.539718    3.847518    0.053696
      9          6           0        8.251741    3.424784    1.416163
     10          6           0        7.595658    2.071051    1.623246
     11          6           0        9.757763    3.225054    1.280114
     12          6           0        6.239565    4.678266    0.320509
     13          6           0        6.458278    6.174798    0.561156
     14          1           0        5.466596    7.116341    0.063752
     15          7           0        6.512850   -0.690361    2.447398
     16          6           0        6.968845    0.268865    3.288374
     17          6           0        6.755394   -0.252662    4.655535
     18          6           0        6.313645   -1.670103    4.538014
     19          6           0        6.466059   -1.889493    3.122381
     20          6           0        6.922258    0.580258    5.889290
     21          6           0        5.840747   -2.671660    5.543689
     22          8           0        5.728039   -3.914307    5.264944
     23          6           0        5.594180   -2.167709    6.906877
     24          7           0        6.774170   -2.672790    0.174274
     25          6           0        6.685472   -3.535937    1.192161
     26          6           0        6.628778   -4.952845    0.703186
     27          6           0        6.451819   -4.866889   -0.881444
     28          6           0        6.523739   -3.328471   -1.043824
     29          6           0        7.848273   -5.824289    1.033982
     30          6           0        5.243881   -5.617745   -1.495871
     31          6           0        3.954275   -4.959927   -1.058502
     32          7           0        6.553756   -0.415824   -1.686998
     33          6           0        6.603381   -1.449958   -2.632925
     34          6           0        6.731110   -0.817101   -3.958536
     35          6           0        6.763809    0.549605   -3.688554
     36          6           0        6.689327    0.756338   -2.281427
     37          6           0        6.858970   -1.500992   -5.199657
     38          6           0        6.869149    1.882446   -4.259777
     39          8           0        6.865834    2.338140   -5.404253
     40          6           0        7.127377    2.915909   -3.076097
     41          6           0        6.182957    4.071249   -3.267328
     42          8           0        4.950761    3.917615   -3.143003
     43          8           0        6.884620    5.213295   -3.330117
     44          6           0        6.005046    6.401982   -3.489886
     45          1           0        8.110581    1.991565    3.735454
     46          1           0        6.447481   -3.987106    3.084607
     47          1           0        6.524149   -3.391014   -3.166632
     48          1           0        8.222677    4.440501   -0.554879
     49          1           0        7.997323    4.098305    2.234309
     50          1           0       10.074548    3.280580    0.238728
     51          1           0        9.957745    2.233418    1.686511
     52          1           0       10.300340    3.924672    1.916449
     53          1           0        5.823296    4.393849    1.286888
     54          1           0        5.522998    4.544487   -0.490639
     55          1           0        7.460965    6.483839    0.264473
     56          1           0        6.425630    6.356325    1.635485
     57          1           0        7.412778    1.527704    5.669560
     58          1           0        7.624436    0.054391    6.535911
     59          1           0        5.978848    0.728716    6.414904
     60          1           0        6.512810   -1.733046    7.301511
     61          1           0        5.176775   -3.004450    7.465882
     62          1           0        4.867663   -1.356131    6.857260
     63          1           0        5.776324   -5.479918    1.129734
     64          1           0        7.314161   -5.271510   -1.411843
     65          1           0        7.601977   -6.729013    1.590325
     66          1           0        8.562450   -5.210410    1.582065
     67          1           0        8.440676   -6.127870    0.171245
     68          1           0        5.215955   -6.646876   -1.139424
     69          1           0        5.262756   -5.644544   -2.585447
     70          1           0        3.772044   -5.406893   -0.081853
     71          1           0        3.149627   -5.200353   -1.754165
     72          1           0        4.085414   -3.888312   -0.907077
     73          1           0        6.208008   -0.981426   -5.902698
     74          1           0        6.581241   -2.550424   -5.103946
     75          1           0        7.922673   -1.366745   -5.395538
     76          1           0        8.170142    3.222998   -3.149991
     77          1           0        6.338406    6.930197   -4.383248
     78          1           0        6.036499    6.940321   -2.542465
     79          1           0        4.964334    6.200590   -3.746206
     80         12           0       -6.659140    0.582001    0.426388
     81          6           0       -6.503194   -1.825857   -2.230102
     82          6           0       -7.243171   -2.021693    2.551075
     83          6           0       -7.248443    2.706112    2.708564
     84          6           0       -7.202230    3.020941   -2.003091
     85          7           0       -6.827938   -1.596859    0.085313
     86          6           0       -6.689305   -2.402839   -0.956568
     87          6           0       -6.673481   -3.914220   -0.602944
     88          6           0       -7.474745   -3.844367    0.787003
     89          6           0       -7.137329   -2.410878    1.191876
     90          6           0       -8.981320   -3.951246    0.619199
     91          6           0       -5.218479   -4.465427   -0.400132
     92          6           0       -5.108844   -5.991197   -0.358077
     93          1           0       -3.924971   -6.620178   -0.937114
     94          7           0       -6.684771    0.373043    2.399778
     95          6           0       -6.915564   -0.760328    3.095109
     96          6           0       -6.845376   -0.382479    4.515133
     97          6           0       -6.717773    1.097746    4.600907
     98          6           0       -6.903697    1.459395    3.209963
     99          6           0       -6.820560   -1.392287    5.625572
    100          6           0       -6.481854    2.033952    5.747236
    101          8           0       -6.644066    3.299703    5.627220
    102          6           0       -6.146078    1.417257    7.038911
    103          7           0       -7.363026    2.537799    0.384577
    104          6           0       -7.477548    3.255648    1.515735
    105          6           0       -7.737225    4.712228    1.213480
    106          6           0       -7.531999    4.866677   -0.365003
    107          6           0       -7.264853    3.390199   -0.731121
    108          6           0       -9.120309    5.235572    1.600226
    109          6           0       -6.516696    5.941567   -0.840855
    110          6           0       -5.114942    5.539935   -0.441899
    111          7           0       -6.644423    0.656957   -1.732830
    112          6           0       -6.924195    1.774523   -2.549457
    113          6           0       -6.901795    1.306482   -3.950481
    114          6           0       -6.631140   -0.066495   -3.849755
    115          6           0       -6.514507   -0.432518   -2.481576
    116          6           0       -7.161601    2.106232   -5.098965
    117          6           0       -6.428113   -1.291470   -4.589300
    118          8           0       -6.325971   -1.579989   -5.780964
    119          6           0       -6.461567   -2.509442   -3.568606
    120          6           0       -5.284031   -3.396940   -3.865741
    121          8           0       -4.123201   -2.986715   -3.690282
    122          8           0       -5.722458   -4.647550   -4.098385
    123          6           0       -4.590081   -5.567413   -4.387166
    124          1           0       -7.655927   -2.735510    3.264508
    125          1           0       -7.353909    3.500315    3.451258
    126          1           0       -7.265144    3.739289   -2.823269
    127          1           0       -7.200163   -4.550345   -1.304181
    128          1           0       -7.073225   -4.549402    1.510247
    129          1           0       -9.272845   -3.937810   -0.420500
    130          1           0       -9.396522   -3.098115    1.139607
    131          1           0       -9.357078   -4.835380    1.142113
    132          1           0       -4.882972   -4.224853    0.616883
    133          1           0       -4.555782   -4.076016   -1.148339
    134          1           0       -6.020670   -6.480153   -0.722023
    135          1           0       -5.034819   -6.305138    0.685941
    136          1           0       -7.094940   -2.391881    5.266486
    137          1           0       -7.623594   -1.123362    6.320335
    138          1           0       -5.872284   -1.399513    6.167223
    139          1           0       -6.946021    0.743304    7.336134
    140          1           0       -5.926447    2.248746    7.711424
    141          1           0       -5.248202    0.802547    6.910228
    142          1           0       -7.023221    5.346464    1.724408
    143          1           0       -8.465854    5.151978   -0.871309
    144          1           0       -9.082739    6.101262    2.288161
    145          1           0       -9.681521    4.422907    2.041964
    146          1           0       -9.754266    5.526619    0.764408
    147          1           0       -6.717778    6.896486   -0.349057
    148          1           0       -6.544471    6.118271   -1.910892
    149          1           0       -5.046185    5.881323    0.595322
    150          1           0       -4.380015    6.038165   -1.070939
    151          1           0       -5.004071    4.449373   -0.438013
    152          1           0       -6.416199    1.842194   -5.837319
    153          1           0       -7.127741    3.167254   -4.860537
    154          1           0       -8.173496    1.772675   -5.344063
    155          1           0       -7.410752   -3.028141   -3.708515
    156          1           0       -4.797232   -6.035277   -5.354570
    157          1           0       -4.517417   -6.236573   -3.509272
    158          1           0       -3.618367   -5.123990   -4.570437
 ---------------------------------------------------------------------

 SCF Done:  E(RCAM-B3LYP) =  -4069.81153218     A.U. after   19 cycles

 Excitation energies and oscillator strengths:

 Excited State   1:      Singlet-A      1.6654 eV  744.47 nm  f=0.0088  <S**2>=0.000
     309 -> 315       -0.11054
     310 -> 316        0.13072
     311 -> 313        0.52537
     312 -> 314       -0.44207
 This state for optimization and/or second-order correction.
 Total Energy, E(TD-HF/TD-DFT) =  -4069.75032974
 Copying the excited state density for this state as the 1-particle RhoCI density.

 Excited State   2:      Singlet-A      1.6889 eV  734.13 nm  f=0.7363  <S**2>=0.000
     309 -> 315        0.13594
     310 -> 316        0.11382
     311 -> 313        0.44120
     312 -> 314        0.52418

 Excited State   3:      Singlet-A      2.1846 eV  567.53 nm  f=0.0419  <S**2>=0.000
     309 -> 314        0.20596
     310 -> 313        0.60914
     311 -> 316       -0.25777

 Excited State   4:      Singlet-A      2.1924 eV  565.53 nm  f=0.1481  <S**2>=0.000
     309 -> 314        0.60689
     310 -> 313       -0.20448
     312 -> 315       -0.26388

 Excited State   5:      Singlet-A      2.7060 eV  458.18 nm  f=0.0000  <S**2>=0.000
     312 -> 313        0.70710

 The electronic state is 1-A.
 Alpha  occ. eigenvalues --  -46.87662 -46.87563 -19.26251 -19.26133 -19.19048
 Alpha  occ. eigenvalues --  -19.18857 -19.18726 -19.18651 -19.18023 -19.17946
 Alpha  occ. eigenvalues --  -14.42404 -14.42318 -14.41320 -14.41265 -14.39274
 Alpha  occ. eigenvalues --  -14.39259 -14.38499 -14.38446 -10.38981 -10.38920
 Alpha  occ. eigenvalues --  -10.35363 -10.35331 -10.34242 -10.34124 -10.31672
 Alpha  occ. eigenvalues --  -10.31535 -10.31266 -10.31210 -10.30936 -10.30784
 Alpha  occ. eigenvalues --  -10.30430 -10.30374 -10.30301 -10.30259 -10.30087
 Alpha  occ. eigenvalues --  -10.30054 -10.29798 -10.29788 -10.29499 -10.29347
 Alpha  occ. eigenvalues --  -10.29306 -10.29129 -10.28632 -10.28622 -10.28575
 Alpha  occ. eigenvalues --  -10.28412 -10.28311 -10.28233 -10.28054 -10.27991
 Alpha  occ. eigenvalues --  -10.27905 -10.27659 -10.27597 -10.27577 -10.27460
 Alpha  occ. eigenvalues --  -10.27429 -10.27394 -10.27390 -10.27383 -10.27380
 Alpha  occ. eigenvalues --  -10.27376 -10.27340 -10.27294 -10.27271 -10.27015
 Alpha  occ. eigenvalues --  -10.26951 -10.26601 -10.26570 -10.26378 -10.26354
 Alpha  occ. eigenvalues --  -10.26120 -10.26054 -10.26036 -10.25949 -10.25886
 Alpha  occ. eigenvalues --  -10.25837 -10.25731 -10.25679 -10.25345 -10.25332
 Alpha  occ. eigenvalues --  -10.24774 -10.24694 -10.24663 -10.24608 -10.24599
 Alpha  occ. eigenvalues --  -10.24529  -3.16404  -3.16313  -1.91285  -1.91195
 Alpha  occ. eigenvalues --   -1.90872  -1.90784  -1.90714  -1.90620  -1.16543
 Alpha  occ. eigenvalues --   -1.16480  -1.08551  -1.08477  -1.07131  -1.06906
 Alpha  occ. eigenvalues --   -1.06835  -1.06481  -1.04449  -1.04402  -1.03631
 Alpha  occ. eigenvalues --   -1.03570  -1.03101  -1.02944  -1.02279  -1.02016
 Alpha  occ. eigenvalues --   -0.91890  -0.91836  -0.89399  -0.89390  -0.89063
 Alpha  occ. eigenvalues --   -0.89060  -0.88164  -0.88129  -0.87726  -0.87690
 Alpha  occ. eigenvalues --   -0.87591  -0.87544  -0.87164  -0.87043  -0.84912
 Alpha  occ. eigenvalues --   -0.84856  -0.83810  -0.83783  -0.82872  -0.82863
 Alpha  occ. eigenvalues --   -0.82570  -0.82526  -0.81502  -0.81447  -0.80467
 Alpha  occ. eigenvalues --   -0.80353  -0.78675  -0.78548  -0.77090  -0.77054
 Alpha  occ. eigenvalues --   -0.76809  -0.76804  -0.75792  -0.75749  -0.74778
 Alpha  occ. eigenvalues --   -0.74716  -0.72641  -0.72603  -0.71547  -0.71493
 Alpha  occ. eigenvalues --   -0.69777  -0.69660  -0.68748  -0.68740  -0.67515
 Alpha  occ. eigenvalues --   -0.67512  -0.67118  -0.67099  -0.65181  -0.65155
 Alpha  occ. eigenvalues --   -0.64720  -0.64676  -0.64562  -0.64490  -0.64142
 Alpha  occ. eigenvalues --   -0.64110  -0.62183  -0.62157  -0.60328  -0.60258
 Alpha  occ. eigenvalues --   -0.59706  -0.59675  -0.58899  -0.58857  -0.58372
 Alpha  occ. eigenvalues --   -0.58332  -0.57453  -0.57440  -0.57183  -0.57147
 Alpha  occ. eigenvalues --   -0.56180  -0.56111  -0.55840  -0.55795  -0.55404
 Alpha  occ. eigenvalues --   -0.55370  -0.55208  -0.55153  -0.54392  -0.54387
 Alpha  occ. eigenvalues --   -0.53825  -0.53767  -0.53180  -0.53141  -0.53099
 Alpha  occ. eigenvalues --   -0.53055  -0.52809  -0.52781  -0.52649  -0.52599
 Alpha  occ. eigenvalues --   -0.52304  -0.52299  -0.51773  -0.51762  -0.51575
 Alpha  occ. eigenvalues --   -0.51493  -0.51104  -0.51059  -0.50479  -0.50408
 Alpha  occ. eigenvalues --   -0.49911  -0.49898  -0.49810  -0.49781  -0.49410
 Alpha  occ. eigenvalues --   -0.49397  -0.49113  -0.49085  -0.49014  -0.48968
 Alpha  occ. eigenvalues --   -0.48465  -0.48458  -0.48355  -0.48322  -0.48289
 Alpha  occ. eigenvalues --   -0.48263  -0.47574  -0.47509  -0.47178  -0.47035
 Alpha  occ. eigenvalues --   -0.46666  -0.46615  -0.46468  -0.46429  -0.46228
 Alpha  occ. eigenvalues --   -0.46177  -0.46028  -0.45990  -0.45723  -0.45678
 Alpha  occ. eigenvalues --   -0.45122  -0.45082  -0.44443  -0.44424  -0.44390
 Alpha  occ. eigenvalues --   -0.44386  -0.44041  -0.44018  -0.43986  -0.43967
 Alpha  occ. eigenvalues --   -0.43891  -0.43858  -0.43459  -0.43355  -0.43296
 Alpha  occ. eigenvalues --   -0.43261  -0.42896  -0.42837  -0.42804  -0.42563
 Alpha  occ. eigenvalues --   -0.42515  -0.42461  -0.41874  -0.41867  -0.41574
 Alpha  occ. eigenvalues --   -0.41572  -0.41407  -0.41370  -0.41017  -0.40902
 Alpha  occ. eigenvalues --   -0.40749  -0.40720  -0.40650  -0.40613  -0.40446
 Alpha  occ. eigenvalues --   -0.40401  -0.40145  -0.40109  -0.39325  -0.39309
 Alpha  occ. eigenvalues --   -0.38347  -0.38262  -0.37618  -0.37566  -0.37194
 Alpha  occ. eigenvalues --   -0.37174  -0.37132  -0.37108  -0.36670  -0.36568
 Alpha  occ. eigenvalues --   -0.36122  -0.36056  -0.34157  -0.34152  -0.33752
 Alpha  occ. eigenvalues --   -0.33612  -0.33080  -0.33052  -0.31256  -0.31210
 Alpha  occ. eigenvalues --   -0.30906  -0.30881  -0.29880  -0.29850  -0.29325
 Alpha  occ. eigenvalues --   -0.29238  -0.29182  -0.29110  -0.23947  -0.23940
 Alpha  occ. eigenvalues --   -0.21023  -0.20996
 Alpha virt. eigenvalues --   -0.08699  -0.08645  -0.01623  -0.01593   0.00052
 Alpha virt. eigenvalues --    0.00057   0.02306   0.02339   0.03292   0.03353
 Alpha virt. eigenvalues --    0.04819   0.04847   0.05254   0.05272   0.06264

 Mulliken charges:
               1
     1  Mg   0.839427
     2  C   -0.002767
     3  C   -0.094168
     4  C   -0.046006
     5  C   -0.063713
     6  N   -0.256738
     7  C   -0.052337
     8  C   -0.014040
     9  C   -0.086994
    10  C    0.046296
    11  C    0.104883
    12  C    0.053462
    13  C   -0.071715
    14  H    0.036141
    15  N   -0.433005
    16  C    0.168313
    17  C   -0.177376
    18  C   -0.004337
    19  C    0.148643
    20  C    0.110256
    21  C    0.011966
    22  O   -0.250253
    23  C    0.062618
    24  N   -0.341205
    25  C    0.041239
    26  C   -0.027986
    27  C   -0.024032
    28  C    0.075100
    29  C    0.076322
    30  C    0.035095
    31  C   -0.004413
    32  N   -0.310686
    33  C    0.080977
    34  C   -0.168854
    35  C    0.008548
    36  C    0.083554
    37  C    0.127121
    38  C    0.046658
    39  O   -0.188023
    40  C   -0.005562
    41  C    0.212829
    42  O   -0.256312
    43  O   -0.305004
    44  C    0.157674
    45  H   -0.017914
    46  H   -0.017364
    47  H   -0.041270
    48  H    0.000835
    49  H   -0.004153
    50  H    0.025383
    51  H    0.016313
    52  H    0.016401
    53  H    0.011316
    54  H    0.044520
    55  H    0.017661
    56  H    0.017833
    57  H    0.005826
    58  H    0.026402
    59  H    0.039193
    60  H    0.037340
    61  H    0.034818
    62  H    0.031311
    63  H    0.016143
    64  H    0.009244
    65  H    0.022665
    66  H    0.012437
    67  H    0.004582
    68  H    0.005559
    69  H    0.005023
    70  H    0.007791
    71  H    0.019152
    72  H    0.029894
    73  H    0.048574
    74  H    0.009375
    75  H    0.045668
    76  H    0.034910
    77  H    0.042771
    78  H    0.046158
    79  H    0.054005
    80  Mg   0.838394
    81  C   -0.016637
    82  C   -0.087768
    83  C   -0.045608
    84  C   -0.064763
    85  N   -0.254531
    86  C   -0.049758
    87  C   -0.015154
    88  C   -0.090529
    89  C    0.045739
    90  C    0.114434
    91  C    0.062502
    92  C   -0.077685
    93  H    0.034542
    94  N   -0.423370
    95  C    0.162836
    96  C   -0.174788
    97  C   -0.008065
    98  C    0.152106
    99  C    0.099425
   100  C    0.015322
   101  O   -0.253591
   102  C    0.061317
   103  N   -0.350109
   104  C    0.037509
   105  C   -0.019716
   106  C   -0.034864
   107  C    0.089112
   108  C    0.073786
   109  C    0.034716
   110  C   -0.007669
   111  N   -0.324287
   112  C    0.078902
   113  C   -0.162480
   114  C    0.002397
   115  C    0.096687
   116  C    0.131336
   117  C    0.042893
   118  O   -0.187537
   119  C    0.000693
   120  C    0.211209
   121  O   -0.250257
   122  O   -0.305791
   123  C    0.152091
   124  H   -0.019905
   125  H   -0.015925
   126  H   -0.040245
   127  H   -0.000783
   128  H   -0.004375
   129  H    0.022358
   130  H    0.014327
   131  H    0.016067
   132  H    0.014174
   133  H    0.037983
   134  H    0.020577
   135  H    0.019643
   136  H    0.008753
   137  H    0.025791
   138  H    0.039555
   139  H    0.038222
   140  H    0.035778
   141  H    0.033712
   142  H    0.014200
   143  H    0.012245
   144  H    0.024782
   145  H    0.011496
   146  H    0.005531
   147  H    0.005814
   148  H    0.003895
   149  H    0.010341
   150  H    0.018723
   151  H    0.030665
   152  H    0.046838
   153  H    0.008734
   154  H    0.046644
   155  H    0.034792
   156  H    0.043722
   157  H    0.049180
   158  H    0.053702
 Sum of Mulliken charges =  -0.00000

 Dipole moment (field-independent basis, Debye):
    X=              0.3524    Y=             -0.9163    Z=              7.1027  Tot=              7.1702
 Quadrupole moment (field-independent basis, Debye-Ang):
   XX=           -467.0179   YY=           -460.7179   ZZ=           -539.4640
   XY=             24.5987   XZ=              9.7254   YZ=              5.9131

 Normal termination of Gaussian 16 at Sat Sep 11 07:31:43 2021.
