 Gaussian 16, Revision A.03,
 Gaussian 16:  ES64L-G16RevA.03 25-Dec-2016

 -----------------------------------
 #p cam-b3lyp/Def2SVP td=(nstates=5)
 -----------------------------------

 --------------------------------
 TDDFT excited states in gaussian
 --------------------------------
 Symbolic Z-matrix:
 Charge =  0 Multiplicity = 1

                         Standard orientation:
 ---------------------------------------------------------------------
 Center     Atomic      Atomic             Coordinates (Angstroms)
 Number     Number       Type             X           Y           Z
 ---------------------------------------------------------------------
      1         12           0       -3.665477    0.522602   -1.313833
      2          6           0       -4.460856   -2.535076    0.368483
      3          6           0       -5.496600    2.137018    1.070221
      4          6           0       -3.358196    3.173088   -3.027638
      5          6           0       -2.886824   -1.394849   -4.117891
      6          7           0       -4.786835   -0.214960    0.446623
      7          6           0       -4.963258   -1.403626    1.015058
      8          6           0       -5.667564   -1.326474    2.402637
      9          6           0       -6.422452    0.066532    2.224661
     10          6           0       -5.495477    0.717676    1.213398
     11          6           0       -7.809620   -0.067071    1.604648
     12          6           0       -4.644325   -1.276381    3.586784
     13          6           0       -5.239086   -1.528265    4.975368
     14          1           0       -4.444655   -2.251481    5.956789
     15          7           0       -3.900577    2.415442   -0.799306
     16          6           0       -4.671204    2.891081    0.208259
     17          6           0       -4.511449    4.360978    0.184563
     18          6           0       -3.735730    4.714740   -1.036586
     19          6           0       -3.655308    3.434450   -1.692153
     20          6           0       -5.022219    5.261708    1.266944
     21          6           0       -3.167566    6.004306   -1.538922
     22          8           0       -2.730325    6.135535   -2.733147
     23          6           0       -3.218107    7.149648   -0.612272
     24          7           0       -3.401616    0.871192   -3.355033
     25          6           0       -3.237961    2.111658   -3.827735
     26          6           0       -2.787411    2.095787   -5.258362
     27          6           0       -2.440916    0.574013   -5.595850
     28          6           0       -2.854203   -0.066652   -4.247884
     29          6           0       -3.797327    2.628794   -6.284025
     30          6           0       -1.023053    0.281355   -6.147605
     31          6           0        0.009820    0.547056   -5.075376
     32          7           0       -3.492784   -1.593238   -1.765983
     33          6           0       -3.178673   -2.167475   -3.006250
     34          6           0       -3.287317   -3.629124   -2.845482
     35          6           0       -3.675730   -3.804071   -1.518691
     36          6           0       -3.827203   -2.531355   -0.897771
     37          6           0       -3.094919   -4.596855   -3.870624
     38          6           0       -4.021920   -4.769324   -0.488014
     39          8           0       -3.984792   -5.997669   -0.402672
     40          6           0       -4.661992   -3.983189    0.740044
     41          6           0       -4.001635   -4.485369    1.995055
     42          8           0       -2.793259   -4.264081    2.214658
     43          8           0       -4.940309   -4.935194    2.841868
     44          6           0       -4.354232   -5.420920    4.119654
     45          1           0       -6.234546    2.722595    1.622016
     46          1           0       -3.136284    4.058660   -3.626766
     47          1           0       -2.576814   -2.060037   -4.925896
     48          1           0       -6.390652   -2.120472    2.590078
     49          1           0       -6.438036    0.642083    3.149983
     50          1           0       -7.999023   -1.086218    1.267916
     51          1           0       -7.817991    0.620996    0.759080
     52          1           0       -8.576890    0.292223    2.290929
     53          1           0       -4.295590   -0.251981    3.717361
     54          1           0       -3.821649   -1.971488    3.415445
     55          1           0       -6.241721   -1.951571    4.908712
     56          1           0       -5.383678   -0.565085    5.464835
     57          1           0       -5.691923    4.733657    1.944589
     58          1           0       -5.654529    6.008741    0.787535
     59          1           0       -4.213343    5.755679    1.805503
     60          1           0       -4.255114    7.346188   -0.339257
     61          1           0       -2.687091    7.961368   -1.108239
     62          1           0       -2.703920    6.880044    0.310698
     63          1           0       -1.894037    2.704041   -5.393768
     64          1           0       -3.110451    0.159633   -6.349963
     65          1           0       -3.414782    3.451699   -6.888335
     66          1           0       -4.698736    2.923669   -5.747554
     67          1           0       -4.189474    1.879583   -6.971282
     68          1           0       -0.796735    0.944033   -6.982221
     69          1           0       -0.899918   -0.744293   -6.495649
     70          1           0        0.170221    1.621810   -5.152875
     71          1           0        0.928311   -0.001083   -5.287813
     72          1           0       -0.388931    0.348016   -4.080455
     73          1           0       -2.503482   -5.397701   -3.426984
     74          1           0       -2.590771   -4.163875   -4.734317
     75          1           0       -4.127472   -4.872370   -4.084588
     76          1           0       -5.730387   -4.196407    0.726150
     77          1           0       -4.689816   -6.448986    4.256391
     78          1           0       -4.629320   -4.693083    4.883189
     79          1           0       -3.271923   -5.554146    4.133674
     80         12           0        3.789198    0.611829    1.432300
     81          6           0        4.644694   -1.393721   -1.418132
     82          6           0        2.389867   -2.185423    2.793111
     83          6           0        2.627685    2.441079    3.750095
     84          6           0        4.212263    3.418602   -0.589768
     85          7           0        3.604593   -1.462545    0.687215
     86          6           0        4.021880   -2.121856   -0.383064
     87          6           0        3.828766   -3.660181   -0.306690
     88          6           0        2.627588   -3.699149    0.758449
     89          6           0        2.904548   -2.385879    1.487343
     90          6           0        1.252332   -3.609233    0.118180
     91          6           0        5.103133   -4.396283    0.237500
     92          6           0        5.098323   -5.914882    0.048863
     93          1           0        6.364279   -6.584961   -0.235466
     94          7           0        3.114820    0.127323    3.234804
     95          6           0        2.601946   -1.060172    3.619643
     96          6           0        2.233168   -0.899538    5.034700
     97          6           0        2.417920    0.529089    5.408322
     98          6           0        2.713926    1.104525    4.111660
     99          6           0        1.835322   -2.053881    5.907995
    100          6           0        2.328720    1.259003    6.714270
    101          8           0        2.292899    2.539054    6.769118
    102          6           0        2.190445    0.429981    7.920538
    103          7           0        3.259421    2.620660    1.511569
    104          6           0        2.830615    3.177831    2.657702
    105          6           0        2.773437    4.682608    2.544725
    106          6           0        3.486533    5.036721    1.157747
    107          6           0        3.765342    3.607027    0.644293
    108          6           0        1.374897    5.298918    2.569545
    109          6           0        4.665800    6.046296    1.210326
    110          6           0        5.835842    5.435284    1.947245
    111          7           0        4.504960    0.992385   -0.570430
    112          6           0        4.573846    2.239616   -1.229018
    113          6           0        5.018309    1.977092   -2.613202
    114          6           0        5.156119    0.582044   -2.671044
    115          6           0        4.801752    0.013435   -1.417796
    116          6           0        5.193475    2.957001   -3.630658
    117          6           0        5.510573   -0.539738   -3.510493
    118          8           0        5.973899   -0.664731   -4.643385
    119          6           0        5.073755   -1.879300   -2.774867
    120          6           0        6.226627   -2.843110   -2.841763
    121          8           0        7.291734   -2.596612   -2.248979
    122          8           0        5.810023   -3.989713   -3.409320
    123          6           0        6.915554   -4.981409   -3.487885
    124          1           0        1.725365   -2.942343    3.210727
    125          1           0        2.337595    3.127796    4.548690
    126          1           0        4.462298    4.249218   -1.253270
    127          1           0        3.518291   -4.125643   -1.234439
    128          1           0        2.729454   -4.541263    1.438037
    129          1           0        1.313561   -3.414376   -0.942201
    130          1           0        0.745162   -2.797655    0.623324
    131          1           0        0.673709   -4.510588    0.339740
    132          1           0        5.106535   -4.343147    1.333820
    133          1           0        5.994762   -3.981726   -0.191181
    134          1           0        4.324355   -6.240120   -0.656931
    135          1           0        4.811625   -6.381137    0.994603
    136          1           0        1.630063   -2.954223    5.315839
    137          1           0        0.869320   -1.797576    6.356333
    138          1           0        2.555523   -2.246011    6.706154
    139          1           0        1.297150   -0.184312    7.836104
    140          1           0        2.232345    1.126489    8.760187
    141          1           0        3.041776   -0.257941    7.971744
    142          1           0        3.322148    5.152157    3.351909
    143          1           0        2.785813    5.495580    0.444820
    144          1           0        1.242004    6.047507    3.373302
    145          1           0        0.651776    4.500477    2.670183
    146          1           0        1.064148    5.776463    1.641867
    147          1           0        4.376403    6.937731    1.772241
    148          1           0        4.996049    6.376085    0.230947
    149          1           0        5.587055    5.614930    2.997450
    150          1           0        6.763953    5.931602    1.671000
    151          1           0        5.871556    4.349888    1.797952
    152          1           0        6.119435    2.718282   -4.136722
    153          1           0        5.214358    3.962297   -3.215069
    154          1           0        4.296260    2.778931   -4.229473
    155          1           0        4.190309   -2.261542   -3.287686
    156          1           0        7.003229   -5.279668   -4.537186
    157          1           0        6.659136   -5.773020   -2.758947
    158          1           0        7.919953   -4.629545   -3.283395
 ---------------------------------------------------------------------

 SCF Done:  E(RCAM-B3LYP) =  -4069.81379149     A.U. after   18 cycles

 Excitation energies and oscillator strengths:

 Excited State   1:      Singlet-A      1.6682 eV  743.20 nm  f=0.3213  <S**2>=0.000
     310 -> 316        0.16782
     311 -> 313       -0.10134
     312 -> 314        0.67849
     310 <- 316        0.10158
 This state for optimization and/or second-order correction.
 Total Energy, E(TD-HF/TD-DFT) =  -4069.75248469
 Copying the excited state density for this state as the 1-particle RhoCI density.

 Excited State   2:      Singlet-A      1.6723 eV  741.38 nm  f=0.3255  <S**2>=0.000
     309 -> 315        0.17177
     311 -> 313        0.67795
     312 -> 314        0.10095
     309 <- 315        0.10367

 Excited State   3:      Singlet-A      2.1828 eV  568.01 nm  f=0.0996  <S**2>=0.000
     309 -> 313       -0.12608
     310 -> 314        0.63069
     312 -> 316       -0.26263

 Excited State   4:      Singlet-A      2.1926 eV  565.47 nm  f=0.0976  <S**2>=0.000
     309 -> 313        0.62839
     310 -> 314        0.12517
     311 -> 315       -0.27191

 Excited State   5:      Singlet-A      2.2088 eV  561.31 nm  f=0.0000  <S**2>=0.000
     312 -> 313        0.70701

 The electronic state is 1-A.
 Alpha  occ. eigenvalues --  -46.87967 -46.87361 -19.26760 -19.26108 -19.19564
 Alpha  occ. eigenvalues --  -19.18991 -19.18916 -19.18543 -19.18456 -19.17817
 Alpha  occ. eigenvalues --  -14.42627 -14.42134 -14.41603 -14.41077 -14.39573
 Alpha  occ. eigenvalues --  -14.39057 -14.38780 -14.38312 -10.39576 -10.38844
 Alpha  occ. eigenvalues --  -10.35622 -10.35225 -10.34683 -10.33992 -10.32169
 Alpha  occ. eigenvalues --  -10.31604 -10.31527 -10.31102 -10.30888 -10.30766
 Alpha  occ. eigenvalues --  -10.30692 -10.30655 -10.30327 -10.30143 -10.30081
 Alpha  occ. eigenvalues --  -10.30041 -10.29865 -10.29823 -10.29661 -10.29416
 Alpha  occ. eigenvalues --  -10.29141 -10.29136 -10.28974 -10.28828 -10.28568
 Alpha  occ. eigenvalues --  -10.28311 -10.28228 -10.28201 -10.28102 -10.27991
 Alpha  occ. eigenvalues --  -10.27896 -10.27769 -10.27713 -10.27612 -10.27607
 Alpha  occ. eigenvalues --  -10.27548 -10.27524 -10.27473 -10.27446 -10.27330
 Alpha  occ. eigenvalues --  -10.27248 -10.27231 -10.27210 -10.27173 -10.27157
 Alpha  occ. eigenvalues --  -10.26973 -10.26795 -10.26578 -10.26408 -10.26292
 Alpha  occ. eigenvalues --  -10.26260 -10.26165 -10.26138 -10.26050 -10.25978
 Alpha  occ. eigenvalues --  -10.25644 -10.25623 -10.25500 -10.25400 -10.25052
 Alpha  occ. eigenvalues --  -10.24953 -10.24899 -10.24596 -10.24595 -10.24579
 Alpha  occ. eigenvalues --  -10.24434  -3.16709  -3.16112  -1.91590  -1.91177
 Alpha  occ. eigenvalues --   -1.91019  -1.90994  -1.90582  -1.90420  -1.17113
 Alpha  occ. eigenvalues --   -1.16400  -1.08936  -1.08431  -1.07391  -1.07154
 Alpha  occ. eigenvalues --   -1.06803  -1.06702  -1.04767  -1.04137  -1.03923
 Alpha  occ. eigenvalues --   -1.03411  -1.03356  -1.02762  -1.02586  -1.01821
 Alpha  occ. eigenvalues --   -0.92203  -0.91687  -0.89633  -0.89393  -0.89256
 Alpha  occ. eigenvalues --   -0.88586  -0.88386  -0.88072  -0.88017  -0.87851
 Alpha  occ. eigenvalues --   -0.87518  -0.87442  -0.87322  -0.86871  -0.85192
 Alpha  occ. eigenvalues --   -0.84559  -0.84041  -0.83701  -0.83109  -0.82861
 Alpha  occ. eigenvalues --   -0.82737  -0.82261  -0.81880  -0.81311  -0.80823
 Alpha  occ. eigenvalues --   -0.80152  -0.78972  -0.78354  -0.77384  -0.77157
 Alpha  occ. eigenvalues --   -0.76842  -0.76513  -0.76153  -0.75383  -0.75028
 Alpha  occ. eigenvalues --   -0.74586  -0.72950  -0.72390  -0.71853  -0.71230
 Alpha  occ. eigenvalues --   -0.69950  -0.69556  -0.69077  -0.68418  -0.67844
 Alpha  occ. eigenvalues --   -0.67438  -0.67332  -0.66844  -0.65509  -0.65084
 Alpha  occ. eigenvalues --   -0.64871  -0.64816  -0.64468  -0.64385  -0.64310
 Alpha  occ. eigenvalues --   -0.63959  -0.62609  -0.62016  -0.60597  -0.60103
 Alpha  occ. eigenvalues --   -0.60006  -0.59339  -0.59178  -0.58709  -0.58694
 Alpha  occ. eigenvalues --   -0.58143  -0.57910  -0.57479  -0.57292  -0.57007
 Alpha  occ. eigenvalues --   -0.56538  -0.56303  -0.55905  -0.55728  -0.55599
 Alpha  occ. eigenvalues --   -0.55535  -0.55175  -0.55034  -0.54747  -0.54270
 Alpha  occ. eigenvalues --   -0.54113  -0.53478  -0.53447  -0.53398  -0.53184
 Alpha  occ. eigenvalues --   -0.52965  -0.52940  -0.52843  -0.52587  -0.52470
 Alpha  occ. eigenvalues --   -0.52297  -0.52206  -0.52133  -0.51842  -0.51637
 Alpha  occ. eigenvalues --   -0.51401  -0.51273  -0.50904  -0.50715  -0.50237
 Alpha  occ. eigenvalues --   -0.50148  -0.50060  -0.49741  -0.49733  -0.49566
 Alpha  occ. eigenvalues --   -0.49447  -0.49316  -0.49125  -0.48880  -0.48857
 Alpha  occ. eigenvalues --   -0.48670  -0.48607  -0.48593  -0.48220  -0.48165
 Alpha  occ. eigenvalues --   -0.48062  -0.47879  -0.47475  -0.47258  -0.46962
 Alpha  occ. eigenvalues --   -0.46849  -0.46779  -0.46555  -0.46388  -0.46348
 Alpha  occ. eigenvalues --   -0.46102  -0.46088  -0.45987  -0.45860  -0.45517
 Alpha  occ. eigenvalues --   -0.45318  -0.45017  -0.44831  -0.44673  -0.44355
 Alpha  occ. eigenvalues --   -0.44254  -0.44252  -0.44216  -0.44121  -0.43852
 Alpha  occ. eigenvalues --   -0.43781  -0.43699  -0.43601  -0.43558  -0.43273
 Alpha  occ. eigenvalues --   -0.43226  -0.43085  -0.43016  -0.42746  -0.42680
 Alpha  occ. eigenvalues --   -0.42603  -0.42329  -0.42146  -0.41904  -0.41729
 Alpha  occ. eigenvalues --   -0.41694  -0.41377  -0.41324  -0.41075  -0.41048
 Alpha  occ. eigenvalues --   -0.40999  -0.40669  -0.40618  -0.40480  -0.40464
 Alpha  occ. eigenvalues --   -0.40345  -0.40090  -0.39809  -0.39466  -0.39229
 Alpha  occ. eigenvalues --   -0.38580  -0.38113  -0.37987  -0.37490  -0.37446
 Alpha  occ. eigenvalues --   -0.37269  -0.37105  -0.36986  -0.36796  -0.36533
 Alpha  occ. eigenvalues --   -0.36401  -0.35939  -0.34480  -0.34244  -0.33947
 Alpha  occ. eigenvalues --   -0.33609  -0.33382  -0.32873  -0.31519  -0.31225
 Alpha  occ. eigenvalues --   -0.31101  -0.30661  -0.30322  -0.29722  -0.29639
 Alpha  occ. eigenvalues --   -0.29526  -0.29068  -0.28942  -0.24263  -0.23726
 Alpha  occ. eigenvalues --   -0.21302  -0.20807
 Alpha virt. eigenvalues --   -0.08959  -0.08503  -0.01915  -0.01399  -0.00251
 Alpha virt. eigenvalues --    0.00256   0.01968   0.02351   0.02587   0.03626
 Alpha virt. eigenvalues --    0.04519   0.04641   0.05166   0.05421   0.05894

 Mulliken charges:
               1
     1  Mg   0.839177
     2  C   -0.004458
     3  C   -0.093467
     4  C   -0.045348
     5  C   -0.063632
     6  N   -0.256980
     7  C   -0.052516
     8  C   -0.014240
     9  C   -0.087256
    10  C    0.046734
    11  C    0.104660
    12  C    0.053379
    13  C   -0.071267
    14  H    0.032882
    15  N   -0.433338
    16  C    0.169184
    17  C   -0.176551
    18  C   -0.003811
    19  C    0.149334
    20  C    0.109957
    21  C    0.011897
    22  O   -0.249230
    23  C    0.061999
    24  N   -0.341244
    25  C    0.041942
    26  C   -0.028347
    27  C   -0.024073
    28  C    0.075195
    29  C    0.076056
    30  C    0.034863
    31  C   -0.005890
    32  N   -0.310125
    33  C    0.079770
    34  C   -0.171094
    35  C    0.007423
    36  C    0.082129
    37  C    0.127620
    38  C    0.043738
    39  O   -0.190078
    40  C   -0.004801
    41  C    0.214141
    42  O   -0.262438
    43  O   -0.303243
    44  C    0.158399
    45  H   -0.017105
    46  H   -0.016342
    47  H   -0.040792
    48  H    0.000678
    49  H   -0.003378
    50  H    0.025438
    51  H    0.016873
    52  H    0.017174
    53  H    0.013192
    54  H    0.041210
    55  H    0.018476
    56  H    0.019627
    57  H    0.006506
    58  H    0.027185
    59  H    0.040730
    60  H    0.038077
    61  H    0.035562
    62  H    0.031543
    63  H    0.017099
    64  H    0.009717
    65  H    0.023745
    66  H    0.012247
    67  H    0.005256
    68  H    0.007562
    69  H    0.005402
    70  H    0.008117
    71  H    0.023084
    72  H    0.027798
    73  H    0.045608
    74  H    0.010203
    75  H    0.046510
    76  H    0.035953
    77  H    0.043932
    78  H    0.047381
    79  H    0.049978
    80  Mg   0.836265
    81  C   -0.016907
    82  C   -0.086609
    83  C   -0.046932
    84  C   -0.064772
    85  N   -0.255197
    86  C   -0.048973
    87  C   -0.015287
    88  C   -0.090003
    89  C    0.043507
    90  C    0.113182
    91  C    0.062378
    92  C   -0.077303
    93  H    0.032381
    94  N   -0.423704
    95  C    0.162083
    96  C   -0.173009
    97  C   -0.009417
    98  C    0.152846
    99  C    0.099419
   100  C    0.014712
   101  O   -0.254906
   102  C    0.061594
   103  N   -0.350424
   104  C    0.037618
   105  C   -0.019552
   106  C   -0.035321
   107  C    0.088681
   108  C    0.073764
   109  C    0.035020
   110  C   -0.007503
   111  N   -0.323993
   112  C    0.077793
   113  C   -0.163532
   114  C    0.001675
   115  C    0.096069
   116  C    0.131537
   117  C    0.040960
   118  O   -0.189814
   119  C    0.001427
   120  C    0.211411
   121  O   -0.251231
   122  O   -0.305627
   123  C    0.152252
   124  H   -0.009412
   125  H   -0.017616
   126  H   -0.040805
   127  H   -0.000983
   128  H   -0.003718
   129  H    0.017532
   130  H    0.019957
   131  H    0.030663
   132  H    0.013305
   133  H    0.036100
   134  H    0.022083
   135  H    0.020293
   136  H    0.012184
   137  H    0.024938
   138  H    0.038390
   139  H    0.037464
   140  H    0.035032
   141  H    0.034196
   142  H    0.013737
   143  H    0.013491
   144  H    0.022806
   145  H    0.010617
   146  H    0.004535
   147  H    0.004943
   148  H    0.003960
   149  H    0.010212
   150  H    0.017467
   151  H    0.030751
   152  H    0.045069
   153  H    0.008459
   154  H    0.046145
   155  H    0.034004
   156  H    0.042894
   157  H    0.050362
   158  H    0.053088
 Sum of Mulliken charges =  -0.00000

 Dipole moment (field-independent basis, Debye):
    X=             -6.1563    Y=              0.7335    Z=              3.8720  Tot=              7.3096
 Quadrupole moment (field-independent basis, Debye-Ang):
   XX=           -518.4065   YY=           -502.2947   ZZ=           -499.3185
   XY=            -19.1072   XZ=             -2.6396   YZ=             -7.8108

 Normal termination of Gaussian 16 at Fri Sep  3 18:31:40 2021.
