 Gaussian 16, Revision A.03,
 Gaussian 16:  ES64L-G16RevA.03 25-Dec-2016

 -----------------------------------
 #p cam-b3lyp/Def2SVP td=(nstates=5)
 -----------------------------------

 --------------------------------
 TDDFT excited states in gaussian
 --------------------------------
 Symbolic Z-matrix:
 Charge =  0 Multiplicity = 1

                         Standard orientation:
 ---------------------------------------------------------------------
 Center     Atomic      Atomic             Coordinates (Angstroms)
 Number     Number       Type             X           Y           Z
 ---------------------------------------------------------------------
      1         12           0       -4.179060   -1.070331    0.132760
      2          6           0       -4.619302    1.882146    2.107926
      3          6           0       -5.311555    0.726954   -2.537501
      4          6           0       -4.231021   -3.772771   -1.525775
      5          6           0       -4.178796   -2.883217    3.109185
      6          7           0       -4.847990    1.030715   -0.064187
      7          6           0       -4.911881    2.074974    0.755942
      8          6           0       -5.246170    3.411868    0.029073
      9          6           0       -5.980775    2.822170   -1.257244
     10          6           0       -5.316098    1.457957   -1.312492
     11          6           0       -7.481876    2.629832   -1.066976
     12          6           0       -3.959429    4.213270   -0.363079
     13          6           0       -4.196982    5.668043   -0.778480
     14          1           0       -3.204681    6.669856   -0.419233
     15          7           0       -4.223590   -1.375302   -1.818614
     16          6           0       -4.705070   -0.528271   -2.759890
     17          6           0       -4.513577   -1.210104   -4.058009
     18          6           0       -4.056207   -2.599726   -3.778976
     19          6           0       -4.178713   -2.647029   -2.344357
     20          6           0       -4.712510   -0.534010   -5.379778
     21          6           0       -3.593687   -3.712418   -4.665612
     22          8           0       -3.463770   -4.911311   -4.240935
     23          6           0       -3.378716   -3.375641   -6.084559
     24          7           0       -4.421449   -3.069471    0.682596
     25          6           0       -4.344588   -4.048954   -0.224978
     26          6           0       -4.264893   -5.395738    0.430582
     27          6           0       -4.057676   -5.117164    1.989174
     28          6           0       -4.140953   -3.570948    1.965655
     29          6           0       -5.482345   -6.309382    0.232902
     30          6           0       -2.830853   -5.779539    2.664883
     31          6           0       -1.556368   -5.170530    2.124610
     32          7           0       -4.185906   -0.602112    2.252139
     33          6           0       -4.207157   -1.514329    3.317072
     34          6           0       -4.314818   -0.726422    4.558716
     35          6           0       -4.365747    0.597236    4.126072
     36          6           0       -4.320869    0.632461    2.703034
     37          6           0       -4.411804   -1.255765    5.875843
     38          6           0       -4.472463    1.988700    4.533869
     39          8           0       -4.450991    2.579726    5.614480
     40          6           0       -4.763655    2.869282    3.239416
     41          6           0       -3.826640    4.045880    3.269909
     42          8           0       -2.595724    3.886966    3.139686
     43          8           0       -4.537715    5.182166    3.208510
     44          6           0       -3.666465    6.387598    3.205083
     45          1           0       -5.871621    1.119506   -3.388482
     46          1           0       -4.139541   -4.724427   -2.053431
     47          1           0       -4.099090   -3.375808    4.079985
     48          1           0       -5.922631    4.069415    0.575385
     49          1           0       -5.748856    3.393361   -2.155952
     50          1           0       -7.778664    2.808910   -0.033647
     51          1           0       -7.680403    1.594880   -1.346180
     52          1           0       -8.043442    3.243363   -1.771959
     53          1           0       -3.559542    3.816780   -1.296324
     54          1           0       -3.225839    4.183797    0.443335
     55          1           0       -5.196531    6.003711   -0.500743
     56          1           0       -4.187154    5.718279   -1.867323
     57          1           0       -5.207568    0.429614   -5.266232
     58          1           0       -5.422240   -1.139269   -5.943386
     59          1           0       -3.781051   -0.443717   -5.938850
     60          1           0       -4.308991   -2.998458   -6.509847
     61          1           0       -2.964465   -4.271002   -6.546701
     62          1           0       -2.659080   -2.558952   -6.148516
     63          1           0       -3.416028   -5.964617    0.053446
     64          1           0       -4.905568   -5.460576    2.582319
     65          1           0       -5.238466   -7.273101   -0.214840
     66          1           0       -6.212925   -5.771466   -0.370580
     67          1           0       -6.054793   -6.510337    1.138074
     68          1           0       -2.800190   -6.844057    2.435085
     69          1           0       -2.828076   -5.674247    3.749852
     70          1           0       -1.389126   -5.731255    1.205670
     71          1           0       -0.735975   -5.319236    2.827499
     72          1           0       -1.700593   -4.126106    1.847365
     73          1           0       -3.752110   -0.650283    6.497264
     74          1           0       -4.126086   -2.307087    5.902110
     75          1           0       -5.472679   -1.106242    6.075950
     76          1           0       -5.807628    3.175736    3.297111
     77          1           0       -3.987205    7.017818    4.034651
     78          1           0       -3.721609    6.806936    2.200334
     79          1           0       -2.619062    6.226058    3.462356
     80         12           0        4.769690   -0.176911   -0.111491
     81          6           0        2.302657    1.934539   -1.639441
     82          6           0        6.991408    2.379514   -0.515518
     83          6           0        7.067522   -2.159666    0.813756
     84          6           0        2.714014   -2.888519   -0.864527
     85          7           0        4.555232    1.846717   -0.978208
     86          6           0        3.555098    2.561209   -1.471736
     87          6           0        3.896492    4.053369   -1.729523
     88          6           0        5.488435    3.912167   -1.886572
     89          6           0        5.706281    2.654900   -1.047221
     90          6           0        5.928897    3.617833   -3.310892
     91          6           0        3.518346    4.971567   -0.514640
     92          6           0        3.536670    6.472431   -0.812700
     93          1           0        2.547791    7.324245   -0.157711
     94          7           0        6.596693    0.201018    0.565113
     95          6           0        7.343605    1.298441    0.322075
     96          6           0        8.615504    1.084216    1.029563
     97          6           0        8.621971   -0.300826    1.573927
     98          6           0        7.411300   -0.825302    0.974511
     99          6           0        9.641479    2.165953    1.204609
    100          6           0        9.568707   -1.036128    2.473496
    101          8           0        9.503329   -2.307159    2.625194
    102          6           0       10.632954   -0.237318    3.098609
    103          7           0        4.979117   -2.242377   -0.222611
    104          6           0        6.053131   -2.857594    0.302668
    105          6           0        5.855766   -4.353999    0.349867
    106          6           0        4.321843   -4.597277   -0.031525
    107          6           0        3.902241   -3.141872   -0.333398
    108          6           0        6.747900   -5.172413   -0.583235
    109          6           0        3.468689   -5.419267    0.973025
    110          6           0        3.289546   -4.640387    2.256245
    111          7           0        2.778181   -0.445817   -0.904988
    112          6           0        2.121017   -1.668614   -1.163806
    113          6           0        0.831487   -1.342330   -1.806508
    114          6           0        0.838046    0.057646   -1.898652
    115          6           0        2.055139    0.566662   -1.370359
    116          6           0       -0.133807   -2.284858   -2.260359
    117          6           0        0.096706    1.219969   -2.332398
    118          8           0       -1.034473    1.413032   -2.776108
    119          6           0        1.066234    2.479053   -2.299274
    120          6           0        0.342839    3.604364   -1.611604
    121          8           0        0.040976    3.519716   -0.408141
    122          8           0        0.320318    4.675932   -2.424999
    123          6           0       -0.377136    5.821737   -1.782732
    124          1           0        7.820307    3.028531   -0.799400
    125          1           0        7.779796   -2.882173    1.218873
    126          1           0        1.974184   -3.672311   -1.040619
    127          1           0        3.468834    4.467387   -2.634774
    128          1           0        6.005660    4.759912   -1.444792
    129          1           0        5.087859    3.434517   -3.962956
    130          1           0        6.557916    2.739464   -3.248719
    131          1           0        6.570680    4.422533   -3.680903
    132          1           0        4.317425    4.919331    0.236015
    133          1           0        2.563941    4.695021   -0.110611
    134          1           0        3.568437    6.678470   -1.889496
    135          1           0        4.471808    6.890408   -0.432139
    136          1           0        9.434402    3.025623    0.555384
    137          1           0       10.592161    1.768060    0.833460
    138          1           0        9.766112    2.463422    2.247987
    139          1           0       11.231141    0.236572    2.323978
    140          1           0       11.152178   -0.919898    3.774164
    141          1           0       10.170396    0.570106    3.677152
    142          1           0        6.034798   -4.736404    1.347275
    143          1           0        4.219846   -5.155582   -0.973726
    144          1           0        7.352462   -5.932611   -0.053438
    145          1           0        7.387008   -4.491051   -1.128956
    146          1           0        6.224900   -5.690866   -1.385037
    147          1           0        3.985594   -6.344054    1.240877
    148          1           0        2.493475   -5.695796    0.586392
    149          1           0        4.210709   -4.855394    2.806075
    150          1           0        2.414599   -4.992355    2.799031
    151          1           0        3.265777   -3.561809    2.061906
    152          1           0       -1.101939   -1.910331   -1.955498
    153          1           0        0.056140   -3.275821   -1.853318
    154          1           0        0.044275   -2.242776   -3.338215
    155          1           0        1.319085    2.725063   -3.331327
    156          1           0       -1.177762    6.129963   -2.462216
    157          1           0        0.411159    6.565984   -1.562681
    158          1           0       -0.934774    5.623905   -0.874792
 ---------------------------------------------------------------------

 SCF Done:  E(RCAM-B3LYP) =  -4069.81383183     A.U. after   18 cycles

 Excitation energies and oscillator strengths:

 Excited State   1:      Singlet-A      1.6455 eV  753.46 nm  f=0.2829  <S**2>=0.000
     309 -> 315        0.12638
     310 -> 316        0.10558
     311 -> 313        0.52004
     312 -> 314        0.44880
 This state for optimization and/or second-order correction.
 Total Energy, E(TD-HF/TD-DFT) =  -4069.75335959
 Copying the excited state density for this state as the 1-particle RhoCI density.

 Excited State   2:      Singlet-A      1.6961 eV  730.98 nm  f=0.4957  <S**2>=0.000
     309 -> 315       -0.11632
     310 -> 316        0.13434
     311 -> 313       -0.44709
     312 -> 314        0.51832

 Excited State   3:      Singlet-A      2.1730 eV  570.56 nm  f=0.0044  <S**2>=0.000
     309 -> 313        0.50719
     310 -> 314       -0.39223
     311 -> 315       -0.20804
     312 -> 316        0.15752

 Excited State   4:      Singlet-A      2.1823 eV  568.13 nm  f=0.0039  <S**2>=0.000
     310 -> 314        0.13578
     312 -> 313        0.68803

 Excited State   5:      Singlet-A      2.1934 eV  565.25 nm  f=0.1601  <S**2>=0.000
     309 -> 313        0.39651
     310 -> 314        0.48971
     311 -> 315       -0.17174
     312 -> 313       -0.11624
     312 -> 316       -0.21366

 The electronic state is 1-A.
 Alpha  occ. eigenvalues --  -46.87588 -46.87034 -19.26365 -19.25640 -19.19119
 Alpha  occ. eigenvalues --  -19.18658 -19.18311 -19.18310 -19.18231 -19.17506
 Alpha  occ. eigenvalues --  -14.42425 -14.41677 -14.41296 -14.40780 -14.39290
 Alpha  occ. eigenvalues --  -14.38689 -14.38541 -14.37852 -10.39030 -10.38308
 Alpha  occ. eigenvalues --  -10.35334 -10.34950 -10.34391 -10.33721 -10.31777
 Alpha  occ. eigenvalues --  -10.31268 -10.31203 -10.30964 -10.30639 -10.30346
 Alpha  occ. eigenvalues --  -10.30321 -10.30128 -10.30050 -10.29880 -10.29838
 Alpha  occ. eigenvalues --  -10.29829 -10.29571 -10.29357 -10.29354 -10.29347
 Alpha  occ. eigenvalues --  -10.28991 -10.28663 -10.28583 -10.28534 -10.28365
 Alpha  occ. eigenvalues --  -10.28299 -10.28098 -10.28026 -10.27957 -10.27610
 Alpha  occ. eigenvalues --  -10.27605 -10.27429 -10.27420 -10.27419 -10.27410
 Alpha  occ. eigenvalues --  -10.27396 -10.27297 -10.27109 -10.27094 -10.27075
 Alpha  occ. eigenvalues --  -10.27060 -10.26958 -10.26925 -10.26732 -10.26686
 Alpha  occ. eigenvalues --  -10.26573 -10.26468 -10.26349 -10.26020 -10.26018
 Alpha  occ. eigenvalues --  -10.25957 -10.25948 -10.25840 -10.25811 -10.25663
 Alpha  occ. eigenvalues --  -10.25635 -10.25360 -10.25329 -10.25284 -10.25081
 Alpha  occ. eigenvalues --  -10.24854 -10.24638 -10.24626 -10.24603 -10.24168
 Alpha  occ. eigenvalues --  -10.24126  -3.16336  -3.15776  -1.91217  -1.90807
 Alpha  occ. eigenvalues --   -1.90657  -1.90644  -1.90244  -1.90087  -1.16646
 Alpha  occ. eigenvalues --   -1.15965  -1.08856  -1.07967  -1.06910  -1.06902
 Alpha  occ. eigenvalues --   -1.06727  -1.05875  -1.04435  -1.03818  -1.03603
 Alpha  occ. eigenvalues --   -1.03083  -1.02978  -1.02528  -1.02056  -1.01708
 Alpha  occ. eigenvalues --   -0.91965  -0.91260  -0.89424  -0.89095  -0.89023
 Alpha  occ. eigenvalues --   -0.88476  -0.88145  -0.87785  -0.87710  -0.87614
 Alpha  occ. eigenvalues --   -0.87210  -0.87065  -0.86953  -0.86619  -0.84939
 Alpha  occ. eigenvalues --   -0.84347  -0.83804  -0.83514  -0.82869  -0.82603
 Alpha  occ. eigenvalues --   -0.82433  -0.82043  -0.81571  -0.80974  -0.80402
 Alpha  occ. eigenvalues --   -0.79957  -0.78572  -0.78125  -0.77073  -0.76862
 Alpha  occ. eigenvalues --   -0.76668  -0.76373  -0.75807  -0.75298  -0.74746
 Alpha  occ. eigenvalues --   -0.74389  -0.72625  -0.72128  -0.71535  -0.71044
 Alpha  occ. eigenvalues --   -0.69669  -0.69531  -0.68776  -0.68252  -0.67560
 Alpha  occ. eigenvalues --   -0.67132  -0.67004  -0.66589  -0.65225  -0.64717
 Alpha  occ. eigenvalues --   -0.64613  -0.64598  -0.64211  -0.64137  -0.64032
 Alpha  occ. eigenvalues --   -0.63696  -0.62263  -0.61675  -0.60283  -0.59838
 Alpha  occ. eigenvalues --   -0.59739  -0.59095  -0.58941  -0.58387  -0.58346
 Alpha  occ. eigenvalues --   -0.57858  -0.57548  -0.57188  -0.56909  -0.56720
 Alpha  occ. eigenvalues --   -0.56136  -0.55874  -0.55663  -0.55406  -0.55358
 Alpha  occ. eigenvalues --   -0.55196  -0.54933  -0.54832  -0.54438  -0.53970
 Alpha  occ. eigenvalues --   -0.53853  -0.53207  -0.53168  -0.53087  -0.52838
 Alpha  occ. eigenvalues --   -0.52723  -0.52630  -0.52579  -0.52332  -0.52300
 Alpha  occ. eigenvalues --   -0.52171  -0.52006  -0.51799  -0.51597  -0.51299
 Alpha  occ. eigenvalues --   -0.51182  -0.50947  -0.50590  -0.50413  -0.49977
 Alpha  occ. eigenvalues --   -0.49922  -0.49808  -0.49563  -0.49431  -0.49307
 Alpha  occ. eigenvalues --   -0.49163  -0.49105  -0.48908  -0.48575  -0.48533
 Alpha  occ. eigenvalues --   -0.48481  -0.48354  -0.48285  -0.48028  -0.47897
 Alpha  occ. eigenvalues --   -0.47854  -0.47548  -0.47116  -0.47053  -0.46704
 Alpha  occ. eigenvalues --   -0.46620  -0.46497  -0.46238  -0.46184  -0.46013
 Alpha  occ. eigenvalues --   -0.45918  -0.45792  -0.45699  -0.45560  -0.45247
 Alpha  occ. eigenvalues --   -0.45140  -0.44724  -0.44481  -0.44397  -0.44126
 Alpha  occ. eigenvalues --   -0.44027  -0.44016  -0.43946  -0.43895  -0.43664
 Alpha  occ. eigenvalues --   -0.43566  -0.43425  -0.43385  -0.43320  -0.42910
 Alpha  occ. eigenvalues --   -0.42893  -0.42873  -0.42745  -0.42492  -0.42443
 Alpha  occ. eigenvalues --   -0.42230  -0.42052  -0.41903  -0.41683  -0.41491
 Alpha  occ. eigenvalues --   -0.41394  -0.41068  -0.40961  -0.40942  -0.40657
 Alpha  occ. eigenvalues --   -0.40630  -0.40539  -0.40421  -0.40345  -0.40280
 Alpha  occ. eigenvalues --   -0.40148  -0.40041  -0.39518  -0.39332  -0.39104
 Alpha  occ. eigenvalues --   -0.38273  -0.37983  -0.37582  -0.37201  -0.37172
 Alpha  occ. eigenvalues --   -0.37135  -0.36746  -0.36710  -0.36572  -0.36154
 Alpha  occ. eigenvalues --   -0.36062  -0.35547  -0.34191  -0.33772  -0.33583
 Alpha  occ. eigenvalues --   -0.33113  -0.32980  -0.32459  -0.31215  -0.30915
 Alpha  occ. eigenvalues --   -0.30839  -0.30343  -0.30123  -0.29366  -0.29292
 Alpha  occ. eigenvalues --   -0.29188  -0.28757  -0.28618  -0.23972  -0.23349
 Alpha  occ. eigenvalues --   -0.21061  -0.20414
 Alpha virt. eigenvalues --   -0.08751  -0.08061  -0.01618  -0.01094   0.00002
 Alpha virt. eigenvalues --    0.00617   0.02151   0.02840   0.03338   0.04098
 Alpha virt. eigenvalues --    0.04784   0.05110   0.05203   0.05832   0.06134

 Mulliken charges:
               1
     1  Mg   0.834305
     2  C    0.003942
     3  C   -0.082256
     4  C   -0.050574
     5  C   -0.065941
     6  N   -0.256218
     7  C   -0.048189
     8  C   -0.014046
     9  C   -0.090647
    10  C    0.054865
    11  C    0.105353
    12  C    0.046071
    13  C   -0.076885
    14  H    0.023376
    15  N   -0.440778
    16  C    0.187250
    17  C   -0.172635
    18  C   -0.004647
    19  C    0.143386
    20  C    0.112898
    21  C    0.010113
    22  O   -0.253303
    23  C    0.062418
    24  N   -0.339972
    25  C    0.041928
    26  C   -0.027331
    27  C   -0.023273
    28  C    0.074449
    29  C    0.076758
    30  C    0.035947
    31  C   -0.008807
    32  N   -0.309996
    33  C    0.080505
    34  C   -0.171396
    35  C    0.007159
    36  C    0.083488
    37  C    0.127581
    38  C    0.046605
    39  O   -0.191007
    40  C   -0.007293
    41  C    0.210496
    42  O   -0.249222
    43  O   -0.306289
    44  C    0.159181
    45  H   -0.020499
    46  H   -0.020058
    47  H   -0.044235
    48  H   -0.002249
    49  H   -0.003612
    50  H    0.024322
    51  H    0.015963
    52  H    0.014523
    53  H    0.023067
    54  H    0.057728
    55  H    0.017587
    56  H    0.018376
    57  H    0.006313
    58  H    0.023069
    59  H    0.042768
    60  H    0.037280
    61  H    0.032690
    62  H    0.032708
    63  H    0.012841
    64  H    0.008681
    65  H    0.021318
    66  H    0.013110
    67  H    0.003904
    68  H    0.004425
    69  H    0.004637
    70  H    0.004878
    71  H    0.018119
    72  H    0.032874
    73  H    0.046341
    74  H    0.007347
    75  H    0.044420
    76  H    0.033103
    77  H    0.040669
    78  H    0.043572
    79  H    0.053980
    80  Mg   0.840487
    81  C   -0.015098
    82  C   -0.087925
    83  C   -0.045301
    84  C   -0.065000
    85  N   -0.254808
    86  C   -0.049578
    87  C   -0.015653
    88  C   -0.090596
    89  C    0.046537
    90  C    0.114549
    91  C    0.062069
    92  C   -0.077663
    93  H    0.034890
    94  N   -0.423421
    95  C    0.163677
    96  C   -0.174539
    97  C   -0.007509
    98  C    0.152429
    99  C    0.099417
   100  C    0.015882
   101  O   -0.253053
   102  C    0.061031
   103  N   -0.350047
   104  C    0.037712
   105  C   -0.020036
   106  C   -0.034476
   107  C    0.088685
   108  C    0.073699
   109  C    0.033822
   110  C   -0.008859
   111  N   -0.323754
   112  C    0.077181
   113  C   -0.169353
   114  C   -0.001196
   115  C    0.098698
   116  C    0.129613
   117  C    0.046666
   118  O   -0.192289
   119  C    0.002133
   120  C    0.208667
   121  O   -0.241352
   122  O   -0.307840
   123  C    0.149078
   124  H   -0.019911
   125  H   -0.015493
   126  H   -0.038384
   127  H   -0.001889
   128  H   -0.004178
   129  H    0.021591
   130  H    0.014386
   131  H    0.016000
   132  H    0.014804
   133  H    0.041029
   134  H    0.019459
   135  H    0.019559
   136  H    0.008738
   137  H    0.025982
   138  H    0.040288
   139  H    0.038056
   140  H    0.036451
   141  H    0.034393
   142  H    0.014532
   143  H    0.012993
   144  H    0.025008
   145  H    0.011325
   146  H    0.005891
   147  H    0.005603
   148  H    0.005365
   149  H    0.010402
   150  H    0.018170
   151  H    0.031216
   152  H    0.057571
   153  H    0.014179
   154  H    0.042221
   155  H    0.033066
   156  H    0.039252
   157  H    0.048564
   158  H    0.058861
 Sum of Mulliken charges =  -0.00000

 Dipole moment (field-independent basis, Debye):
    X=              2.1300    Y=              3.0019    Z=             -5.0561  Tot=              6.2540
 Quadrupole moment (field-independent basis, Debye-Ang):
   XX=           -480.5320   YY=           -470.7338   ZZ=           -523.6988
   XY=             24.1005   XZ=              8.0473   YZ=            -31.3546

 Normal termination of Gaussian 16 at Thu Sep  9 21:21:19 2021.
