 Gaussian 16, Revision A.03,
 Gaussian 16:  ES64L-G16RevA.03 25-Dec-2016

 -----------------------------------
 #p cam-b3lyp/Def2SVP td=(nstates=5)
 -----------------------------------

 --------------------------------
 TDDFT excited states in gaussian
 --------------------------------
 Symbolic Z-matrix:
 Charge =  0 Multiplicity = 1

                         Standard orientation:
 ---------------------------------------------------------------------
 Center     Atomic      Atomic             Coordinates (Angstroms)
 Number     Number       Type             X           Y           Z
 ---------------------------------------------------------------------
      1         12           0       15.772832    0.794092    0.182248
      2          6           0       16.158312   -2.752350   -0.111644
      3          6           0       16.653914    1.012765   -3.106968
      4          6           0       15.881823    3.943947    0.533185
      5          6           0       16.038384    0.388551    3.633434
      6          7           0       16.312557   -0.745775   -1.313798
      7          6           0       16.364123   -2.074124   -1.315096
      8          6           0       16.583019   -2.682524   -2.732597
      9          6           0       17.276420   -1.432490   -3.438719
     10          6           0       16.686160   -0.317696   -2.593289
     11          6           0       18.794117   -1.412190   -3.288100
     12          6           0       15.234111   -3.060206   -3.432263
     13          6           0       15.367376   -3.952425   -4.669817
     14          1           0       14.342715   -4.953584   -4.924962
     15          7           0       15.725545    2.235969   -1.167419
     16          6           0       16.106342    2.144129   -2.464279
     17          6           0       15.880937    3.482640   -3.051017
     18          6           0       15.517345    4.409593   -1.943474
     19          6           0       15.721889    3.561967   -0.796709
     20          6           0       15.968347    3.762467   -4.519965
     21          6           0       15.068463    5.836531   -1.921399
     22          8           0       15.028867    6.520480   -0.841946
     23          6           0       14.756602    6.447353   -3.226267
     24          7           0       16.155611    2.027810    1.822082
     25          6           0       16.082669    3.359123    1.715931
     26          6           0       16.114163    4.016869    3.063640
     27          6           0       15.978875    2.839259    4.133540
     28          6           0       15.975081    1.635047    3.159820
     29          6           0       17.367393    4.846952    3.374103
     30          6           0       14.830047    2.956190    5.166468
     31          6           0       13.495758    2.821182    4.467509
     32          7           0       15.871653   -0.880345    1.559761
     33          6           0       16.002521   -0.818020    2.954631
     34          6           0       16.135345   -2.204512    3.438434
     35          6           0       16.088853   -2.981093    2.282317
     36          6           0       15.963009   -2.131809    1.146019
     37          6           0       16.334570   -2.599831    4.790642
     38          6           0       16.140975   -4.329324    1.740642
     39          8           0       16.146994   -5.460335    2.228773
     40          6           0       16.310570   -4.228256    0.160500
     41          6           0       15.313072   -5.165088   -0.464522
     42          8           0       14.087493   -4.948221   -0.373474
     43          8           0       15.955703   -6.028925   -1.265368
     44          6           0       15.020286   -6.968187   -1.939857
     45          1           0       17.143211    1.222554   -4.060130
     46          1           0       15.813901    5.019443    0.709627
     47          1           0       16.040164    0.179273    4.704719
     48          1           0       17.251421   -3.543303   -2.759473
     49          1           0       16.963639   -1.326628   -4.477316
     50          1           0       19.137566   -2.192558   -2.609138
     51          1           0       19.033735   -0.426836   -2.887908
     52          1           0       19.280810   -1.466413   -4.262250
     53          1           0       14.805471   -2.169279   -3.891151
     54          1           0       14.549268   -3.526914   -2.723391
     55          1           0       16.360732   -4.397232   -4.735391
     56          1           0       15.294234   -3.321161   -5.555456
     57          1           0       16.414906    2.928879   -5.060576
     58          1           0       16.678011    4.579791   -4.646719
     59          1           0       15.003665    4.044424   -4.942128
     60          1           0       15.639496    6.403564   -3.864334
     61          1           0       14.367434    7.441159   -3.007752
     62          1           0       13.990462    5.850169   -3.721595
     63          1           0       15.278394    4.705197    3.182470
     64          1           0       16.876139    2.736469    4.744298
     65          1           0       17.152654    5.884143    3.632610
     66          1           0       18.032407    4.788188    2.512944
     67          1           0       17.999540    4.442305    4.164083
     68          1           0       14.845565    3.936534    5.641473
     69          1           0       14.881807    2.204924    5.954612
     70          1           0       13.308923    3.830492    4.102518
     71          1           0       12.725214    2.512974    5.174955
     72          1           0       13.566360    2.167951    3.597571
     73          1           0       15.677991   -3.453411    4.958791
     74          1           0       16.109332   -1.785243    5.478623
     75          1           0       17.395039   -2.850766    4.773512
     76          1           0       17.337588   -4.514917   -0.063509
     77          1           0       15.351331   -7.978614   -1.699688
     78          1           0       14.996182   -6.680066   -2.990957
     79          1           0       13.999354   -6.989664   -1.557007
     80         12           0      -15.943434   -0.823309    0.035552
     81          6           0      -15.913241    2.692387   -0.684206
     82          6           0      -15.121710   -0.020918    3.247341
     83          6           0      -15.520485   -3.917690    0.595334
     84          6           0      -15.630486   -1.385959   -3.389526
     85          7           0      -15.591171    1.120042    1.031323
     86          6           0      -15.668379    2.392576    0.672106
     87          6           0      -15.551814    3.400685    1.846719
     88          6           0      -14.748601    2.472043    2.881787
     89          6           0      -15.204473    1.101561    2.385193
     90          6           0      -13.239778    2.559830    2.723417
     91          6           0      -16.952582    3.818307    2.417204
     92          6           0      -16.930683    5.028011    3.354161
     93          1           0      -18.060796    5.952353    3.323940
     94          7           0      -15.884509   -1.822052    1.749506
     95          6           0      -15.551962   -1.335735    2.963665
     96          6           0      -15.643135   -2.473637    3.891589
     97          6           0      -15.896477   -3.706867    3.098059
     98          6           0      -15.753154   -3.188522    1.752380
     99          6           0      -15.572587   -2.315331    5.382685
    100          6           0      -16.202783   -5.121650    3.486351
    101          8           0      -16.150605   -6.079531    2.636309
    102          6           0      -16.474315   -5.366527    4.910351
    103          7           0      -15.410140   -2.417472   -1.187784
    104          6           0      -15.348706   -3.670261   -0.703348
    105          6           0      -15.217217   -4.680350   -1.818170
    106          6           0      -15.447305   -3.859336   -3.171155
    107          6           0      -15.589771   -2.438108   -2.583615
    108          6           0      -13.881102   -5.419035   -1.892389
    109          6           0      -16.554712   -4.377543   -4.129159
    110          6           0      -17.913713   -4.199498   -3.491328
    111          7           0      -15.981462    0.392259   -1.750217
    112          6           0      -15.804940   -0.042676   -3.082036
    113          6           0      -15.798127    1.162535   -3.936348
    114          6           0      -15.949289    2.225082   -3.032675
    115          6           0      -16.023388    1.719222   -1.706741
    116          6           0      -15.616846    1.180507   -5.348061
    117          6           0      -16.052368    3.660328   -2.897963
    118          8           0      -16.138744    4.602660   -3.684284
    119          6           0      -15.906627    4.035334   -1.360263
    120          6           0      -17.006043    5.000786   -1.011395
    121          8           0      -18.196352    4.642112   -1.044839
    122          8           0      -16.463874    6.115942   -0.489057
    123          6           0      -17.515461    7.099576   -0.116989
    124          1           0      -14.643702    0.105441    4.219154
    125          1           0      -15.477669   -5.001948    0.721924
    126          1           0      -15.635823   -1.483648   -4.477231
    127          1           0      -14.978060    4.292474    1.624716
    128          1           0      -15.082525    2.638116    3.902711
    129          1           0      -12.958636    3.144099    1.859860
    130          1           0      -12.895161    1.539427    2.618331
    131          1           0      -12.785523    2.938086    3.643692
    132          1           0      -17.299482    3.045937    3.115664
    133          1           0      -17.652067    3.989606    1.622219
    134          1           0      -15.983188    5.577394    3.295934
    135          1           0      -16.969331    4.668910    4.385462
    136          1           0      -15.216358   -1.316867    5.664789
    137          1           0      -14.790146   -2.993750    5.739600
    138          1           0      -16.512474   -2.568114    5.878045
    139          1           0      -15.617235   -5.051488    5.500808
    140          1           0      -16.759124   -6.418351    4.976890
    141          1           0      -17.317178   -4.738051    5.218913
    142          1           0      -15.978929   -5.446175   -1.737972
    143          1           0      -14.545346   -3.850197   -3.800610
    144          1           0      -13.987338   -6.519230   -1.843871
    145          1           0      -13.248832   -5.062316   -1.090180
    146          1           0      -13.280995   -5.200603   -2.774074
    147          1           0      -16.432371   -5.449115   -4.304973
    148          1           0      -16.550576   -3.889682   -5.098157
    149          1           0      -18.003335   -5.082125   -2.851005
    150          1           0      -18.693548   -4.181436   -4.249992
    151          1           0      -17.930662   -3.317280   -2.840902
    152          1           0      -16.342646    1.877018   -5.746316
    153          1           0      -15.739662    0.188336   -5.777336
    154          1           0      -14.582039    1.528233   -5.407412
    155          1           0      -14.917596    4.473940   -1.222343
    156          1           0      -17.276558    8.033801   -0.634516
    157          1           0      -17.523603    7.124241    0.988937
    158          1           0      -18.523019    6.913809   -0.470206
 ---------------------------------------------------------------------

 SCF Done:  E(RCAM-B3LYP) =  -4069.81179012     A.U. after   19 cycles

 Excitation energies and oscillator strengths:

 Excited State   1:      Singlet-A      1.6753 eV  740.06 nm  f=0.2234  <S**2>=0.000
     310 -> 316        0.16893
     311 -> 314        0.15737
     312 -> 313        0.66776
     310 <- 316        0.10184
 This state for optimization and/or second-order correction.
 Total Energy, E(TD-HF/TD-DFT) =  -4069.75022269
 Copying the excited state density for this state as the 1-particle RhoCI density.

 Excited State   2:      Singlet-A      1.6801 eV  737.94 nm  f=0.5539  <S**2>=0.000
     309 -> 315        0.17093
     311 -> 314        0.66739
     312 -> 313       -0.15732
     309 <- 315        0.10234

 Excited State   3:      Singlet-A      2.1861 eV  567.14 nm  f=0.0954  <S**2>=0.000
     310 -> 313        0.64210
     312 -> 316       -0.27296

 Excited State   4:      Singlet-A      2.1926 eV  565.47 nm  f=0.1048  <S**2>=0.000
     309 -> 314        0.64032
     311 -> 315       -0.27815

 Excited State   5:      Singlet-A      3.0658 eV  404.41 nm  f=0.0000  <S**2>=0.000
     311 -> 313        0.70711

 The electronic state is 1-A.
 Alpha  occ. eigenvalues --  -46.87796 -46.87660 -19.26352 -19.26282 -19.19163
 Alpha  occ. eigenvalues --  -19.19019 -19.18813 -19.18711 -19.18169 -19.18053
 Alpha  occ. eigenvalues --  -14.42497 -14.42449 -14.41450 -14.41359 -14.39402
 Alpha  occ. eigenvalues --  -14.39352 -14.38601 -14.38587 -10.39093 -10.39078
 Alpha  occ. eigenvalues --  -10.35446 -10.35388 -10.34389 -10.34231 -10.31759
 Alpha  occ. eigenvalues --  -10.31677 -10.31404 -10.31309 -10.31022 -10.30907
 Alpha  occ. eigenvalues --  -10.30569 -10.30507 -10.30398 -10.30361 -10.30207
 Alpha  occ. eigenvalues --  -10.30141 -10.29921 -10.29895 -10.29630 -10.29436
 Alpha  occ. eigenvalues --  -10.29401 -10.29254 -10.28746 -10.28718 -10.28654
 Alpha  occ. eigenvalues --  -10.28533 -10.28405 -10.28364 -10.28139 -10.28114
 Alpha  occ. eigenvalues --  -10.28001 -10.27793 -10.27726 -10.27669 -10.27583
 Alpha  occ. eigenvalues --  -10.27519 -10.27504 -10.27484 -10.27477 -10.27466
 Alpha  occ. eigenvalues --  -10.27461 -10.27452 -10.27403 -10.27376 -10.27157
 Alpha  occ. eigenvalues --  -10.27052 -10.26701 -10.26692 -10.26410 -10.26406
 Alpha  occ. eigenvalues --  -10.26231 -10.26189 -10.26140 -10.26022 -10.26020
 Alpha  occ. eigenvalues --  -10.25935 -10.25855 -10.25846 -10.25438 -10.25396
 Alpha  occ. eigenvalues --  -10.24874 -10.24832 -10.24788 -10.24733 -10.24693
 Alpha  occ. eigenvalues --  -10.24690  -3.16539  -3.16410  -1.91421  -1.91293
 Alpha  occ. eigenvalues --   -1.91007  -1.90881  -1.90849  -1.90718  -1.16646
 Alpha  occ. eigenvalues --   -1.16631  -1.08660  -1.08627  -1.07214  -1.06964
 Alpha  occ. eigenvalues --   -1.06948  -1.06641  -1.04580  -1.04495  -1.03760
 Alpha  occ. eigenvalues --   -1.03663  -1.03233  -1.03039  -1.02411  -1.02112
 Alpha  occ. eigenvalues --   -0.91988  -0.91971  -0.89521  -0.89495  -0.89185
 Alpha  occ. eigenvalues --   -0.89150  -0.88288  -0.88221  -0.87871  -0.87796
 Alpha  occ. eigenvalues --   -0.87684  -0.87672  -0.87272  -0.87118  -0.84999
 Alpha  occ. eigenvalues --   -0.84980  -0.83938  -0.83877  -0.82965  -0.82929
 Alpha  occ. eigenvalues --   -0.82652  -0.82647  -0.81598  -0.81585  -0.80595
 Alpha  occ. eigenvalues --   -0.80443  -0.78796  -0.78635  -0.77218  -0.77144
 Alpha  occ. eigenvalues --   -0.76933  -0.76899  -0.75922  -0.75839  -0.74899
 Alpha  occ. eigenvalues --   -0.74803  -0.72774  -0.72700  -0.71672  -0.71581
 Alpha  occ. eigenvalues --   -0.69910  -0.69759  -0.68871  -0.68827  -0.67640
 Alpha  occ. eigenvalues --   -0.67602  -0.67217  -0.67199  -0.65285  -0.65272
 Alpha  occ. eigenvalues --   -0.64853  -0.64771  -0.64654  -0.64620  -0.64270
 Alpha  occ. eigenvalues --   -0.64204  -0.62297  -0.62280  -0.60441  -0.60339
 Alpha  occ. eigenvalues --   -0.59802  -0.59796  -0.58993  -0.58987  -0.58503
 Alpha  occ. eigenvalues --   -0.58426  -0.57584  -0.57556  -0.57309  -0.57237
 Alpha  occ. eigenvalues --   -0.56309  -0.56205  -0.55977  -0.55888  -0.55519
 Alpha  occ. eigenvalues --   -0.55452  -0.55340  -0.55249  -0.54524  -0.54489
 Alpha  occ. eigenvalues --   -0.53912  -0.53892  -0.53298  -0.53228  -0.53220
 Alpha  occ. eigenvalues --   -0.53141  -0.52914  -0.52903  -0.52753  -0.52665
 Alpha  occ. eigenvalues --   -0.52441  -0.52403  -0.51916  -0.51888  -0.51658
 Alpha  occ. eigenvalues --   -0.51614  -0.51202  -0.51196  -0.50569  -0.50472
 Alpha  occ. eigenvalues --   -0.50033  -0.49979  -0.49916  -0.49867  -0.49513
 Alpha  occ. eigenvalues --   -0.49486  -0.49213  -0.49202  -0.49105  -0.49094
 Alpha  occ. eigenvalues --   -0.48592  -0.48559  -0.48462  -0.48444  -0.48377
 Alpha  occ. eigenvalues --   -0.48337  -0.47693  -0.47594  -0.47296  -0.47117
 Alpha  occ. eigenvalues --   -0.46797  -0.46709  -0.46553  -0.46553  -0.46359
 Alpha  occ. eigenvalues --   -0.46271  -0.46163  -0.46087  -0.45824  -0.45822
 Alpha  occ. eigenvalues --   -0.45208  -0.45202  -0.44577  -0.44515  -0.44505
 Alpha  occ. eigenvalues --   -0.44476  -0.44145  -0.44127  -0.44086  -0.44078
 Alpha  occ. eigenvalues --   -0.44018  -0.43938  -0.43555  -0.43494  -0.43386
 Alpha  occ. eigenvalues --   -0.43385  -0.43027  -0.42932  -0.42902  -0.42699
 Alpha  occ. eigenvalues --   -0.42656  -0.42554  -0.42010  -0.41965  -0.41703
 Alpha  occ. eigenvalues --   -0.41670  -0.41532  -0.41459  -0.41140  -0.40989
 Alpha  occ. eigenvalues --   -0.40868  -0.40821  -0.40721  -0.40697  -0.40572
 Alpha  occ. eigenvalues --   -0.40494  -0.40230  -0.40226  -0.39444  -0.39427
 Alpha  occ. eigenvalues --   -0.38470  -0.38351  -0.37745  -0.37654  -0.37321
 Alpha  occ. eigenvalues --   -0.37266  -0.37261  -0.37199  -0.36773  -0.36713
 Alpha  occ. eigenvalues --   -0.36218  -0.36192  -0.34286  -0.34254  -0.33864
 Alpha  occ. eigenvalues --   -0.33769  -0.33186  -0.33176  -0.31343  -0.31271
 Alpha  occ. eigenvalues --   -0.31035  -0.30973  -0.30029  -0.29958  -0.29448
 Alpha  occ. eigenvalues --   -0.29327  -0.29321  -0.29212  -0.24080  -0.24036
 Alpha  occ. eigenvalues --   -0.21127  -0.21117
 Alpha virt. eigenvalues --   -0.08792  -0.08774  -0.01749  -0.01684  -0.00056
 Alpha virt. eigenvalues --   -0.00028   0.02200   0.02206   0.03120   0.03225
 Alpha virt. eigenvalues --    0.04719   0.04730   0.05099   0.05163   0.06180

 Mulliken charges:
               1
     1  Mg   0.838695
     2  C   -0.002967
     3  C   -0.094101
     4  C   -0.045889
     5  C   -0.063984
     6  N   -0.256776
     7  C   -0.052455
     8  C   -0.014010
     9  C   -0.087005
    10  C    0.046328
    11  C    0.104813
    12  C    0.053453
    13  C   -0.071823
    14  H    0.036163
    15  N   -0.433153
    16  C    0.168437
    17  C   -0.177121
    18  C   -0.003997
    19  C    0.148733
    20  C    0.110165
    21  C    0.012295
    22  O   -0.249636
    23  C    0.062470
    24  N   -0.341130
    25  C    0.041254
    26  C   -0.028159
    27  C   -0.024008
    28  C    0.074849
    29  C    0.076184
    30  C    0.035166
    31  C   -0.004503
    32  N   -0.310459
    33  C    0.080395
    34  C   -0.169757
    35  C    0.008364
    36  C    0.082982
    37  C    0.127319
    38  C    0.046098
    39  O   -0.188468
    40  C   -0.005340
    41  C    0.212870
    42  O   -0.257105
    43  O   -0.304791
    44  C    0.157693
    45  H   -0.017564
    46  H   -0.016843
    47  H   -0.041540
    48  H    0.000940
    49  H   -0.003993
    50  H    0.025467
    51  H    0.016440
    52  H    0.016688
    53  H    0.011227
    54  H    0.044112
    55  H    0.017869
    56  H    0.017987
    57  H    0.005904
    58  H    0.026850
    59  H    0.039613
    60  H    0.037366
    61  H    0.035673
    62  H    0.031539
    63  H    0.016536
    64  H    0.009445
    65  H    0.023198
    66  H    0.012567
    67  H    0.004735
    68  H    0.006326
    69  H    0.004690
    70  H    0.008779
    71  H    0.018073
    72  H    0.029022
    73  H    0.047531
    74  H    0.009067
    75  H    0.046000
    76  H    0.035156
    77  H    0.042940
    78  H    0.046431
    79  H    0.053680
    80  Mg   0.837833
    81  C   -0.016844
    82  C   -0.087758
    83  C   -0.045500
    84  C   -0.064856
    85  N   -0.254578
    86  C   -0.049840
    87  C   -0.015087
    88  C   -0.090507
    89  C    0.045755
    90  C    0.114364
    91  C    0.062523
    92  C   -0.077922
    93  H    0.034886
    94  N   -0.423502
    95  C    0.162925
    96  C   -0.174571
    97  C   -0.007769
    98  C    0.152129
    99  C    0.099339
   100  C    0.015602
   101  O   -0.253145
   102  C    0.061187
   103  N   -0.350061
   104  C    0.037581
   105  C   -0.019881
   106  C   -0.034767
   107  C    0.088867
   108  C    0.073633
   109  C    0.034735
   110  C   -0.007678
   111  N   -0.324084
   112  C    0.078411
   113  C   -0.163164
   114  C    0.002235
   115  C    0.096183
   116  C    0.131492
   117  C    0.042360
   118  O   -0.187943
   119  C    0.000935
   120  C    0.211260
   121  O   -0.251025
   122  O   -0.305625
   123  C    0.152031
   124  H   -0.019588
   125  H   -0.015529
   126  H   -0.040494
   127  H   -0.000652
   128  H   -0.004293
   129  H    0.022452
   130  H    0.014464
   131  H    0.016347
   132  H    0.013928
   133  H    0.037660
   134  H    0.020802
   135  H    0.019625
   136  H    0.008799
   137  H    0.026240
   138  H    0.039826
   139  H    0.038315
   140  H    0.036444
   141  H    0.033888
   142  H    0.014414
   143  H    0.012409
   144  H    0.025180
   145  H    0.011701
   146  H    0.005683
   147  H    0.006270
   148  H    0.003615
   149  H    0.010952
   150  H    0.017907
   151  H    0.030107
   152  H    0.045969
   153  H    0.008490
   154  H    0.046914
   155  H    0.035026
   156  H    0.043890
   157  H    0.049515
   158  H    0.053568
 Sum of Mulliken charges =  -0.00000

 Dipole moment (field-independent basis, Debye):
    X=              3.9313    Y=              1.4498    Z=              0.2683  Tot=              4.1987
 Quadrupole moment (field-independent basis, Debye-Ang):
   XX=           -519.0291   YY=           -549.4263   ZZ=           -449.2351
   XY=             40.3071   XZ=           -126.1565   YZ=             46.2639

 Normal termination of Gaussian 16 at Sun Sep 12 13:26:33 2021.
