 Gaussian 16, Revision A.03,
 Gaussian 16:  ES64L-G16RevA.03 25-Dec-2016

 -----------------------------------
 #p cam-b3lyp/Def2SVP td=(nstates=5)
 -----------------------------------

 --------------------------------
 TDDFT excited states in gaussian
 --------------------------------
 Symbolic Z-matrix:
 Charge =  0 Multiplicity = 1

                         Standard orientation:
 ---------------------------------------------------------------------
 Center     Atomic      Atomic             Coordinates (Angstroms)
 Number     Number       Type             X           Y           Z
 ---------------------------------------------------------------------
      1         12           0        4.455024   -0.588879    0.851555
      2          6           0        5.069931    2.114629   -1.412324
      3          6           0        4.820427    1.655051    3.396024
      4          6           0        4.367168   -3.031024    2.872652
      5          6           0        5.258690   -2.759046   -1.754238
      6          7           0        4.886882    1.582297    0.863291
      7          6           0        5.041766    2.512375   -0.073799
      8          6           0        5.095833    3.961176    0.496665
      9          6           0        5.577012    3.629808    1.980127
     10          6           0        5.032536    2.217526    2.102322
     11          6           0        7.093978    3.586346    2.133188
     12          6           0        3.692179    4.655047    0.491228
     13          6           0        3.710687    6.168766    0.722889
     14          1           0        2.741328    6.996513    0.021088
     15          7           0        4.095797   -0.632318    2.793698
     16          6           0        4.286775    0.378326    3.675408
     17          6           0        3.872802   -0.147517    4.994042
     18          6           0        3.605275   -1.604428    4.839337
     19          6           0        4.042924   -1.822320    3.484212
     20          6           0        3.719932    0.711753    6.211432
     21          6           0        3.054010   -2.638630    5.769211
     22          8           0        3.120830   -3.889248    5.512184
     23          6           0        2.505773   -2.148109    7.046657
     24          7           0        4.977938   -2.601672    0.670287
     25          6           0        4.785867   -3.458123    1.679537
     26          6           0        4.964474   -4.878530    1.231783
     27          6           0        5.081617   -4.828872   -0.359934
     28          6           0        5.028472   -3.293197   -0.552676
     29          6           0        6.180779   -5.614695    1.810292
     30          6           0        4.092462   -5.708021   -1.165594
     31          6           0        2.684283   -5.183159   -0.996330
     32          7           0        4.887423   -0.400478   -1.267072
     33          6           0        5.217697   -1.434173   -2.155366
     34          6           0        5.528947   -0.806072   -3.452548
     35          6           0        5.373193    0.559505   -3.222798
     36          6           0        5.014551    0.772823   -1.861122
     37          6           0        5.956221   -1.486552   -4.626779
     38          6           0        5.450326    1.889712   -3.804567
     39          8           0        5.617151    2.329982   -4.942910
     40          6           0        5.376077    2.957380   -2.625415
     41          6           0        4.373789    4.006033   -3.024229
     42          8           0        3.161926    3.726426   -3.127061
     43          8           0        4.956793    5.214115   -2.989808
     44          6           0        4.008590    6.303025   -3.346657
     45          1           0        5.145500    2.215260    4.274906
     46          1           0        4.241883   -3.910772    3.507305
     47          1           0        5.435187   -3.378689   -2.635342
     48          1           0        5.818387    4.615262    0.008289
     49          1           0        5.106844    4.282160    2.715723
     50          1           0        7.594161    3.663075    1.167864
     51          1           0        7.312038    2.625421    2.599628
     52          1           0        7.434099    4.345563    2.837946
     53          1           0        3.131853    4.339510    1.371303
     54          1           0        3.158376    4.438543   -0.434788
     55          1           0        4.715252    6.577157    0.608984
     56          1           0        3.458156    6.357709    1.766311
     57          1           0        4.145715    1.702613    6.058297
     58          1           0        4.336722    0.268925    6.993214
     59          1           0        2.684336    0.767034    6.547314
     60          1           0        3.285359   -1.615930    7.592166
     61          1           0        2.076401   -3.017537    7.543230
     62          1           0        1.724094   -1.417106    6.837941
     63          1           0        4.104035   -5.486701    1.507826
     64          1           0        6.064558   -5.147396   -0.707847
     65          1           0        5.925882   -6.533962    2.338194
     66          1           0        6.713762   -4.923865    2.462959
     67          1           0        6.952514   -5.864467    1.082655
     68          1           0        4.101031   -6.730494   -0.789532
     69          1           0        4.318921   -5.744686   -2.231250
     70          1           0        2.366940   -5.635895   -0.057631
     71          1           0        2.053338   -5.513619   -1.822112
     72          1           0        2.676586   -4.102117   -0.855710
     73          1           0        5.400731   -1.045283   -5.454233
     74          1           0        5.771910   -2.558067   -4.552692
     75          1           0        7.018898   -1.244541   -4.625023
     76          1           0        6.378006    3.370449   -2.513010
     77          1           0        4.449750    6.853201   -4.177872
     78          1           0        3.806880    6.852096   -2.426744
     79          1           0        3.060316    5.991657   -3.786162
     80         12           0       -4.364948   -0.694290   -0.876412
     81          6           0       -5.465957    1.765837    1.493116
     82          6           0       -4.443864    1.763873   -3.239851
     83          6           0       -3.833599   -2.923964   -3.070415
     84          6           0       -5.458069   -3.134520    1.358773
     85          7           0       -4.901668    1.448564   -0.765202
     86          6           0       -5.245506    2.286745    0.201023
     87          6           0       -5.281391    3.779083   -0.224626
     88          6           0       -5.511331    3.574143   -1.800693
     89          6           0       -4.883596    2.191119   -1.961490
     90          6           0       -6.977888    3.480963   -2.187813
     91          6           0       -3.927548    4.516614    0.067223
     92          6           0       -3.991089    6.042114   -0.035602
     93          1           0       -3.179981    6.836042    0.883230
     94          7           0       -3.699465   -0.530552   -2.738911
     95          6           0       -3.795183    0.547246   -3.545415
     96          6           0       -3.171996    0.153669   -4.818559
     97          6           0       -2.848201   -1.297420   -4.753494
     98          6           0       -3.480606   -1.652613   -3.498903
     99          6           0       -2.866578    1.135019   -5.912672
    100          6           0       -2.104831   -2.216376   -5.674957
    101          8           0       -2.148815   -3.489761   -5.535686
    102          6           0       -1.399879   -1.586367   -6.800839
    103          7           0       -4.800104   -2.725683   -0.956438
    104          6           0       -4.412077   -3.475110   -2.003208
    105          6           0       -4.589585   -4.946955   -1.715935
    106          6           0       -4.952562   -5.040525   -0.161240
    107          6           0       -5.012263   -3.534459    0.175779
    108          6           0       -5.666945   -5.659120   -2.533567
    109          6           0       -4.058859   -5.959405    0.716053
    110          6           0       -2.665658   -5.381188    0.816197
    111          7           0       -5.123558   -0.722970    1.146396
    112          6           0       -5.545742   -1.851263    1.883137
    113          6           0       -6.087084   -1.356284    3.165462
    114          6           0       -5.962460    0.038312    3.075555
    115          6           0       -5.402889    0.388985    1.817223
    116          6           0       -6.648382   -2.160329    4.197242
    117          6           0       -6.186843    1.294127    3.754711
    118          8           0       -6.557516    1.617760    4.882368
    119          6           0       -5.992343    2.475700    2.709505
    120          6           0       -5.115665    3.519204    3.345938
    121          8           0       -3.930253    3.265225    3.623253
    122          8           0       -5.752916    4.703996    3.322553
    123          6           0       -4.918777    5.773327    3.932941
    124          1           0       -4.651771    2.401197   -4.099777
    125          1           0       -3.568709   -3.739960   -3.746767
    126          1           0       -5.728122   -3.838098    2.149161
    127          1           0       -6.097214    4.352704    0.198664
    128          1           0       -4.961634    4.311988   -2.379296
    129          1           0       -7.622007    3.449475   -1.321640
    130          1           0       -7.072889    2.569449   -2.763280
    131          1           0       -7.240607    4.295846   -2.868465
    132          1           0       -3.220987    4.302812   -0.745069
    133          1           0       -3.539382    4.234966    1.026717
    134          1           0       -5.023696    6.411352   -0.053887
    135          1           0       -3.582029    6.342007   -1.003465
    136          1           0       -3.368228    2.095717   -5.742918
    137          1           0       -3.326124    0.746645   -6.828020
    138          1           0       -1.794556    1.258673   -6.080431
    139          1           0       -2.111700   -1.032170   -7.407992
    140          1           0       -0.855328   -2.394205   -7.293534
    141          1           0       -0.688661   -0.854110   -6.402609
    142          1           0       -3.669600   -5.489685   -1.895290
    143          1           0       -5.965636   -5.438452   -0.002584
    144          1           0       -5.281142   -6.525616   -3.103145
    145          1           0       -6.122095   -4.938322   -3.199765
    146          1           0       -6.521200   -6.015783   -1.960635
    147          1           0       -3.954183   -6.942420    0.250337
    148          1           0       -4.450764   -6.116599    1.715399
    149          1           0       -2.186571   -5.731116   -0.103109
    150          1           0       -2.154753   -5.763340    1.697663
    151          1           0       -2.690476   -4.285916    0.778675
    152          1           0       -6.257314   -1.783670    5.133028
    153          1           0       -6.405562   -3.211783    4.058454
    154          1           0       -7.712192   -1.960888    4.043007
    155          1           0       -6.981978    2.864854    2.467101
    156          1           0       -5.515536    6.228548    4.729397
    157          1           0       -4.613021    6.428320    3.095539
    158          1           0       -4.034108    5.468288    4.479532
 ---------------------------------------------------------------------

 SCF Done:  E(RCAM-B3LYP) =  -4069.81268787     A.U. after   18 cycles

 Excitation energies and oscillator strengths:

 Excited State   1:      Singlet-A      1.6485 eV  752.11 nm  f=0.0095  <S**2>=0.000
     309 -> 315        0.11411
     310 -> 316        0.12228
     311 -> 313       -0.46805
     312 -> 314        0.50382
 This state for optimization and/or second-order correction.
 Total Energy, E(TD-HF/TD-DFT) =  -4069.75210705
 Copying the excited state density for this state as the 1-particle RhoCI density.

 Excited State   2:      Singlet-A      1.7041 eV  727.57 nm  f=0.6940  <S**2>=0.000
     309 -> 315       -0.13326
     310 -> 316        0.12320
     311 -> 313        0.50125
     312 -> 314        0.46578

 Excited State   3:      Singlet-A      2.1846 eV  567.53 nm  f=0.0119  <S**2>=0.000
     309 -> 313        0.33878
     310 -> 314        0.54786
     311 -> 315        0.14169
     312 -> 316       -0.23030

 Excited State   4:      Singlet-A      2.1969 eV  564.35 nm  f=0.1645  <S**2>=0.000
     309 -> 313        0.54392
     310 -> 314       -0.33519
     311 -> 315        0.23964
     312 -> 316        0.14818

 Excited State   5:      Singlet-A      2.4710 eV  501.76 nm  f=0.0000  <S**2>=0.000
     312 -> 313        0.70708

 The electronic state is 1-A.
 Alpha  occ. eigenvalues --  -46.87646 -46.87461 -19.26343 -19.26330 -19.19129
 Alpha  occ. eigenvalues --  -19.19073 -19.18619 -19.18463 -19.18108 -19.17914
 Alpha  occ. eigenvalues --  -14.42305 -14.42299 -14.41298 -14.41167 -14.39244
 Alpha  occ. eigenvalues --  -14.39139 -14.38451 -14.38410 -10.39119 -10.39049
 Alpha  occ. eigenvalues --  -10.35246 -10.35132 -10.34332 -10.34097 -10.31786
 Alpha  occ. eigenvalues --  -10.31785 -10.31281 -10.31130 -10.30814 -10.30763
 Alpha  occ. eigenvalues --  -10.30435 -10.30368 -10.30211 -10.30169 -10.30030
 Alpha  occ. eigenvalues --  -10.29924 -10.29789 -10.29731 -10.29483 -10.29209
 Alpha  occ. eigenvalues --  -10.29192 -10.29086 -10.28641 -10.28554 -10.28551
 Alpha  occ. eigenvalues --  -10.28484 -10.28224 -10.28202 -10.27997 -10.27965
 Alpha  occ. eigenvalues --  -10.27797 -10.27654 -10.27575 -10.27459 -10.27419
 Alpha  occ. eigenvalues --  -10.27347 -10.27331 -10.27302 -10.27298 -10.27276
 Alpha  occ. eigenvalues --  -10.27238 -10.27225 -10.27224 -10.27109 -10.27080
 Alpha  occ. eigenvalues --  -10.26933 -10.26603 -10.26527 -10.26133 -10.26129
 Alpha  occ. eigenvalues --  -10.26046 -10.25982 -10.25967 -10.25874 -10.25860
 Alpha  occ. eigenvalues --  -10.25754 -10.25737 -10.25712 -10.25307 -10.25269
 Alpha  occ. eigenvalues --  -10.24709 -10.24683 -10.24644 -10.24539 -10.24506
 Alpha  occ. eigenvalues --  -10.24441  -3.16389  -3.16210  -1.91270  -1.91093
 Alpha  occ. eigenvalues --   -1.90857  -1.90699  -1.90681  -1.90518  -1.16688
 Alpha  occ. eigenvalues --   -1.16620  -1.08582  -1.08537  -1.07019  -1.06911
 Alpha  occ. eigenvalues --   -1.06716  -1.06693  -1.04440  -1.04298  -1.03612
 Alpha  occ. eigenvalues --   -1.03465  -1.03086  -1.02843  -1.02266  -1.01917
 Alpha  occ. eigenvalues --   -0.91862  -0.91817  -0.89361  -0.89313  -0.89072
 Alpha  occ. eigenvalues --   -0.88980  -0.88132  -0.88048  -0.87750  -0.87619
 Alpha  occ. eigenvalues --   -0.87530  -0.87490  -0.87076  -0.86840  -0.84861
 Alpha  occ. eigenvalues --   -0.84825  -0.83786  -0.83714  -0.82764  -0.82681
 Alpha  occ. eigenvalues --   -0.82516  -0.82442  -0.81532  -0.81482  -0.80483
 Alpha  occ. eigenvalues --   -0.80278  -0.78626  -0.78397  -0.77076  -0.76954
 Alpha  occ. eigenvalues --   -0.76841  -0.76759  -0.75828  -0.75681  -0.74764
 Alpha  occ. eigenvalues --   -0.74642  -0.72635  -0.72509  -0.71548  -0.71412
 Alpha  occ. eigenvalues --   -0.69729  -0.69582  -0.68747  -0.68648  -0.67510
 Alpha  occ. eigenvalues --   -0.67419  -0.67084  -0.67000  -0.65176  -0.65108
 Alpha  occ. eigenvalues --   -0.64749  -0.64607  -0.64504  -0.64495  -0.64118
 Alpha  occ. eigenvalues --   -0.64032  -0.62258  -0.62175  -0.60263  -0.60102
 Alpha  occ. eigenvalues --   -0.59680  -0.59615  -0.58861  -0.58819  -0.58383
 Alpha  occ. eigenvalues --   -0.58257  -0.57537  -0.57441  -0.57172  -0.57048
 Alpha  occ. eigenvalues --   -0.56189  -0.56022  -0.55946  -0.55772  -0.55369
 Alpha  occ. eigenvalues --   -0.55261  -0.55235  -0.55102  -0.54442  -0.54363
 Alpha  occ. eigenvalues --   -0.53782  -0.53743  -0.53158  -0.53084  -0.53043
 Alpha  occ. eigenvalues --   -0.52959  -0.52826  -0.52745  -0.52567  -0.52386
 Alpha  occ. eigenvalues --   -0.52257  -0.52226  -0.51816  -0.51736  -0.51486
 Alpha  occ. eigenvalues --   -0.51460  -0.51088  -0.51046  -0.50334  -0.50169
 Alpha  occ. eigenvalues --   -0.49858  -0.49757  -0.49750  -0.49671  -0.49379
 Alpha  occ. eigenvalues --   -0.49277  -0.49095  -0.49010  -0.48994  -0.48950
 Alpha  occ. eigenvalues --   -0.48513  -0.48413  -0.48351  -0.48273  -0.48231
 Alpha  occ. eigenvalues --   -0.48099  -0.47555  -0.47400  -0.47148  -0.46907
 Alpha  occ. eigenvalues --   -0.46659  -0.46535  -0.46445  -0.46378  -0.46225
 Alpha  occ. eigenvalues --   -0.46081  -0.46050  -0.45931  -0.45757  -0.45699
 Alpha  occ. eigenvalues --   -0.45055  -0.45042  -0.44496  -0.44370  -0.44343
 Alpha  occ. eigenvalues --   -0.44296  -0.44021  -0.43966  -0.43957  -0.43898
 Alpha  occ. eigenvalues --   -0.43876  -0.43705  -0.43449  -0.43435  -0.43253
 Alpha  occ. eigenvalues --   -0.43221  -0.42907  -0.42842  -0.42739  -0.42702
 Alpha  occ. eigenvalues --   -0.42493  -0.42359  -0.41871  -0.41795  -0.41589
 Alpha  occ. eigenvalues --   -0.41508  -0.41414  -0.41290  -0.41016  -0.40819
 Alpha  occ. eigenvalues --   -0.40737  -0.40636  -0.40543  -0.40470  -0.40424
 Alpha  occ. eigenvalues --   -0.40328  -0.40114  -0.40036  -0.39267  -0.39234
 Alpha  occ. eigenvalues --   -0.38321  -0.38185  -0.37647  -0.37503  -0.37170
 Alpha  occ. eigenvalues --   -0.37145  -0.37090  -0.37018  -0.36709  -0.36706
 Alpha  occ. eigenvalues --   -0.36097  -0.36069  -0.34151  -0.34073  -0.33800
 Alpha  occ. eigenvalues --   -0.33791  -0.33052  -0.32984  -0.31154  -0.31031
 Alpha  occ. eigenvalues --   -0.30898  -0.30783  -0.29974  -0.29826  -0.29295
 Alpha  occ. eigenvalues --   -0.29185  -0.29108  -0.29011  -0.23940  -0.23845
 Alpha  occ. eigenvalues --   -0.20979  -0.20914
 Alpha virt. eigenvalues --   -0.08624  -0.08584  -0.01596  -0.01484   0.00106
 Alpha virt. eigenvalues --    0.00201   0.02306   0.02372   0.02918   0.03830
 Alpha virt. eigenvalues --    0.04841   0.04902   0.05077   0.05223   0.06239

 Mulliken charges:
               1
     1  Mg   0.839431
     2  C   -0.003373
     3  C   -0.092841
     4  C   -0.045859
     5  C   -0.063462
     6  N   -0.256871
     7  C   -0.052640
     8  C   -0.014222
     9  C   -0.087274
    10  C    0.046786
    11  C    0.104826
    12  C    0.053073
    13  C   -0.071160
    14  H    0.033785
    15  N   -0.433368
    16  C    0.169461
    17  C   -0.175586
    18  C   -0.003216
    19  C    0.149067
    20  C    0.109906
    21  C    0.013025
    22  O   -0.250236
    23  C    0.061632
    24  N   -0.341234
    25  C    0.041620
    26  C   -0.028119
    27  C   -0.023864
    28  C    0.074644
    29  C    0.076321
    30  C    0.035098
    31  C   -0.005183
    32  N   -0.310153
    33  C    0.079952
    34  C   -0.170590
    35  C    0.007309
    36  C    0.082523
    37  C    0.127695
    38  C    0.044726
    39  O   -0.190571
    40  C   -0.004947
    41  C    0.212696
    42  O   -0.258827
    43  O   -0.304256
    44  C    0.158450
    45  H   -0.017474
    46  H   -0.016936
    47  H   -0.041511
    48  H    0.000211
    49  H   -0.003479
    50  H    0.025122
    51  H    0.016559
    52  H    0.016548
    53  H    0.013652
    54  H    0.043001
    55  H    0.017501
    56  H    0.018861
    57  H    0.005888
    58  H    0.026358
    59  H    0.043262
    60  H    0.036946
    61  H    0.035427
    62  H    0.034942
    63  H    0.016450
    64  H    0.009030
    65  H    0.022912
    66  H    0.012402
    67  H    0.004576
    68  H    0.005635
    69  H    0.005161
    70  H    0.007863
    71  H    0.021242
    72  H    0.028932
    73  H    0.045681
    74  H    0.009703
    75  H    0.045624
    76  H    0.034982
    77  H    0.042497
    78  H    0.046797
    79  H    0.051480
    80  Mg   0.838259
    81  C   -0.017121
    82  C   -0.085657
    83  C   -0.045779
    84  C   -0.064824
    85  N   -0.254630
    86  C   -0.050216
    87  C   -0.015278
    88  C   -0.090831
    89  C    0.046200
    90  C    0.114409
    91  C    0.061815
    92  C   -0.077093
    93  H    0.032218
    94  N   -0.423853
    95  C    0.164469
    96  C   -0.172286
    97  C   -0.006851
    98  C    0.152368
    99  C    0.098889
   100  C    0.016211
   101  O   -0.254719
   102  C    0.059863
   103  N   -0.350095
   104  C    0.037883
   105  C   -0.019717
   106  C   -0.034516
   107  C    0.088496
   108  C    0.073875
   109  C    0.034840
   110  C   -0.007903
   111  N   -0.323778
   112  C    0.077745
   113  C   -0.163955
   114  C    0.001533
   115  C    0.095592
   116  C    0.131739
   117  C    0.041354
   118  O   -0.189750
   119  C    0.001144
   120  C    0.211213
   121  O   -0.252254
   122  O   -0.305286
   123  C    0.152643
   124  H   -0.019438
   125  H   -0.016073
   126  H   -0.040987
   127  H   -0.001480
   128  H   -0.003549
   129  H    0.022023
   130  H    0.014453
   131  H    0.016051
   132  H    0.017116
   133  H    0.036617
   134  H    0.020259
   135  H    0.020411
   136  H    0.008724
   137  H    0.025130
   138  H    0.046429
   139  H    0.037905
   140  H    0.035327
   141  H    0.039497
   142  H    0.013820
   143  H    0.011876
   144  H    0.024567
   145  H    0.011633
   146  H    0.005398
   147  H    0.005404
   148  H    0.003598
   149  H    0.010136
   150  H    0.019437
   151  H    0.030280
   152  H    0.044741
   153  H    0.008415
   154  H    0.046340
   155  H    0.034653
   156  H    0.043349
   157  H    0.049626
   158  H    0.051925
 Sum of Mulliken charges =  -0.00000

 Dipole moment (field-independent basis, Debye):
    X=              0.7332    Y=              3.0893    Z=              0.1266  Tot=              3.1777
 Quadrupole moment (field-independent basis, Debye-Ang):
   XX=           -503.8083   YY=           -461.7918   ZZ=           -530.2962
   XY=              1.3867   XZ=             44.1431   YZ=              4.7410

 Normal termination of Gaussian 16 at Thu Sep  9 16:55:41 2021.
