 Gaussian 16, Revision A.03,
 Gaussian 16:  ES64L-G16RevA.03 25-Dec-2016

 -----------------------------------
 #p cam-b3lyp/Def2SVP td=(nstates=5)
 -----------------------------------

 --------------------------------
 TDDFT excited states in gaussian
 --------------------------------
 Symbolic Z-matrix:
 Charge =  0 Multiplicity = 1

                         Standard orientation:
 ---------------------------------------------------------------------
 Center     Atomic      Atomic             Coordinates (Angstroms)
 Number     Number       Type             X           Y           Z
 ---------------------------------------------------------------------
      1         12           0       -6.535290   -0.716023   -0.142035
      2          6           0       -6.762075    2.649480    1.055536
      3          6           0       -7.301513    0.492345   -3.239746
      4          6           0       -6.787879   -3.718340   -1.131435
      5          6           0       -6.912200   -1.760518    3.161392
      6          7           0       -6.954540    1.331005   -0.873165
      7          6           0       -6.950863    2.541657   -0.324094
      8          6           0       -7.091357    3.692499   -1.364862
      9          6           0       -7.809233    2.885218   -2.537444
     10          6           0       -7.297647    1.490922   -2.220990
     11          6           0       -9.331023    2.885226   -2.434206
     12          6           0       -5.702807    4.253362   -1.822127
     13          6           0       -5.752733    5.583201   -2.580012
     14          1           0       -4.678620    6.544179   -2.379632
     15          7           0       -6.497612   -1.470947   -1.967280
     16          6           0       -6.825682   -0.830897   -3.115318
     17          6           0       -6.634301   -1.816854   -4.200649
     18          6           0       -6.351004   -3.136753   -3.571600
     19          6           0       -6.562791   -2.829683   -2.180115
     20          6           0       -6.678450   -1.459065   -5.654536
     21          6           0       -5.962848   -4.466746   -4.136036
     22          8           0       -5.991914   -5.536918   -3.437135
     23          6           0       -5.628194   -4.498906   -5.571311
     24          7           0       -7.029766   -2.495166    0.831505
     25          6           0       -7.008219   -3.665215    0.183812
     26          6           0       -7.117172   -4.818723    1.136433
     27          6           0       -6.973101   -4.198015    2.600577
     28          6           0       -6.883066   -2.700997    2.214440
     29          6           0       -8.414461   -5.634921    1.053536
     30          6           0       -5.869401   -4.792585    3.510935
     31          6           0       -4.505543   -4.451809    2.953387
     32          7           0       -6.615813    0.241508    1.804166
     33          6           0       -6.801038   -0.385024    3.045062
     34          6           0       -6.894156    0.682187    4.058205
     35          6           0       -6.772436    1.863677    3.329433
     36          6           0       -6.639685    1.554959    1.945466
     37          6           0       -7.127054    0.492899    5.449019
     38          6           0       -6.748354    3.315903    3.395153
     39          8           0       -6.725626    4.142363    4.308356
     40          6           0       -6.863000    3.886526    1.912901
     41          6           0       -5.804895    4.943443    1.749653
     42          8           0       -4.593613    4.643468    1.762985
     43          8           0       -6.380844    6.093986    1.368765
     44          6           0       -5.382779    7.176872    1.160486
     45          1           0       -7.763237    0.721873   -4.202071
     46          1           0       -6.771260   -4.772468   -1.415996
     47          1           0       -6.945213   -2.013233    4.222759
     48          1           0       -7.722004    4.521560   -1.043355
     49          1           0       -7.462631    3.201865   -3.520970
     50          1           0       -9.666858    3.332013   -1.498515
     51          1           0       -9.626063    1.836862   -2.482957
     52          1           0       -9.778410    3.363263   -3.306045
     53          1           0       -5.294700    3.610541   -2.602057
     54          1           0       -5.026079    4.347976   -0.972178
     55          1           0       -6.723644    6.067467   -2.471719
     56          1           0       -5.672896    5.371792   -3.646376
     57          1           0       -7.069584   -0.454067   -5.807958
     58          1           0       -7.416198   -2.111777   -6.120803
     59          1           0       -5.711238   -1.592084   -6.139447
     60          1           0       -6.484122   -4.148259   -6.148358
     61          1           0       -5.289008   -5.513274   -5.778337
     62          1           0       -4.820012   -3.792029   -5.761354
     63          1           0       -6.315691   -5.537972    0.972922
     64          1           0       -7.887461   -4.309425    3.183849
     65          1           0       -8.252723   -6.695982    0.861976
     66          1           0       -9.043914   -5.189997    0.283391
     67          1           0       -9.058271   -5.560189    1.929515
     68          1           0       -5.943269   -5.879258    3.536066
     69          1           0       -5.919277   -4.432921    4.538751
     70          1           0       -4.347275   -5.228197    2.205721
     71          1           0       -3.749771   -4.505230    3.737712
     72          1           0       -4.516516   -3.494554    2.431825
     73          1           0       -6.442347    1.164271    5.967097
     74          1           0       -6.961600   -0.543998    5.740690
     75          1           0       -8.174823    0.784487    5.519825
     76          1           0       -7.868179    4.294361    1.810887
     77          1           0       -5.680334    8.013567    1.792654
     78          1           0       -5.331501    7.348389    0.085146
     79          1           0       -4.376810    6.983748    1.534743
     80         12           0        6.694059   -0.778012    0.293343
     81          6           0        6.531638    2.713137   -0.521878
     82          6           0        5.922561   -1.422083   -2.966184
     83          6           0        6.386121   -3.837846    1.074370
     84          6           0        6.318923    0.127717    3.637687
     85          7           0        6.301892    0.557020   -1.426002
     86          6           0        6.328831    1.865342   -1.630733
     87          6           0        6.207050    2.285955   -3.119963
     88          6           0        5.459392    0.979109   -3.678575
     89          6           0        5.948093   -0.039958   -2.651264
     90          6           0        3.945186    1.065070   -3.583084
     91          6           0        7.606459    2.482661   -3.801871
     92          6           0        7.567047    3.189218   -5.158691
     93          1           0        8.665222    4.085888   -5.508663
     94          7           0        6.708402   -2.402235   -0.846940
     95          6           0        6.388865   -2.480447   -2.155777
     96          6           0        6.539183   -3.897118   -2.522663
     97          6           0        6.814002   -4.675704   -1.284518
     98          6           0        6.622021   -3.649323   -0.279649
     99          6           0        6.498713   -4.378294   -3.944014
    100          6           0        7.175603   -6.110096   -1.043785
    101          8           0        7.134805   -6.627223    0.128278
    102          6           0        7.488576   -6.915785   -2.233083
    103          7           0        6.184567   -1.736174    2.066676
    104          6           0        6.175702   -3.078186    2.149515
    105          6           0        6.051101   -3.535378    3.583339
    106          6           0        6.222129   -2.216332    4.471278
    107          6           0        6.331767   -1.165421    3.344802
    108          6           0        4.738533   -4.228075    3.949015
    109          6           0        7.322991   -2.243232    5.566746
    110          6           0        8.690104   -2.293801    4.923439
    111          7           0        6.650027    1.072219    1.408141
    112          6           0        6.456448    1.225978    2.798453
    113          6           0        6.389958    2.676392    3.070989
    114          6           0        6.527512    3.270099    1.807227
    115          6           0        6.649448    2.260541    0.814548
    116          6           0        6.174894    3.274515    4.344613
    117          6           0        6.586625    4.521099    1.085986
    118          8           0        6.623478    5.708167    1.407309
    119          6           0        6.465035    4.214255   -0.468833
    120          6           0        7.540138    4.988865   -1.180613
    121          8           0        8.740452    4.724365   -0.991134
    122          8           0        6.974186    5.761935   -2.125299
    123          6           0        8.001466    6.541488   -2.866134
    124          1           0        5.463754   -1.731765   -3.905588
    125          1           0        6.381871   -4.876802    1.412051
    126          1           0        6.301766    0.493050    4.666722
    127          1           0        5.599298    3.165525   -3.295332
    128          1           0        5.811707    0.717182   -4.672875
    129          1           0        3.624719    1.944684   -3.044845
    130          1           0        3.631822    0.168769   -3.063955
    131          1           0        3.500632    1.006533   -4.580723
    132          1           0        7.994895    1.503735   -4.111011
    133          1           0        8.280982    2.997603   -3.145754
    134          1           0        6.600949    3.674746   -5.342686
    135          1           0        7.641793    2.434430   -5.945285
    136          1           0        6.116704   -3.603569   -4.620243
    137          1           0        5.747576   -5.174200   -3.990900
    138          1           0        7.457826   -4.777207   -4.281135
    139          1           0        6.635809   -6.910079   -2.907788
    140          1           0        7.809204   -7.887247   -1.851845
    141          1           0        8.317436   -6.440474   -2.769444
    142          1           0        6.839181   -4.233954    3.836353
    143          1           0        5.305741   -1.981185    5.032319
    144          1           0        4.881895   -5.243016    4.365446
    145          1           0        4.114040   -4.263961    3.066265
    146          1           0        4.110940   -3.685686    4.654103
    147          1           0        7.231726   -3.147655    6.173238
    148          1           0        7.279979   -1.396155    6.243212
    149          1           0        8.823712   -3.358773    4.711165
    150          1           0        9.450798   -1.929952    5.611200
    151          1           0        8.693481   -1.763495    3.964059
    152          1           0        6.867861    4.101837    4.421058
    153          1           0        6.319993    2.557651    5.150110
    154          1           0        5.128131    3.573964    4.245213
    155          1           0        5.465688    4.515716   -0.785068
    156          1           0        7.719905    7.596152   -2.788139
    157          1           0        8.034910    6.102788   -3.881106
    158          1           0        9.005947    6.560141   -2.459787
 ---------------------------------------------------------------------

 SCF Done:  E(RCAM-B3LYP) =  -4069.81165799     A.U. after   19 cycles

 Excitation energies and oscillator strengths:

 Excited State   1:      Singlet-A      1.6670 eV  743.76 nm  f=0.0692  <S**2>=0.000
     309 -> 315       -0.10938
     310 -> 316        0.13241
     311 -> 313       -0.43587
     312 -> 314        0.53036
 This state for optimization and/or second-order correction.
 Total Energy, E(TD-HF/TD-DFT) =  -4069.75039695
 Copying the excited state density for this state as the 1-particle RhoCI density.

 Excited State   2:      Singlet-A      1.6874 eV  734.78 nm  f=0.6695  <S**2>=0.000
     309 -> 315        0.13701
     310 -> 316        0.11225
     311 -> 313        0.52934
     312 -> 314        0.43515

 Excited State   3:      Singlet-A      2.1852 eV  567.38 nm  f=0.0548  <S**2>=0.000
     309 -> 313       -0.18383
     310 -> 314        0.61600
     312 -> 316       -0.26132

 Excited State   4:      Singlet-A      2.1925 eV  565.49 nm  f=0.1375  <S**2>=0.000
     309 -> 313        0.61398
     310 -> 314        0.18241
     311 -> 315       -0.26678

 Excited State   5:      Singlet-A      2.6501 eV  467.85 nm  f=0.0000  <S**2>=0.000
     312 -> 313        0.70710

 The electronic state is 1-A.
 Alpha  occ. eigenvalues --  -46.87850 -46.87554 -19.26282 -19.26280 -19.19083
 Alpha  occ. eigenvalues --  -19.19026 -19.18889 -19.18621 -19.18205 -19.17938
 Alpha  occ. eigenvalues --  -14.42502 -14.42396 -14.41501 -14.41251 -14.39459
 Alpha  occ. eigenvalues --  -14.39247 -14.38638 -14.38489 -10.39088 -10.39010
 Alpha  occ. eigenvalues --  -10.35524 -10.35299 -10.34423 -10.34116 -10.31704
 Alpha  occ. eigenvalues --  -10.31657 -10.31452 -10.31206 -10.30962 -10.30931
 Alpha  occ. eigenvalues --  -10.30620 -10.30559 -10.30286 -10.30263 -10.30251
 Alpha  occ. eigenvalues --  -10.30036 -10.29967 -10.29781 -10.29686 -10.29331
 Alpha  occ. eigenvalues --  -10.29313 -10.29292 -10.28793 -10.28645 -10.28620
 Alpha  occ. eigenvalues --  -10.28574 -10.28417 -10.28300 -10.28163 -10.28065
 Alpha  occ. eigenvalues --  -10.27890 -10.27846 -10.27781 -10.27644 -10.27570
 Alpha  occ. eigenvalues --  -10.27564 -10.27548 -10.27494 -10.27452 -10.27408
 Alpha  occ. eigenvalues --  -10.27387 -10.27380 -10.27361 -10.27269 -10.27187
 Alpha  occ. eigenvalues --  -10.26946 -10.26749 -10.26636 -10.26511 -10.26337
 Alpha  occ. eigenvalues --  -10.26276 -10.26228 -10.26071 -10.26037 -10.25950
 Alpha  occ. eigenvalues --  -10.25885 -10.25823 -10.25695 -10.25476 -10.25288
 Alpha  occ. eigenvalues --  -10.24882 -10.24839 -10.24759 -10.24733 -10.24639
 Alpha  occ. eigenvalues --  -10.24583  -3.16593  -3.16304  -1.91475  -1.91186
 Alpha  occ. eigenvalues --   -1.91061  -1.90903  -1.90774  -1.90611  -1.16633
 Alpha  occ. eigenvalues --   -1.16571  -1.08659  -1.08546  -1.07291  -1.06874
 Alpha  occ. eigenvalues --   -1.06867  -1.06648  -1.04632  -1.04394  -1.03812
 Alpha  occ. eigenvalues --   -1.03558  -1.03287  -1.02930  -1.02463  -1.02003
 Alpha  occ. eigenvalues --   -0.92016  -0.91882  -0.89568  -0.89389  -0.89233
 Alpha  occ. eigenvalues --   -0.89072  -0.88334  -0.88116  -0.87919  -0.87724
 Alpha  occ. eigenvalues --   -0.87671  -0.87585  -0.87343  -0.87025  -0.85030
 Alpha  occ. eigenvalues --   -0.84917  -0.83980  -0.83774  -0.83040  -0.82840
 Alpha  occ. eigenvalues --   -0.82696  -0.82568  -0.81612  -0.81506  -0.80639
 Alpha  occ. eigenvalues --   -0.80349  -0.78859  -0.78532  -0.77267  -0.77052
 Alpha  occ. eigenvalues --   -0.76971  -0.76812  -0.75960  -0.75751  -0.74941
 Alpha  occ. eigenvalues --   -0.74702  -0.72824  -0.72590  -0.71717  -0.71482
 Alpha  occ. eigenvalues --   -0.69953  -0.69657  -0.68922  -0.68742  -0.67692
 Alpha  occ. eigenvalues --   -0.67502  -0.67273  -0.67123  -0.65330  -0.65187
 Alpha  occ. eigenvalues --   -0.64895  -0.64670  -0.64661  -0.64563  -0.64316
 Alpha  occ. eigenvalues --   -0.64101  -0.62318  -0.62191  -0.60504  -0.60240
 Alpha  occ. eigenvalues --   -0.59852  -0.59707  -0.59034  -0.58890  -0.58549
 Alpha  occ. eigenvalues --   -0.58325  -0.57615  -0.57454  -0.57354  -0.57134
 Alpha  occ. eigenvalues --   -0.56361  -0.56101  -0.55998  -0.55807  -0.55576
 Alpha  occ. eigenvalues --   -0.55375  -0.55361  -0.55148  -0.54552  -0.54395
 Alpha  occ. eigenvalues --   -0.53940  -0.53835  -0.53355  -0.53273  -0.53127
 Alpha  occ. eigenvalues --   -0.53053  -0.52952  -0.52820  -0.52815  -0.52584
 Alpha  occ. eigenvalues --   -0.52483  -0.52302  -0.51958  -0.51748  -0.51667
 Alpha  occ. eigenvalues --   -0.51578  -0.51236  -0.51101  -0.50653  -0.50389
 Alpha  occ. eigenvalues --   -0.50082  -0.49982  -0.49892  -0.49767  -0.49568
 Alpha  occ. eigenvalues --   -0.49399  -0.49262  -0.49139  -0.49109  -0.49011
 Alpha  occ. eigenvalues --   -0.48629  -0.48520  -0.48489  -0.48465  -0.48272
 Alpha  occ. eigenvalues --   -0.48247  -0.47745  -0.47505  -0.47348  -0.47023
 Alpha  occ. eigenvalues --   -0.46844  -0.46612  -0.46601  -0.46474  -0.46407
 Alpha  occ. eigenvalues --   -0.46202  -0.46168  -0.45978  -0.45853  -0.45719
 Alpha  occ. eigenvalues --   -0.45247  -0.45106  -0.44617  -0.44565  -0.44423
 Alpha  occ. eigenvalues --   -0.44384  -0.44195  -0.44136  -0.44065  -0.44035
 Alpha  occ. eigenvalues --   -0.43982  -0.43847  -0.43523  -0.43466  -0.43433
 Alpha  occ. eigenvalues --   -0.43293  -0.43072  -0.42845  -0.42800  -0.42732
 Alpha  occ. eigenvalues --   -0.42676  -0.42454  -0.42053  -0.41873  -0.41748
 Alpha  occ. eigenvalues --   -0.41580  -0.41567  -0.41375  -0.41187  -0.40919
 Alpha  occ. eigenvalues --   -0.40895  -0.40889  -0.40640  -0.40616  -0.40615
 Alpha  occ. eigenvalues --   -0.40394  -0.40282  -0.40161  -0.39487  -0.39325
 Alpha  occ. eigenvalues --   -0.38515  -0.38252  -0.37792  -0.37582  -0.37369
 Alpha  occ. eigenvalues --   -0.37310  -0.37165  -0.37109  -0.36732  -0.36690
 Alpha  occ. eigenvalues --   -0.36225  -0.36122  -0.34336  -0.34148  -0.33785
 Alpha  occ. eigenvalues --   -0.33778  -0.33234  -0.33070  -0.31417  -0.31180
 Alpha  occ. eigenvalues --   -0.31085  -0.30870  -0.30062  -0.29843  -0.29508
 Alpha  occ. eigenvalues --   -0.29372  -0.29222  -0.29096  -0.24131  -0.23929
 Alpha  occ. eigenvalues --   -0.21180  -0.21011
 Alpha virt. eigenvalues --   -0.08829  -0.08685  -0.01804  -0.01579  -0.00119
 Alpha virt. eigenvalues --    0.00069   0.02155   0.02321   0.03058   0.03321
 Alpha virt. eigenvalues --    0.04671   0.04822   0.05085   0.05248   0.06140

 Mulliken charges:
               1
     1  Mg   0.838519
     2  C   -0.002933
     3  C   -0.094354
     4  C   -0.045887
     5  C   -0.063988
     6  N   -0.256769
     7  C   -0.052423
     8  C   -0.013954
     9  C   -0.086951
    10  C    0.046251
    11  C    0.104811
    12  C    0.053540
    13  C   -0.071940
    14  H    0.036650
    15  N   -0.433095
    16  C    0.168256
    17  C   -0.177427
    18  C   -0.004217
    19  C    0.148634
    20  C    0.110231
    21  C    0.012055
    22  O   -0.249550
    23  C    0.062651
    24  N   -0.341151
    25  C    0.041208
    26  C   -0.028184
    27  C   -0.024043
    28  C    0.074959
    29  C    0.076137
    30  C    0.035104
    31  C   -0.004479
    32  N   -0.310540
    33  C    0.080556
    34  C   -0.169646
    35  C    0.008505
    36  C    0.083045
    37  C    0.127284
    38  C    0.046256
    39  O   -0.187947
    40  C   -0.005334
    41  C    0.212937
    42  O   -0.256940
    43  O   -0.304892
    44  C    0.157422
    45  H   -0.017672
    46  H   -0.016840
    47  H   -0.041386
    48  H    0.001167
    49  H   -0.004210
    50  H    0.025602
    51  H    0.016431
    52  H    0.016678
    53  H    0.010678
    54  H    0.044330
    55  H    0.018052
    56  H    0.017583
    57  H    0.005854
    58  H    0.026860
    59  H    0.038738
    60  H    0.037478
    61  H    0.035426
    62  H    0.030711
    63  H    0.016583
    64  H    0.009579
    65  H    0.023279
    66  H    0.012538
    67  H    0.004844
    68  H    0.006546
    69  H    0.004738
    70  H    0.008928
    71  H    0.018075
    72  H    0.028845
    73  H    0.047739
    74  H    0.009107
    75  H    0.046185
    76  H    0.035265
    77  H    0.043283
    78  H    0.046312
    79  H    0.054309
    80  Mg   0.838081
    81  C   -0.016766
    82  C   -0.087893
    83  C   -0.045393
    84  C   -0.064273
    85  N   -0.254497
    86  C   -0.049646
    87  C   -0.015092
    88  C   -0.090582
    89  C    0.045810
    90  C    0.114434
    91  C    0.062602
    92  C   -0.077623
    93  H    0.034588
    94  N   -0.423456
    95  C    0.162842
    96  C   -0.174762
    97  C   -0.007881
    98  C    0.152018
    99  C    0.099431
   100  C    0.015506
   101  O   -0.253320
   102  C    0.061241
   103  N   -0.349923
   104  C    0.037528
   105  C   -0.019858
   106  C   -0.034919
   107  C    0.088993
   108  C    0.073617
   109  C    0.034705
   110  C   -0.007624
   111  N   -0.324246
   112  C    0.078574
   113  C   -0.162515
   114  C    0.002552
   115  C    0.096302
   116  C    0.131315
   117  C    0.042855
   118  O   -0.187703
   119  C    0.000710
   120  C    0.211150
   121  O   -0.251166
   122  O   -0.305602
   123  C    0.152140
   124  H   -0.020208
   125  H   -0.015697
   126  H   -0.040073
   127  H   -0.000776
   128  H   -0.004875
   129  H    0.023100
   130  H    0.014833
   131  H    0.015128
   132  H    0.013857
   133  H    0.037701
   134  H    0.020473
   135  H    0.019295
   136  H    0.008317
   137  H    0.026039
   138  H    0.039452
   139  H    0.038238
   140  H    0.036191
   141  H    0.033681
   142  H    0.014155
   143  H    0.012980
   144  H    0.024732
   145  H    0.011903
   146  H    0.005913
   147  H    0.006092
   148  H    0.003838
   149  H    0.010768
   150  H    0.017788
   151  H    0.030080
   152  H    0.045757
   153  H    0.008466
   154  H    0.048638
   155  H    0.035541
   156  H    0.043727
   157  H    0.049184
   158  H    0.053505
 Sum of Mulliken charges =  -0.00000

 Dipole moment (field-independent basis, Debye):
    X=             -3.8170    Y=             -2.1763    Z=             -7.3903  Tot=              8.5978
 Quadrupole moment (field-independent basis, Debye-Ang):
   XX=           -518.1340   YY=           -543.3537   ZZ=           -455.7105
   XY=            -17.9565   XZ=              2.7297   YZ=            -40.7216

 Normal termination of Gaussian 16 at Sat Sep  4 10:25:45 2021.
