 Gaussian 16, Revision A.03,
 Gaussian 16:  ES64L-G16RevA.03 25-Dec-2016

 -----------------------------------
 #p cam-b3lyp/Def2SVP td=(nstates=5)
 -----------------------------------

 --------------------------------
 TDDFT excited states in gaussian
 --------------------------------
 Symbolic Z-matrix:
 Charge =  0 Multiplicity = 1

                         Standard orientation:
 ---------------------------------------------------------------------
 Center     Atomic      Atomic             Coordinates (Angstroms)
 Number     Number       Type             X           Y           Z
 ---------------------------------------------------------------------
      1         12           0       15.936460   -0.642470    0.495067
      2          6           0       16.211304    2.093797   -1.796114
      3          6           0       16.732456    1.553995    2.982032
      4          6           0       16.145834   -3.118066    2.465908
      5          6           0       16.285265   -2.774807   -2.239368
      6          7           0       16.390121    1.524151    0.470785
      7          6           0       16.403320    2.468735   -0.464500
      8          6           0       16.565423    3.906969    0.112197
      9          6           0       17.274835    3.545790    1.493603
     10          6           0       16.740488    2.136648    1.679925
     11          6           0       18.796062    3.485858    1.399908
     12          6           0       15.187411    4.613617    0.343414
     13          6           0       15.260731    6.122901    0.592490
     14          1           0       14.200992    6.971396    0.068698
     15          7           0       15.893561   -0.715980    2.468796
     16          6           0       16.235651    0.277584    3.323834
     17          6           0       16.032830   -0.267028    4.683592
     18          6           0       15.726783   -1.718564    4.551405
     19          6           0       15.938350   -1.917134    3.140311
     20          6           0       16.087736    0.572564    5.922874
     21          6           0       15.319999   -2.763509    5.541733
     22          8           0       15.329912   -4.010086    5.257970
     23          6           0       14.990016   -2.290018    6.898184
     24          7           0       16.399709   -2.656543    0.200882
     25          6           0       16.362273   -3.528413    1.214502
     26          6           0       16.449859   -4.942491    0.721906
     27          6           0       16.310233   -4.866573   -0.866959
     28          6           0       16.244884   -3.327393   -1.024837
     29          6           0       17.734579   -5.699558    1.085714
     30          6           0       15.194170   -5.722687   -1.516490
     31          6           0       13.837780   -5.187976   -1.114758
     32          7           0       16.024917   -0.421662   -1.662353
     33          6           0       16.195936   -1.442920   -2.608112
     34          6           0       16.302028   -0.795499   -3.928588
     35          6           0       16.201312    0.567295   -3.655655
     36          6           0       16.068719    0.760459   -2.250878
     37          6           0       16.526982   -1.459582   -5.166661
     38          6           0       16.199595    1.906540   -4.221586
     39          8           0       16.186467    2.364756   -5.364984
     40          6           0       16.328402    2.954430   -3.029461
     41          6           0       15.287461    4.018885   -3.245532
     42          8           0       14.071618    3.752161   -3.156360
     43          8           0       15.882600    5.220825   -3.286659
     44          6           0       14.902257    6.324315   -3.469394
     45          1           0       17.201131    2.096035    3.805730
     46          1           0       16.113832   -4.007405    3.098750
     47          1           0       16.310548   -3.380809   -3.146878
     48          1           0       17.207741    4.562723   -0.475883
     49          1           0       16.936719    4.189677    2.305274
     50          1           0       19.135464    3.574587    0.367990
     51          1           0       19.074926    2.515113    1.810251
     52          1           0       19.253946    4.229722    2.052432
     53          1           0       14.772140    4.288138    1.297183
     54          1           0       14.509205    4.417932   -0.487892
     55          1           0       16.238667    6.524001    0.324779
     56          1           0       15.181425    6.296193    1.665747
     57          1           0       16.495006    1.561980    5.718591
     58          1           0       16.816899    0.110761    6.588282
     59          1           0       15.120310    0.631520    6.421816
     60          1           0       15.853352   -1.774427    7.319330
     61          1           0       14.635829   -3.163890    7.443847
     62          1           0       14.193615   -1.548432    6.829298
     63          1           0       15.637873   -5.547434    1.123341
     64          1           0       17.220660   -5.188034   -1.373378
     65          1           0       17.557036   -6.625392    1.633451
     66          1           0       18.373627   -5.024935    1.654742
     67          1           0       18.376340   -5.943831    0.239610
     68          1           0       15.251030   -6.751504   -1.162583
     69          1           0       15.245963   -5.743108   -2.605136
     70          1           0       13.670124   -5.653852   -0.144354
     71          1           0       13.078471   -5.498429   -1.833283
     72          1           0       13.865511   -4.109483   -0.958009
     73          1           0       15.850957   -0.999112   -5.887027
     74          1           0       16.344372   -2.530484   -5.080486
     75          1           0       17.578901   -1.227348   -5.332158
     76          1           0       17.340164    3.356343   -3.073342
     77          1           0       15.210534    6.884636   -4.352140
     78          1           0       14.857497    6.859323   -2.520622
     79          1           0       13.892074    6.029212   -3.755371
     80         12           0      -15.789986   -0.643207   -0.514762
     81          6           0      -16.907341    1.795764    1.868941
     82          6           0      -15.749770    1.859201   -2.832292
     83          6           0      -15.242202   -2.842907   -2.734818
     84          6           0      -16.997442   -3.100338    1.641681
     85          7           0      -16.285021    1.508192   -0.378071
     86          6           0      -16.639023    2.335564    0.593772
     87          6           0      -16.631622    3.835924    0.195741
     88          6           0      -16.820335    3.664999   -1.389835
     89          6           0      -16.217118    2.272098   -1.559033
     90          6           0      -18.276770    3.610259   -1.820111
     91          6           0      -15.271700    4.538913    0.539866
     92          6           0      -15.300528    6.067058    0.464313
     93          1           0      -14.499877    6.826447    1.420733
     94          7           0      -15.067938   -0.459412   -2.354171
     95          6           0      -15.117987    0.634865   -3.142429
     96          6           0      -14.466747    0.251606   -4.404632
     97          6           0      -14.175197   -1.207001   -4.358018
     98          6           0      -14.850671   -1.571687   -3.128865
     99          6           0      -14.109648    1.246214   -5.470774
    100          6           0      -13.424885   -2.124482   -5.275336
    101          8           0      -13.499312   -3.398982   -5.161613
    102          6           0      -12.674887   -1.489004   -6.368568
    103          7           0      -16.264785   -2.663043   -0.645733
    104          6           0      -15.862464   -3.401156   -1.695131
    105          6           0      -16.078724   -4.873932   -1.441073
    106          6           0      -16.488137   -4.988366    0.100637
    107          6           0      -16.526202   -3.487828    0.464409
    108          6           0      -17.146675   -5.547785   -2.302337
    109          6           0      -15.639339   -5.942094    0.985293
    110          6           0      -14.237875   -5.395657    1.135919
    111          7           0      -16.606911   -0.692964    1.484797
    112          6           0      -17.073472   -1.825390    2.187661
    113          6           0      -17.641080   -1.342680    3.463289
    114          6           0      -17.484955    0.050359    3.403510
    115          6           0      -16.882243    0.412146    2.168457
    116          6           0      -18.248410   -2.153443    4.463256
    117          6           0      -17.702637    1.297950    4.099794
    118          8           0      -18.098790    1.608588    5.222426
    119          6           0      -17.453634    2.494166    3.083197
    120          6           0      -16.574127    3.506838    3.763986
    121          8           0      -15.402714    3.222578    4.069940
    122          8           0      -17.185668    4.705182    3.745071
    123          6           0      -16.347392    5.745055    4.399111
    124          1           0      -15.919563    2.516554   -3.685498
    125          1           0      -14.974971   -3.651765   -3.418782
    126          1           0      -17.304687   -3.812442    2.410568
    127          1           0      -17.447185    4.418914    0.606549
    128          1           0      -16.239003    4.401488   -1.938463
    129          1           0      -18.946048    3.576563   -0.973312
    130          1           0      -18.374103    2.711730   -2.415270
    131          1           0      -18.502808    4.442961   -2.492313
    132          1           0      -14.546657    4.325105   -0.255966
    133          1           0      -14.917232    4.231437    1.504457
    134          1           0      -16.324290    6.458502    0.423767
    135          1           0      -14.857657    6.375947   -0.485670
    136          1           0      -14.595893    2.214090   -5.297072
    137          1           0      -14.550650    0.884659   -6.406002
    138          1           0      -13.030903    1.350048   -5.605655
    139          1           0      -13.357276   -0.908658   -6.985029
    140          1           0      -12.133298   -2.299058   -6.860890
    141          1           0      -11.960358   -0.779534   -5.936469
    142          1           0      -15.165435   -5.432754   -1.604546
    143          1           0      -17.513408   -5.367456    0.222893
    144          1           0      -16.762745   -6.411668   -2.877130
    145          1           0      -17.567396   -4.805287   -2.967350
    146          1           0      -18.024286   -5.896641   -1.760774
    147          1           0      -15.541767   -6.918363    0.504121
    148          1           0      -16.063014   -6.109280    1.969944
    149          1           0      -13.739927   -5.738717    0.224084
    150          1           0      -13.760596   -5.804779    2.024085
    151          1           0      -14.238832   -4.299594    1.118547
    152          1           0      -17.876681   -1.802512    5.416747
    153          1           0      -18.023599   -3.207103    4.311427
    154          1           0      -19.302978   -1.928569    4.282719
    155          1           0      -18.427580    2.908726    2.820251
    156          1           0      -16.957221    6.198139    5.186833
    157          1           0      -16.004129    6.408695    3.583329
    158          1           0      -15.485349    5.411208    4.964680
 ---------------------------------------------------------------------

 SCF Done:  E(RCAM-B3LYP) =  -4069.81177867     A.U. after   19 cycles

 Excitation energies and oscillator strengths:

 Excited State   1:      Singlet-A      1.6754 eV  740.04 nm  f=0.2270  <S**2>=0.000
     310 -> 316        0.16881
     311 -> 313        0.66718
     312 -> 314        0.15983
     310 <- 316        0.10177
 This state for optimization and/or second-order correction.
 Total Energy, E(TD-HF/TD-DFT) =  -4069.75020983
 Copying the excited state density for this state as the 1-particle RhoCI density.

 Excited State   2:      Singlet-A      1.6801 eV  737.94 nm  f=0.5509  <S**2>=0.000
     309 -> 315        0.17080
     311 -> 313       -0.15979
     312 -> 314        0.66681
     309 <- 315        0.10226

 Excited State   3:      Singlet-A      2.1862 eV  567.12 nm  f=0.0956  <S**2>=0.000
     310 -> 313        0.64213
     311 -> 316       -0.27304

 Excited State   4:      Singlet-A      2.1926 eV  565.47 nm  f=0.1045  <S**2>=0.000
     309 -> 314        0.64036
     312 -> 315       -0.27819

 Excited State   5:      Singlet-A      3.0630 eV  404.78 nm  f=0.0000  <S**2>=0.000
     312 -> 313        0.70710

 The electronic state is 1-A.
 Alpha  occ. eigenvalues --  -46.87770 -46.87661 -19.26354 -19.26264 -19.19164
 Alpha  occ. eigenvalues --  -19.18998 -19.18785 -19.18709 -19.18146 -19.18054
 Alpha  occ. eigenvalues --  -14.42498 -14.42424 -14.41423 -14.41360 -14.39376
 Alpha  occ. eigenvalues --  -14.39352 -14.38601 -14.38561 -10.39094 -10.39058
 Alpha  occ. eigenvalues --  -10.35418 -10.35386 -10.34366 -10.34231 -10.31761
 Alpha  occ. eigenvalues --  -10.31660 -10.31380 -10.31310 -10.31023 -10.30882
 Alpha  occ. eigenvalues --  -10.30544 -10.30481 -10.30398 -10.30362 -10.30180
 Alpha  occ. eigenvalues --  -10.30141 -10.29896 -10.29895 -10.29604 -10.29436
 Alpha  occ. eigenvalues --  -10.29400 -10.29227 -10.28724 -10.28720 -10.28654
 Alpha  occ. eigenvalues --  -10.28514 -10.28405 -10.28338 -10.28141 -10.28092
 Alpha  occ. eigenvalues --  -10.28001 -10.27767 -10.27701 -10.27669 -10.27557
 Alpha  occ. eigenvalues --  -10.27519 -10.27484 -10.27474 -10.27465 -10.27460
 Alpha  occ. eigenvalues --  -10.27452 -10.27423 -10.27378 -10.27376 -10.27135
 Alpha  occ. eigenvalues --  -10.27053 -10.26693 -10.26679 -10.26404 -10.26377
 Alpha  occ. eigenvalues --  -10.26210 -10.26156 -10.26138 -10.26027 -10.25993
 Alpha  occ. eigenvalues --  -10.25935 -10.25855 -10.25821 -10.25409 -10.25399
 Alpha  occ. eigenvalues --  -10.24874 -10.24807 -10.24761 -10.24730 -10.24690
 Alpha  occ. eigenvalues --  -10.24658  -3.16513  -3.16411  -1.91394  -1.91293
 Alpha  occ. eigenvalues --   -1.90981  -1.90881  -1.90823  -1.90718  -1.16647
 Alpha  occ. eigenvalues --   -1.16612  -1.08661  -1.08604  -1.07186  -1.06961
 Alpha  occ. eigenvalues --   -1.06949  -1.06621  -1.04555  -1.04495  -1.03734
 Alpha  occ. eigenvalues --   -1.03663  -1.03207  -1.03039  -1.02385  -1.02112
 Alpha  occ. eigenvalues --   -0.91988  -0.91947  -0.89495  -0.89493  -0.89163
 Alpha  occ. eigenvalues --   -0.89152  -0.88260  -0.88221  -0.87845  -0.87796
 Alpha  occ. eigenvalues --   -0.87684  -0.87647  -0.87245  -0.87117  -0.85000
 Alpha  occ. eigenvalues --   -0.84956  -0.83910  -0.83877  -0.82938  -0.82927
 Alpha  occ. eigenvalues --   -0.82652  -0.82622  -0.81599  -0.81562  -0.80571
 Alpha  occ. eigenvalues --   -0.80443  -0.78770  -0.78634  -0.77192  -0.77145
 Alpha  occ. eigenvalues --   -0.76909  -0.76900  -0.75899  -0.75840  -0.74872
 Alpha  occ. eigenvalues --   -0.74804  -0.72748  -0.72700  -0.71647  -0.71582
 Alpha  occ. eigenvalues --   -0.69880  -0.69758  -0.68847  -0.68827  -0.67615
 Alpha  occ. eigenvalues --   -0.67602  -0.67198  -0.67193  -0.65272  -0.65261
 Alpha  occ. eigenvalues --   -0.64828  -0.64771  -0.64655  -0.64595  -0.64243
 Alpha  occ. eigenvalues --   -0.64204  -0.62281  -0.62274  -0.60414  -0.60337
 Alpha  occ. eigenvalues --   -0.59797  -0.59779  -0.58994  -0.58962  -0.58478
 Alpha  occ. eigenvalues --   -0.58426  -0.57561  -0.57557  -0.57283  -0.57236
 Alpha  occ. eigenvalues --   -0.56284  -0.56205  -0.55956  -0.55888  -0.55493
 Alpha  occ. eigenvalues --   -0.55451  -0.55314  -0.55249  -0.54499  -0.54490
 Alpha  occ. eigenvalues --   -0.53913  -0.53870  -0.53272  -0.53227  -0.53196
 Alpha  occ. eigenvalues --   -0.53141  -0.52903  -0.52890  -0.52728  -0.52664
 Alpha  occ. eigenvalues --   -0.52411  -0.52401  -0.51891  -0.51888  -0.51658
 Alpha  occ. eigenvalues --   -0.51590  -0.51203  -0.51171  -0.50542  -0.50470
 Alpha  occ. eigenvalues --   -0.50004  -0.49979  -0.49891  -0.49867  -0.49488
 Alpha  occ. eigenvalues --   -0.49486  -0.49202  -0.49189  -0.49106  -0.49071
 Alpha  occ. eigenvalues --   -0.48568  -0.48560  -0.48435  -0.48418  -0.48377
 Alpha  occ. eigenvalues --   -0.48335  -0.47668  -0.47594  -0.47270  -0.47117
 Alpha  occ. eigenvalues --   -0.46771  -0.46710  -0.46554  -0.46530  -0.46333
 Alpha  occ. eigenvalues --   -0.46271  -0.46137  -0.46087  -0.45825  -0.45798
 Alpha  occ. eigenvalues --   -0.45209  -0.45175  -0.44553  -0.44516  -0.44479
 Alpha  occ. eigenvalues --   -0.44476  -0.44128  -0.44118  -0.44078  -0.44063
 Alpha  occ. eigenvalues --   -0.43993  -0.43937  -0.43556  -0.43471  -0.43387
 Alpha  occ. eigenvalues --   -0.43360  -0.43001  -0.42932  -0.42903  -0.42675
 Alpha  occ. eigenvalues --   -0.42629  -0.42553  -0.41983  -0.41965  -0.41679
 Alpha  occ. eigenvalues --   -0.41671  -0.41508  -0.41459  -0.41115  -0.40990
 Alpha  occ. eigenvalues --   -0.40843  -0.40794  -0.40720  -0.40697  -0.40545
 Alpha  occ. eigenvalues --   -0.40494  -0.40226  -0.40208  -0.39426  -0.39413
 Alpha  occ. eigenvalues --   -0.38442  -0.38351  -0.37723  -0.37654  -0.37294
 Alpha  occ. eigenvalues --   -0.37267  -0.37238  -0.37200  -0.36774  -0.36690
 Alpha  occ. eigenvalues --   -0.36219  -0.36168  -0.34260  -0.34254  -0.33865
 Alpha  occ. eigenvalues --   -0.33748  -0.33176  -0.33160  -0.31315  -0.31268
 Alpha  occ. eigenvalues --   -0.31009  -0.30973  -0.30006  -0.29958  -0.29422
 Alpha  occ. eigenvalues --   -0.29326  -0.29296  -0.29212  -0.24054  -0.24037
 Alpha  occ. eigenvalues --   -0.21117  -0.21101
 Alpha virt. eigenvalues --   -0.08792  -0.08748  -0.01723  -0.01684  -0.00030
 Alpha virt. eigenvalues --   -0.00027   0.02206   0.02225   0.03150   0.03229
 Alpha virt. eigenvalues --    0.04729   0.04744   0.05120   0.05162   0.06182

 Mulliken charges:
               1
     1  Mg   0.838771
     2  C   -0.002957
     3  C   -0.094110
     4  C   -0.045855
     5  C   -0.063959
     6  N   -0.256777
     7  C   -0.052486
     8  C   -0.014041
     9  C   -0.087013
    10  C    0.046335
    11  C    0.104822
    12  C    0.053482
    13  C   -0.071809
    14  H    0.036110
    15  N   -0.433153
    16  C    0.168443
    17  C   -0.177134
    18  C   -0.003970
    19  C    0.148731
    20  C    0.110174
    21  C    0.012317
    22  O   -0.249592
    23  C    0.062460
    24  N   -0.341130
    25  C    0.041242
    26  C   -0.028173
    27  C   -0.023966
    28  C    0.074827
    29  C    0.076176
    30  C    0.035129
    31  C   -0.004510
    32  N   -0.310452
    33  C    0.080398
    34  C   -0.169737
    35  C    0.008331
    36  C    0.082993
    37  C    0.127318
    38  C    0.046087
    39  O   -0.188527
    40  C   -0.005328
    41  C    0.212854
    42  O   -0.257089
    43  O   -0.304799
    44  C    0.157705
    45  H   -0.017598
    46  H   -0.016814
    47  H   -0.041520
    48  H    0.000904
    49  H   -0.004012
    50  H    0.025446
    51  H    0.016447
    52  H    0.016649
    53  H    0.011252
    54  H    0.044119
    55  H    0.017837
    56  H    0.017984
    57  H    0.005874
    58  H    0.026833
    59  H    0.039636
    60  H    0.037332
    61  H    0.035712
    62  H    0.031567
    63  H    0.016592
    64  H    0.009425
    65  H    0.023228
    66  H    0.012534
    67  H    0.004725
    68  H    0.006368
    69  H    0.004696
    70  H    0.008822
    71  H    0.018157
    72  H    0.028991
    73  H    0.047526
    74  H    0.009102
    75  H    0.045964
    76  H    0.035115
    77  H    0.042885
    78  H    0.046417
    79  H    0.053671
    80  Mg   0.837922
    81  C   -0.016810
    82  C   -0.087775
    83  C   -0.045500
    84  C   -0.064889
    85  N   -0.254578
    86  C   -0.049877
    87  C   -0.015114
    88  C   -0.090511
    89  C    0.045774
    90  C    0.114375
    91  C    0.062515
    92  C   -0.077916
    93  H    0.034902
    94  N   -0.423516
    95  C    0.162947
    96  C   -0.174586
    97  C   -0.007759
    98  C    0.152127
    99  C    0.099359
   100  C    0.015623
   101  O   -0.253132
   102  C    0.061157
   103  N   -0.350060
   104  C    0.037539
   105  C   -0.019837
   106  C   -0.034797
   107  C    0.088876
   108  C    0.073641
   109  C    0.034738
   110  C   -0.007684
   111  N   -0.324120
   112  C    0.078456
   113  C   -0.163160
   114  C    0.002205
   115  C    0.096198
   116  C    0.131488
   117  C    0.042358
   118  O   -0.187945
   119  C    0.000927
   120  C    0.211255
   121  O   -0.251008
   122  O   -0.305640
   123  C    0.152038
   124  H   -0.019621
   125  H   -0.015532
   126  H   -0.040485
   127  H   -0.000676
   128  H   -0.004282
   129  H    0.022429
   130  H    0.014422
   131  H    0.016300
   132  H    0.013971
   133  H    0.037677
   134  H    0.020760
   135  H    0.019642
   136  H    0.008773
   137  H    0.026186
   138  H    0.039927
   139  H    0.038263
   140  H    0.036510
   141  H    0.033985
   142  H    0.014452
   143  H    0.012384
   144  H    0.025183
   145  H    0.011633
   146  H    0.005648
   147  H    0.006274
   148  H    0.003617
   149  H    0.010984
   150  H    0.017940
   151  H    0.030108
   152  H    0.045977
   153  H    0.008505
   154  H    0.046896
   155  H    0.034988
   156  H    0.043871
   157  H    0.049513
   158  H    0.053574
 Sum of Mulliken charges =  -0.00000

 Dipole moment (field-independent basis, Debye):
    X=              1.4483    Y=              3.1575    Z=             -0.0289  Tot=              3.4740
 Quadrupole moment (field-independent basis, Debye-Ang):
   XX=           -442.7331   YY=           -460.5536   ZZ=           -536.9113
   XY=              1.3066   XZ=            130.6426   YZ=              6.4606

 Normal termination of Gaussian 16 at Sun Sep 12 11:55:55 2021.
