 Gaussian 16, Revision A.03,
 Gaussian 16:  ES64L-G16RevA.03 25-Dec-2016

 -----------------------------------
 #p cam-b3lyp/Def2SVP td=(nstates=5)
 -----------------------------------

 --------------------------------
 TDDFT excited states in gaussian
 --------------------------------
 Symbolic Z-matrix:
 Charge =  0 Multiplicity = 1

                         Standard orientation:
 ---------------------------------------------------------------------
 Center     Atomic      Atomic             Coordinates (Angstroms)
 Number     Number       Type             X           Y           Z
 ---------------------------------------------------------------------
      1         12           0       15.807093   -0.628444    0.436122
      2          6           0       16.111560    2.049736   -1.919057
      3          6           0       16.770488    1.582753    2.849738
      4          6           0       15.985660   -3.071592    2.450014
      5          6           0       15.981231   -2.825680   -2.263413
      6          7           0       16.343634    1.517650    0.352139
      7          6           0       16.362349    2.442606   -0.602470
      8          6           0       16.599436    3.884242   -0.061315
      9          6           0       17.339967    3.522209    1.303436
     10          6           0       16.757721    2.139201    1.536256
     11          6           0       18.853736    3.400325    1.161486
     12          6           0       15.258441    4.649221    0.199975
     13          6           0       15.398692    6.158980    0.415173
     14          1           0       14.355874    7.038394   -0.091296
     15          7           0       15.827261   -0.661804    2.411300
     16          6           0       16.236088    0.333886    3.233946
     17          6           0       16.057727   -0.175731    4.610594
     18          6           0       15.691203   -1.616317    4.518584
     19          6           0       15.847674   -1.850505    3.105767
     20          6           0       16.186581    0.684971    5.829749
     21          6           0       15.277353   -2.624894    5.543099
     22          8           0       15.229288   -3.876169    5.285079
     23          6           0       15.011492   -2.112430    6.899470
     24          7           0       16.181564   -2.664608    0.168835
     25          6           0       16.144088   -3.514438    1.201001
     26          6           0       16.160108   -4.940186    0.735247
     27          6           0       15.970594   -4.889713   -0.849458
     28          6           0       15.959939   -3.352514   -1.037012
     29          6           0       17.425829   -5.740273    1.072623
     30          6           0       14.801016   -5.713468   -1.444381
     31          6           0       13.480617   -5.117799   -1.009842
     32          7           0       15.832025   -0.453303   -1.727151
     33          6           0       15.931527   -1.498725   -2.656595
     34          6           0       16.018597   -0.881808   -3.992971
     35          6           0       15.980138    0.488954   -3.745224
     36          6           0       15.902116    0.714493   -2.341181
     37          6           0       16.176102   -1.578221   -5.223676
     38          6           0       16.011636    1.815959   -4.338454
     39          8           0       15.978191    2.252014   -5.490074
     40          6           0       16.220823    2.880916   -3.173149
     41          6           0       15.215449    3.981320   -3.377218
     42          8           0       13.993805    3.764694   -3.242964
     43          8           0       15.855192    5.157744   -3.462635
     44          6           0       14.912967    6.295395   -3.636177
     45          1           0       17.287123    2.121740    3.646308
     46          1           0       15.940222   -3.946494    3.101872
     47          1           0       15.952620   -3.449741   -3.158501
     48          1           0       17.246793    4.502510   -0.683486
     49          1           0       17.054431    4.194630    2.112163
     50          1           0       19.161704    3.455473    0.117439
     51          1           0       19.108163    2.427470    1.582570
     52          1           0       19.361732    4.138038    1.783175
     53          1           0       14.862885    4.359036    1.173314
     54          1           0       14.545771    4.464395   -0.604553
     55          1           0       16.382011    6.515792    0.107477
     56          1           0       15.362049    6.356111    1.486619
     57          1           0       16.624989    1.653339    5.591826
     58          1           0       16.919027    0.207707    6.480478
     59          1           0       15.239371    0.791849    6.358618
     60          1           0       15.907807   -1.623309    7.281477
     61          1           0       14.641986   -2.960829    7.474392
     62          1           0       14.242688   -1.341395    6.841205
     63          1           0       15.339053   -5.504607    1.175386
     64          1           0       16.850418   -5.256731   -1.378497
     65          1           0       17.230782   -6.647530    1.644939
     66          1           0       18.109271   -5.080525    1.606412
     67          1           0       18.029007   -6.026152    0.211306
     68          1           0       14.829589   -6.736652   -1.071254
     69          1           0       14.815615   -5.757088   -2.533480
     70          1           0       13.327443   -5.557719   -0.025038
     71          1           0       12.686249   -5.411880   -1.696652
     72          1           0       13.555499   -4.038404   -0.876483
     73          1           0       15.494839   -1.105460   -5.931027
     74          1           0       15.954948   -2.639181   -5.109404
     75          1           0       17.230150   -1.391051   -5.428142
     76          1           0       17.245426    3.241553   -3.258300
     77          1           0       15.213177    6.825809   -4.539930
     78          1           0       14.920742    6.850104   -2.697752
     79          1           0       13.883087    6.034987   -3.882904
     80         12           0      -15.911683    0.593804    0.464779
     81          6           0      -15.805433   -1.857360   -2.154288
     82          6           0      -16.502308   -1.969653    2.636057
     83          6           0      -16.457672    2.759852    2.718132
     84          6           0      -16.452621    2.999427   -1.998163
     85          7           0      -16.105989   -1.588317    0.160088
     86          6           0      -15.985440   -2.412119   -0.870043
     87          6           0      -15.981774   -3.917781   -0.492516
     88          6           0      -16.769144   -3.817573    0.903500
     89          6           0      -16.413261   -2.381421    1.282312
     90          6           0      -18.278251   -3.911435    0.751380
     91          6           0      -14.530636   -4.480794   -0.294405
     92          6           0      -14.436253   -6.006761   -0.229035
     93          1           0      -13.264385   -6.657110   -0.808897
     94          7           0      -15.920854    0.416441    2.441403
     95          6           0      -16.156681   -0.703299    3.156830
     96          6           0      -16.069254   -0.303730    4.569935
     97          6           0      -15.925695    1.176266    4.630903
     98          6           0      -16.121001    1.517729    3.236153
     99          6           0      -16.044329   -1.296005    5.696079
    100          6           0      -15.669411    2.128025    5.759917
    101          8           0      -15.819769    3.393333    5.621232
    102          6           0      -15.327811    1.528438    7.058102
    103          7           0      -16.595858    2.555903    0.398297
    104          6           0      -16.692353    3.292750    1.518863
    105          6           0      -16.939933    4.746973    1.195827
    106          6           0      -16.748023    4.874227   -0.386751
    107          6           0      -16.499468    3.389444   -0.731728
    108          6           0      -18.313879    5.290735    1.586957
    109          6           0      -15.726283    5.930830   -0.889060
    110          6           0      -14.325019    5.521034   -0.496741
    111          7           0      -15.916536    0.634358   -1.695399
    112          6           0      -16.192524    1.741672   -2.527119
    113          6           0      -16.188128    1.251278   -3.920649
    114          6           0      -15.930608   -0.122681   -3.800551
    115          6           0      -15.804847   -0.468148   -2.427839
    116          6           0      -16.450526    2.035369   -5.079305
    117          6           0      -15.747120   -1.361263   -4.522305
    118          8           0      -15.659170   -1.669694   -5.710102
    119          6           0      -15.783422   -2.562484   -3.482041
    120          6           0      -14.617899   -3.466770   -3.775872
    121          8           0      -13.451318   -3.065899   -3.617730
    122          8           0      -15.071275   -4.716295   -3.984466
    123          6           0      -13.951157   -5.652340   -4.268995
    124          1           0      -16.915619   -2.667744    3.364570
    125          1           0      -16.547991    3.566775    3.449010
    126          1           0      -16.515896    3.705292   -2.829086
    127          1           0      -16.521523   -4.559445   -1.178598
    128          1           0      -16.368074   -4.515184    1.634150
    129          1           0      -18.579411   -3.911468   -0.285660
    130          1           0      -18.679774   -3.045890    1.261928
    131          1           0      -18.658098   -4.783215    1.291790
    132          1           0      -14.183120   -4.227616    0.715483
    133          1           0      -13.871067   -4.110194   -1.054832
    134          1           0      -15.356423   -6.491921   -0.576675
    135          1           0      -14.355617   -6.304863    0.819130
    136          1           0      -16.332302   -2.298253    5.355532
    137          1           0      -16.837980   -1.007771    6.393864
    138          1           0      -15.091111   -1.304498    6.228978
    139          1           0      -16.131783    0.867635    7.373434
    140          1           0      -15.093352    2.368157    7.715200
    141          1           0      -14.437532    0.902471    6.930938
    142          1           0      -16.214701    5.381783    1.689944
    143          1           0      -17.683629    5.161155   -0.888883
    144          1           0      -18.260972    6.166779    2.260623
    145          1           0      -18.879203    4.491042    2.046792
    146          1           0      -18.952668    5.575058    0.752511
    147          1           0      -15.912941    6.895470   -0.410733
    148          1           0      -15.762332    6.090828   -1.961486
    149          1           0      -14.243015    5.878092    0.534209
    150          1           0      -13.590994    6.001566   -1.140439
    151          1           0      -14.225295    4.429571   -0.476497
    152          1           0      -15.714861    1.751919   -5.820216
    153          1           0      -16.403566    3.099629   -4.858159
    154          1           0      -17.468055    1.708500   -5.309661
    155          1           0      -16.739150   -3.073442   -3.604862
    156          1           0      -14.172190   -6.133302   -5.226857
    157          1           0      -13.877083   -6.308209   -3.381252
    158          1           0      -12.976713   -5.221991   -4.468314
 ---------------------------------------------------------------------

 SCF Done:  E(RCAM-B3LYP) =  -4069.81176059     A.U. after   19 cycles

 Excitation energies and oscillator strengths:

 Excited State   1:      Singlet-A      1.6753 eV  740.06 nm  f=0.2134  <S**2>=0.000
     310 -> 316        0.16859
     311 -> 313        0.66654
     312 -> 314       -0.16246
     310 <- 316        0.10163
 This state for optimization and/or second-order correction.
 Total Energy, E(TD-HF/TD-DFT) =  -4069.75019355
 Copying the excited state density for this state as the 1-particle RhoCI density.

 Excited State   2:      Singlet-A      1.6801 eV  737.95 nm  f=0.5641  <S**2>=0.000
     309 -> 315        0.17060
     311 -> 313        0.16241
     312 -> 314        0.66617
     309 <- 315        0.10214

 Excited State   3:      Singlet-A      2.1861 eV  567.16 nm  f=0.0956  <S**2>=0.000
     310 -> 313        0.64213
     311 -> 316       -0.27295

 Excited State   4:      Singlet-A      2.1925 eV  565.50 nm  f=0.1045  <S**2>=0.000
     309 -> 314        0.64036
     312 -> 315       -0.27813

 Excited State   5:      Singlet-A      3.0597 eV  405.22 nm  f=0.0000  <S**2>=0.000
     312 -> 313        0.70711

 The electronic state is 1-A.
 Alpha  occ. eigenvalues --  -46.87757 -46.87661 -19.26343 -19.26239 -19.19154
 Alpha  occ. eigenvalues --  -19.18975 -19.18778 -19.18716 -19.18128 -19.18049
 Alpha  occ. eigenvalues --  -14.42498 -14.42410 -14.41411 -14.41360 -14.39364
 Alpha  occ. eigenvalues --  -14.39352 -14.38600 -14.38547 -10.39085 -10.39035
 Alpha  occ. eigenvalues --  -10.35412 -10.35393 -10.34348 -10.34227 -10.31747
 Alpha  occ. eigenvalues --  -10.31633 -10.31365 -10.31309 -10.31023 -10.30869
 Alpha  occ. eigenvalues --  -10.30530 -10.30468 -10.30398 -10.30360 -10.30169
 Alpha  occ. eigenvalues --  -10.30142 -10.29895 -10.29882 -10.29591 -10.29438
 Alpha  occ. eigenvalues --  -10.29401 -10.29216 -10.28717 -10.28708 -10.28648
 Alpha  occ. eigenvalues --  -10.28495 -10.28405 -10.28325 -10.28140 -10.28077
 Alpha  occ. eigenvalues --  -10.28001 -10.27754 -10.27688 -10.27670 -10.27546
 Alpha  occ. eigenvalues --  -10.27520 -10.27484 -10.27468 -10.27465 -10.27464
 Alpha  occ. eigenvalues --  -10.27444 -10.27413 -10.27378 -10.27364 -10.27117
 Alpha  occ. eigenvalues --  -10.27048 -10.26688 -10.26662 -10.26418 -10.26375
 Alpha  occ. eigenvalues --  -10.26197 -10.26146 -10.26138 -10.26026 -10.25980
 Alpha  occ. eigenvalues --  -10.25935 -10.25850 -10.25803 -10.25402 -10.25401
 Alpha  occ. eigenvalues --  -10.24873 -10.24793 -10.24749 -10.24729 -10.24690
 Alpha  occ. eigenvalues --  -10.24647  -3.16500  -3.16411  -1.91382  -1.91293
 Alpha  occ. eigenvalues --   -1.90968  -1.90881  -1.90810  -1.90718  -1.16637
 Alpha  occ. eigenvalues --   -1.16588  -1.08656  -1.08586  -1.07180  -1.06968
 Alpha  occ. eigenvalues --   -1.06939  -1.06597  -1.04541  -1.04495  -1.03721
 Alpha  occ. eigenvalues --   -1.03663  -1.03195  -1.03039  -1.02372  -1.02112
 Alpha  occ. eigenvalues --   -0.91987  -0.91932  -0.89495  -0.89481  -0.89150
 Alpha  occ. eigenvalues --   -0.89148  -0.88249  -0.88221  -0.87831  -0.87793
 Alpha  occ. eigenvalues --   -0.87684  -0.87633  -0.87236  -0.87121  -0.84999
 Alpha  occ. eigenvalues --   -0.84942  -0.83898  -0.83877  -0.82933  -0.82930
 Alpha  occ. eigenvalues --   -0.82652  -0.82609  -0.81593  -0.81544  -0.80556
 Alpha  occ. eigenvalues --   -0.80441  -0.78759  -0.78636  -0.77179  -0.77144
 Alpha  occ. eigenvalues --   -0.76897  -0.76894  -0.75883  -0.75837  -0.74860
 Alpha  occ. eigenvalues --   -0.74804  -0.72735  -0.72699  -0.71633  -0.71581
 Alpha  occ. eigenvalues --   -0.69869  -0.69758  -0.68833  -0.68826  -0.67602
 Alpha  occ. eigenvalues --   -0.67601  -0.67198  -0.67179  -0.65270  -0.65246
 Alpha  occ. eigenvalues --   -0.64813  -0.64770  -0.64652  -0.64580  -0.64231
 Alpha  occ. eigenvalues --   -0.64204  -0.62275  -0.62255  -0.60404  -0.60341
 Alpha  occ. eigenvalues --   -0.59796  -0.59764  -0.58993  -0.58948  -0.58464
 Alpha  occ. eigenvalues --   -0.58425  -0.57552  -0.57543  -0.57270  -0.57237
 Alpha  occ. eigenvalues --   -0.56270  -0.56204  -0.55936  -0.55883  -0.55482
 Alpha  occ. eigenvalues --   -0.55451  -0.55300  -0.55247  -0.54486  -0.54483
 Alpha  occ. eigenvalues --   -0.53911  -0.53854  -0.53260  -0.53228  -0.53182
 Alpha  occ. eigenvalues --   -0.53141  -0.52900  -0.52874  -0.52718  -0.52669
 Alpha  occ. eigenvalues --   -0.52401  -0.52399  -0.51884  -0.51875  -0.51657
 Alpha  occ. eigenvalues --   -0.51576  -0.51200  -0.51156  -0.50535  -0.50477
 Alpha  occ. eigenvalues --   -0.49993  -0.49980  -0.49880  -0.49868  -0.49488
 Alpha  occ. eigenvalues --   -0.49475  -0.49202  -0.49175  -0.49104  -0.49056
 Alpha  occ. eigenvalues --   -0.48557  -0.48552  -0.48424  -0.48406  -0.48377
 Alpha  occ. eigenvalues --   -0.48339  -0.47656  -0.47594  -0.47258  -0.47119
 Alpha  occ. eigenvalues --   -0.46758  -0.46709  -0.46553  -0.46515  -0.46320
 Alpha  occ. eigenvalues --   -0.46270  -0.46123  -0.46085  -0.45820  -0.45781
 Alpha  occ. eigenvalues --   -0.45210  -0.45164  -0.44537  -0.44513  -0.44476
 Alpha  occ. eigenvalues --   -0.44468  -0.44127  -0.44105  -0.44078  -0.44049
 Alpha  occ. eigenvalues --   -0.43980  -0.43939  -0.43550  -0.43453  -0.43385
 Alpha  occ. eigenvalues --   -0.43346  -0.42988  -0.42927  -0.42899  -0.42657
 Alpha  occ. eigenvalues --   -0.42614  -0.42554  -0.41970  -0.41963  -0.41669
 Alpha  occ. eigenvalues --   -0.41664  -0.41493  -0.41458  -0.41102  -0.40990
 Alpha  occ. eigenvalues --   -0.40829  -0.40786  -0.40722  -0.40698  -0.40533
 Alpha  occ. eigenvalues --   -0.40494  -0.40225  -0.40192  -0.39426  -0.39402
 Alpha  occ. eigenvalues --   -0.38431  -0.38351  -0.37707  -0.37651  -0.37282
 Alpha  occ. eigenvalues --   -0.37266  -0.37223  -0.37198  -0.36767  -0.36671
 Alpha  occ. eigenvalues --   -0.36216  -0.36152  -0.34253  -0.34246  -0.33857
 Alpha  occ. eigenvalues --   -0.33726  -0.33176  -0.33147  -0.31308  -0.31275
 Alpha  occ. eigenvalues --   -0.30996  -0.30973  -0.29988  -0.29954  -0.29410
 Alpha  occ. eigenvalues --   -0.29328  -0.29282  -0.29211  -0.24041  -0.24036
 Alpha  occ. eigenvalues --   -0.21117  -0.21088
 Alpha virt. eigenvalues --   -0.08792  -0.08735  -0.01711  -0.01684  -0.00029
 Alpha virt. eigenvalues --   -0.00020   0.02207   0.02240   0.03165   0.03228
 Alpha virt. eigenvalues --    0.04730   0.04758   0.05142   0.05170   0.06186

 Mulliken charges:
               1
     1  Mg   0.838809
     2  C   -0.002934
     3  C   -0.094107
     4  C   -0.045874
     5  C   -0.063980
     6  N   -0.256775
     7  C   -0.052463
     8  C   -0.014017
     9  C   -0.087029
    10  C    0.046340
    11  C    0.104830
    12  C    0.053460
    13  C   -0.071826
    14  H    0.036223
    15  N   -0.433146
    16  C    0.168420
    17  C   -0.177160
    18  C   -0.004019
    19  C    0.148705
    20  C    0.110181
    21  C    0.012269
    22  O   -0.249668
    23  C    0.062484
    24  N   -0.341161
    25  C    0.041248
    26  C   -0.028159
    27  C   -0.023987
    28  C    0.074872
    29  C    0.076192
    30  C    0.035131
    31  C   -0.004504
    32  N   -0.310478
    33  C    0.080443
    34  C   -0.169685
    35  C    0.008370
    36  C    0.083011
    37  C    0.127303
    38  C    0.046144
    39  O   -0.188399
    40  C   -0.005335
    41  C    0.212865
    42  O   -0.257024
    43  O   -0.304826
    44  C    0.157666
    45  H   -0.017634
    46  H   -0.016882
    47  H   -0.041492
    48  H    0.000931
    49  H   -0.004027
    50  H    0.025459
    51  H    0.016417
    52  H    0.016629
    53  H    0.011231
    54  H    0.044178
    55  H    0.017832
    56  H    0.017943
    57  H    0.005870
    58  H    0.026769
    59  H    0.039563
    60  H    0.037313
    61  H    0.035595
    62  H    0.031537
    63  H    0.016543
    64  H    0.009426
    65  H    0.023160
    66  H    0.012521
    67  H    0.004718
    68  H    0.006317
    69  H    0.004742
    70  H    0.008755
    71  H    0.018202
    72  H    0.029022
    73  H    0.047630
    74  H    0.009116
    75  H    0.045974
    76  H    0.035122
    77  H    0.042944
    78  H    0.046397
    79  H    0.053766
    80  Mg   0.837856
    81  C   -0.016780
    82  C   -0.087770
    83  C   -0.045514
    84  C   -0.064901
    85  N   -0.254563
    86  C   -0.049850
    87  C   -0.015099
    88  C   -0.090525
    89  C    0.045757
    90  C    0.114380
    91  C    0.062526
    92  C   -0.077929
    93  H    0.035008
    94  N   -0.423468
    95  C    0.162917
    96  C   -0.174623
    97  C   -0.007810
    98  C    0.152131
    99  C    0.099360
   100  C    0.015562
   101  O   -0.253204
   102  C    0.061204
   103  N   -0.350072
   104  C    0.037527
   105  C   -0.019828
   106  C   -0.034807
   107  C    0.088938
   108  C    0.073667
   109  C    0.034722
   110  C   -0.007678
   111  N   -0.324122
   112  C    0.078476
   113  C   -0.163122
   114  C    0.002270
   115  C    0.096212
   116  C    0.131484
   117  C    0.042406
   118  O   -0.187809
   119  C    0.000911
   120  C    0.211268
   121  O   -0.250951
   122  O   -0.305662
   123  C    0.152001
   124  H   -0.019668
   125  H   -0.015596
   126  H   -0.040440
   127  H   -0.000648
   128  H   -0.004302
   129  H    0.022451
   130  H    0.014399
   131  H    0.016280
   132  H    0.013934
   133  H    0.037727
   134  H    0.020764
   135  H    0.019592
   136  H    0.008768
   137  H    0.026118
   138  H    0.039817
   139  H    0.038237
   140  H    0.036376
   141  H    0.033922
   142  H    0.014408
   143  H    0.012395
   144  H    0.025123
   145  H    0.011617
   146  H    0.005653
   147  H    0.006247
   148  H    0.003672
   149  H    0.010919
   150  H    0.018001
   151  H    0.030124
   152  H    0.046080
   153  H    0.008527
   154  H    0.046915
   155  H    0.035006
   156  H    0.043932
   157  H    0.049490
   158  H    0.053663
 Sum of Mulliken charges =  -0.00000

 Dipole moment (field-independent basis, Debye):
    X=              0.3234    Y=             -0.7230    Z=              7.4507  Tot=              7.4926
 Quadrupole moment (field-independent basis, Debye-Ang):
   XX=           -395.9836   YY=           -459.4831   ZZ=           -539.3804
   XY=             55.0702   XZ=             10.2835   YZ=              4.4301

 Normal termination of Gaussian 16 at Sun Sep 12 12:59:42 2021.
