 Gaussian 16, Revision A.03,
 Gaussian 16:  ES64L-G16RevA.03 25-Dec-2016

 -----------------------------------
 #p cam-b3lyp/Def2SVP td=(nstates=5)
 -----------------------------------

 --------------------------------
 TDDFT excited states in gaussian
 --------------------------------
 Symbolic Z-matrix:
 Charge =  0 Multiplicity = 1

                         Standard orientation:
 ---------------------------------------------------------------------
 Center     Atomic      Atomic             Coordinates (Angstroms)
 Number     Number       Type             X           Y           Z
 ---------------------------------------------------------------------
      1         12           0       -3.317270   -1.995560   -0.318245
      2          6           0       -4.738770    1.260957    0.113784
      3          6           0       -4.014791   -1.695704   -3.644897
      4          6           0       -2.487423   -5.037650   -0.655382
      5          6           0       -3.773271   -2.486710    3.101769
      6          7           0       -4.257411   -0.373846   -1.495880
      7          6           0       -4.703867    0.847477   -1.219806
      8          6           0       -5.061219    1.676364   -2.489696
      9          6           0       -5.332151    0.477273   -3.504967
     10          6           0       -4.455595   -0.585141   -2.865554
     11          6           0       -6.777412   -0.010270   -3.500257
     12          6           0       -3.870912    2.574182   -2.968049
     13          6           0       -4.235707    3.650278   -3.994838
     14          1           0       -3.551670    4.933312   -3.937692
     15          7           0       -2.809080   -3.013509   -1.933291
     16          6           0       -3.169220   -2.739189   -3.210136
     17          6           0       -2.540025   -3.785219   -4.044771
     18          6           0       -1.942058   -4.797900   -3.130984
     19          6           0       -2.417740   -4.331173   -1.853772
     20          6           0       -2.505072   -3.733237   -5.541376
     21          6           0       -1.087591   -6.002077   -3.371770
     22          8           0       -0.870713   -6.874904   -2.463084
     23          6           0       -0.576632   -6.181505   -4.742817
     24          7           0       -3.352094   -3.629321    0.980695
     25          6           0       -2.881825   -4.822616    0.601381
     26          6           0       -2.746925   -5.752996    1.770199
     27          6           0       -2.995313   -4.864438    3.073472
     28          6           0       -3.328899   -3.519476    2.382050
     29          6           0       -3.701474   -6.954951    1.782484
     30          6           0       -1.888794   -4.881833    4.157785
     31          6           0       -0.639868   -4.214120    3.627275
     32          7           0       -3.944833   -0.782393    1.368597
     33          6           0       -4.083927   -1.198100    2.700706
     34          6           0       -4.636729   -0.057317    3.453761
     35          6           0       -4.797382    0.943912    2.497949
     36          6           0       -4.396525    0.450731    1.223438
     37          6           0       -4.976901   -0.057029    4.835324
     38          6           0       -5.237573    2.307657    2.252412
     39          8           0       -5.593101    3.246036    2.966930
     40          6           0       -5.331862    2.527966    0.678118
     41          6           0       -4.645774    3.828320    0.359258
     42          8           0       -3.413937    3.956184    0.512866
     43          8           0       -5.498281    4.632051   -0.294799
     44          6           0       -4.870974    5.928269   -0.666901
     45          1           0       -4.396324   -1.811946   -4.661195
     46          1           0       -2.105119   -6.059282   -0.705879
     47          1           0       -3.862826   -2.538519    4.188392
     48          1           0       -5.955647    2.292156   -2.393671
     49          1           0       -4.977623    0.706734   -4.509647
     50          1           0       -7.354452    0.461577   -2.705080
     51          1           0       -6.720719   -1.087379   -3.341778
     52          1           0       -7.234929    0.124665   -4.480689
     53          1           0       -3.184727    1.973312   -3.564846
     54          1           0       -3.373923    3.041460   -2.117179
     55          1           0       -5.314794    3.795036   -4.054223
     56          1           0       -3.956244    3.287292   -4.983950
     57          1           0       -3.167630   -2.961325   -5.930881
     58          1           0       -2.934601   -4.667463   -5.902535
     59          1           0       -1.490544   -3.622699   -5.924580
     60          1           0       -1.416904   -6.246766   -5.434361
     61          1           0        0.086692   -7.044922   -4.705924
     62          1           0       -0.012717   -5.293079   -5.028558
     63          1           0       -1.746587   -6.181604    1.815422
     64          1           0       -3.896390   -5.165681    3.608250
     65          1           0       -3.192509   -7.917801    1.833271
     66          1           0       -4.333120   -6.892738    0.896796
     67          1           0       -4.444156   -6.940703    2.579753
     68          1           0       -1.621587   -5.907367    4.410427
     69          1           0       -2.181453   -4.378706    5.079449
     70          1           0       -0.151157   -5.015842    3.074794
     71          1           0       -0.013687   -3.869458    4.450874
     72          1           0       -0.882078   -3.426848    2.913115
     73          1           0       -4.609833    0.886238    5.239646
     74          1           0       -4.534628   -0.908404    5.352197
     75          1           0       -6.063166   -0.122950    4.775834
     76          1           0       -6.392024    2.552353    0.427952
     77          1           0       -5.494642    6.718447   -0.248701
     78          1           0       -4.737019    5.908480   -1.748598
     79          1           0       -3.912525    6.152332   -0.197315
     80         12           0        4.130748    0.665096    0.445024
     81          6           0        1.923259    3.491109    0.585482
     82          6           0        4.340744    1.185318   -2.919473
     83          6           0        5.710302   -2.077474    0.219860
     84          6           0        2.863046   -0.303413    3.543511
     85          7           0        3.205767    2.176143   -0.879136
     86          6           0        2.433745    3.238194   -0.704818
     87          6           0        2.260516    4.121923   -1.969175
     88          6           0        2.570302    3.009047   -3.084695
     89          6           0        3.457432    2.077725   -2.261095
     90          6           0        1.337897    2.233655   -3.519771
     91          6           0        3.300014    5.295959   -2.024840
     92          6           0        2.995142    6.376045   -3.065141
     93          1           0        3.323926    7.762550   -2.745816
     94          7           0        5.297918   -0.029660   -1.001899
     95          6           0        5.261929    0.306466   -2.308420
     96          6           0        6.308763   -0.496372   -2.959372
     97          6           0        6.854716   -1.454374   -1.959941
     98          6           0        5.941143   -1.233712   -0.856855
     99          6           0        6.753652   -0.260637   -4.373560
    100          6           0        8.000545   -2.419756   -1.996138
    101          8           0        8.147942   -3.323780   -1.099568
    102          6           0        8.892098   -2.335614   -3.162134
    103          7           0        4.118576   -1.067458    1.594131
    104          6           0        4.940619   -2.092386    1.308286
    105          6           0        4.953699   -3.108928    2.424918
    106          6           0        4.151305   -2.432147    3.631444
    107          6           0        3.717581   -1.119771    2.942275
    108          6           0        4.330214   -4.465428    2.096948
    109          6           0        4.881433   -2.342320    4.999480
    110          6           0        6.045897   -1.383297    4.901022
    111          7           0        2.802528    1.521000    1.918575
    112          6           0        2.385816    0.935091    3.133946
    113          6           0        1.394103    1.847332    3.739548
    114          6           0        1.284698    2.897859    2.816015
    115          6           0        2.132265    2.647420    1.703171
    116          6           0        0.697390    1.626259    4.960951
    117          6           0        0.636988    4.156509    2.524493
    118          8           0       -0.116435    4.908996    3.140801
    119          6           0        0.926822    4.534712    1.008129
    120          6           0        1.358749    5.974817    0.962995
    121          8           0        2.425770    6.331555    1.492922
    122          8           0        0.555723    6.649487    0.120184
    123          6           0        0.951287    8.080497    0.033213
    124          1           0        4.296616    1.119676   -4.006961
    125          1           0        6.315000   -2.986994    0.244253
    126          1           0        2.494546   -0.486094    4.555200
    127          1           0        1.263827    4.522504   -2.110322
    128          1           0        3.128161    3.429204   -3.917548
    129          1           0        0.474602    2.479272   -2.919321
    130          1           0        1.592815    1.188134   -3.406014
    131          1           0        1.154907    2.384815   -4.587478
    132          1           0        4.249529    4.914942   -2.422313
    133          1           0        3.416964    5.747411   -1.058845
    134          1           0        1.969736    6.302471   -3.447351
    135          1           0        3.621639    6.199221   -3.942774
    136          1           0        6.058242    0.396886   -4.909714
    137          1           0        6.678218   -1.220098   -4.896643
    138          1           0        7.783754    0.096480   -4.437077
    139          1           0        8.314542   -2.490928   -4.070296
    140          1           0        9.699587   -3.043193   -2.964237
    141          1           0        9.299778   -1.320099   -3.218245
    142          1           0        5.966604   -3.315065    2.748384
    143          1           0        3.228910   -2.983042    3.867109
    144          1           0        5.023950   -5.313383    2.251160
    145          1           0        3.980226   -4.441736    1.073487
    146          1           0        3.420522   -4.700633    2.646814
    147          1           0        5.301818   -3.314336    5.268933
    148          1           0        4.235256   -2.033802    5.814510
    149          1           0        6.840891   -2.003247    4.475905
    150          1           0        6.319817   -1.010917    5.886080
    151          1           0        5.835198   -0.580611    4.184818
    152          1           0        0.704708    2.565439    5.497956
    153          1           0        1.158115    0.830920    5.543140
    154          1           0       -0.284249    1.337356    4.576000
    155          1           0        0.007198    4.365335    0.446721
    156          1           0        0.065269    8.672595    0.282352
    157          1           0        1.376484    8.211886   -0.979559
    158          1           0        1.663618    8.448783    0.762186
 ---------------------------------------------------------------------

 SCF Done:  E(RCAM-B3LYP) =  -4069.81117578     A.U. after   19 cycles

 Excitation energies and oscillator strengths:

 Excited State   1:      Singlet-A      1.6356 eV  758.02 nm  f=0.0364  <S**2>=0.000
     309 -> 315        0.11489
     310 -> 316        0.11654
     311 -> 313        0.48114
     312 -> 314        0.49224
 This state for optimization and/or second-order correction.
 Total Energy, E(TD-HF/TD-DFT) =  -4069.75106745
 Copying the excited state density for this state as the 1-particle RhoCI density.

 Excited State   2:      Singlet-A      1.7152 eV  722.84 nm  f=0.6484  <S**2>=0.000
     309 -> 315        0.13236
     310 -> 316       -0.12795
     311 -> 313        0.48868
     312 -> 314       -0.47776

 Excited State   3:      Singlet-A      2.1775 eV  569.40 nm  f=0.0063  <S**2>=0.000
     309 -> 313        0.36703
     310 -> 314        0.53164
     311 -> 315       -0.15014
     312 -> 316       -0.22009

 Excited State   4:      Singlet-A      2.1991 eV  563.79 nm  f=0.1589  <S**2>=0.000
     309 -> 313        0.52510
     310 -> 314       -0.36014
     311 -> 315       -0.23466
     312 -> 316        0.16239

 Excited State   5:      Singlet-A      2.2180 eV  558.99 nm  f=0.0001  <S**2>=0.000
     312 -> 313        0.70679

 The electronic state is 1-A.
 Alpha  occ. eigenvalues --  -46.87845 -46.87295 -19.26183 -19.25870 -19.18964
 Alpha  occ. eigenvalues --  -19.18845 -19.18655 -19.18389 -19.18074 -19.17329
 Alpha  occ. eigenvalues --  -14.42515 -14.42158 -14.41507 -14.40988 -14.39449
 Alpha  occ. eigenvalues --  -14.38981 -14.38621 -14.38196 -10.39009 -10.38559
 Alpha  occ. eigenvalues --  -10.35480 -10.35075 -10.34302 -10.33496 -10.31536
 Alpha  occ. eigenvalues --  -10.31460 -10.31429 -10.30974 -10.30919 -10.30665
 Alpha  occ. eigenvalues --  -10.30611 -10.30544 -10.30283 -10.29992 -10.29969
 Alpha  occ. eigenvalues --  -10.29937 -10.29843 -10.29668 -10.29500 -10.29310
 Alpha  occ. eigenvalues --  -10.29104 -10.28995 -10.28865 -10.28752 -10.28475
 Alpha  occ. eigenvalues --  -10.28409 -10.28394 -10.28214 -10.27975 -10.27871
 Alpha  occ. eigenvalues --  -10.27814 -10.27792 -10.27624 -10.27612 -10.27566
 Alpha  occ. eigenvalues --  -10.27563 -10.27536 -10.27446 -10.27338 -10.27251
 Alpha  occ. eigenvalues --  -10.27209 -10.27119 -10.27076 -10.27071 -10.27066
 Alpha  occ. eigenvalues --  -10.26918 -10.26449 -10.26434 -10.26366 -10.26310
 Alpha  occ. eigenvalues --  -10.26265 -10.26170 -10.26088 -10.25928 -10.25831
 Alpha  occ. eigenvalues --  -10.25826 -10.25594 -10.25502 -10.25390 -10.25076
 Alpha  occ. eigenvalues --  -10.24949 -10.24845 -10.24835 -10.24515 -10.24407
 Alpha  occ. eigenvalues --  -10.24299  -3.16587  -3.16046  -1.91468  -1.91056
 Alpha  occ. eigenvalues --   -1.90929  -1.90897  -1.90517  -1.90353  -1.16533
 Alpha  occ. eigenvalues --   -1.16153  -1.08517  -1.07900  -1.07245  -1.06648
 Alpha  occ. eigenvalues --   -1.06548  -1.06431  -1.04641  -1.04132  -1.03818
 Alpha  occ. eigenvalues --   -1.03292  -1.03277  -1.02660  -1.02457  -1.01721
 Alpha  occ. eigenvalues --   -0.91990  -0.91498  -0.89608  -0.89294  -0.89146
 Alpha  occ. eigenvalues --   -0.88861  -0.88372  -0.87892  -0.87888  -0.87749
 Alpha  occ. eigenvalues --   -0.87369  -0.87331  -0.87323  -0.86786  -0.85079
 Alpha  occ. eigenvalues --   -0.84689  -0.84032  -0.83549  -0.83025  -0.82714
 Alpha  occ. eigenvalues --   -0.82631  -0.82328  -0.81574  -0.81180  -0.80620
 Alpha  occ. eigenvalues --   -0.80061  -0.78841  -0.78269  -0.77301  -0.77004
 Alpha  occ. eigenvalues --   -0.76831  -0.76560  -0.75954  -0.75470  -0.74960
 Alpha  occ. eigenvalues --   -0.74449  -0.72823  -0.72318  -0.71722  -0.71217
 Alpha  occ. eigenvalues --   -0.70038  -0.69478  -0.68953  -0.68506  -0.67675
 Alpha  occ. eigenvalues --   -0.67330  -0.67205  -0.66900  -0.65368  -0.64926
 Alpha  occ. eigenvalues --   -0.64894  -0.64668  -0.64408  -0.64345  -0.64286
 Alpha  occ. eigenvalues --   -0.63864  -0.62264  -0.61853  -0.60495  -0.59993
 Alpha  occ. eigenvalues --   -0.59882  -0.59465  -0.59033  -0.58604  -0.58536
 Alpha  occ. eigenvalues --   -0.58008  -0.57559  -0.57338  -0.57001  -0.56800
 Alpha  occ. eigenvalues --   -0.56343  -0.55958  -0.55825  -0.55561  -0.55485
 Alpha  occ. eigenvalues --   -0.55383  -0.55099  -0.54867  -0.54542  -0.54103
 Alpha  occ. eigenvalues --   -0.53995  -0.53613  -0.53345  -0.53284  -0.52944
 Alpha  occ. eigenvalues --   -0.52879  -0.52824  -0.52795  -0.52562  -0.52532
 Alpha  occ. eigenvalues --   -0.52382  -0.52112  -0.51917  -0.51698  -0.51426
 Alpha  occ. eigenvalues --   -0.51350  -0.51221  -0.50763  -0.50640  -0.50195
 Alpha  occ. eigenvalues --   -0.50139  -0.49981  -0.49684  -0.49579  -0.49551
 Alpha  occ. eigenvalues --   -0.49238  -0.49168  -0.49151  -0.48831  -0.48701
 Alpha  occ. eigenvalues --   -0.48610  -0.48505  -0.48439  -0.48172  -0.48037
 Alpha  occ. eigenvalues --   -0.47907  -0.47749  -0.47340  -0.47252  -0.46871
 Alpha  occ. eigenvalues --   -0.46787  -0.46645  -0.46409  -0.46375  -0.46256
 Alpha  occ. eigenvalues --   -0.46187  -0.45921  -0.45813  -0.45682  -0.45389
 Alpha  occ. eigenvalues --   -0.45275  -0.44853  -0.44598  -0.44572  -0.44226
 Alpha  occ. eigenvalues --   -0.44211  -0.44164  -0.44072  -0.44013  -0.43783
 Alpha  occ. eigenvalues --   -0.43738  -0.43502  -0.43489  -0.43447  -0.43186
 Alpha  occ. eigenvalues --   -0.43063  -0.43016  -0.42795  -0.42603  -0.42527
 Alpha  occ. eigenvalues --   -0.42434  -0.42241  -0.42100  -0.41722  -0.41647
 Alpha  occ. eigenvalues --   -0.41626  -0.41190  -0.41169  -0.41147  -0.40977
 Alpha  occ. eigenvalues --   -0.40891  -0.40656  -0.40621  -0.40426  -0.40420
 Alpha  occ. eigenvalues --   -0.40377  -0.40153  -0.39958  -0.39598  -0.39153
 Alpha  occ. eigenvalues --   -0.38570  -0.38048  -0.37879  -0.37404  -0.37377
 Alpha  occ. eigenvalues --   -0.37343  -0.36936  -0.36858  -0.36688  -0.36342
 Alpha  occ. eigenvalues --   -0.36201  -0.35849  -0.34331  -0.33871  -0.33703
 Alpha  occ. eigenvalues --   -0.33369  -0.33221  -0.32789  -0.31376  -0.31083
 Alpha  occ. eigenvalues --   -0.30949  -0.30582  -0.29935  -0.29483  -0.29331
 Alpha  occ. eigenvalues --   -0.29227  -0.28950  -0.28728  -0.24130  -0.23641
 Alpha  occ. eigenvalues --   -0.21181  -0.20745
 Alpha virt. eigenvalues --   -0.08813  -0.08388  -0.01806  -0.01331  -0.00092
 Alpha virt. eigenvalues --    0.00346   0.02205   0.02473   0.02864   0.03696
 Alpha virt. eigenvalues --    0.04623   0.05022   0.05158   0.05697   0.05984

 Mulliken charges:
               1
     1  Mg   0.838849
     2  C   -0.003433
     3  C   -0.094903
     4  C   -0.045566
     5  C   -0.064753
     6  N   -0.256418
     7  C   -0.053513
     8  C   -0.013352
     9  C   -0.086901
    10  C    0.045711
    11  C    0.104807
    12  C    0.051470
    13  C   -0.071133
    14  H    0.034706
    15  N   -0.433208
    16  C    0.168148
    17  C   -0.177667
    18  C   -0.003908
    19  C    0.148927
    20  C    0.110325
    21  C    0.012772
    22  O   -0.249318
    23  C    0.062484
    24  N   -0.340939
    25  C    0.041072
    26  C   -0.028515
    27  C   -0.023831
    28  C    0.074935
    29  C    0.076083
    30  C    0.035611
    31  C   -0.009388
    32  N   -0.310596
    33  C    0.080025
    34  C   -0.170953
    35  C    0.009891
    36  C    0.083260
    37  C    0.126401
    38  C    0.049405
    39  O   -0.184325
    40  C   -0.007003
    41  C    0.216342
    42  O   -0.253873
    43  O   -0.305487
    44  C    0.155108
    45  H   -0.017909
    46  H   -0.016822
    47  H   -0.041808
    48  H    0.001763
    49  H   -0.004899
    50  H    0.025874
    51  H    0.016721
    52  H    0.016526
    53  H    0.010466
    54  H    0.043387
    55  H    0.019193
    56  H    0.016981
    57  H    0.005280
    58  H    0.026993
    59  H    0.038419
    60  H    0.037055
    61  H    0.036207
    62  H    0.030989
    63  H    0.016347
    64  H    0.009944
    65  H    0.023336
    66  H    0.012858
    67  H    0.004852
    68  H    0.006403
    69  H    0.004403
    70  H    0.010192
    71  H    0.016699
    72  H    0.031980
    73  H    0.050193
    74  H    0.008117
    75  H    0.046320
    76  H    0.035127
    77  H    0.043420
    78  H    0.044041
    79  H    0.059530
    80  Mg   0.835323
    81  C   -0.015634
    82  C   -0.088266
    83  C   -0.045934
    84  C   -0.066789
    85  N   -0.253994
    86  C   -0.050012
    87  C   -0.014371
    88  C   -0.091138
    89  C    0.044811
    90  C    0.112694
    91  C    0.062801
    92  C   -0.076774
    93  H    0.033989
    94  N   -0.423227
    95  C    0.161936
    96  C   -0.176110
    97  C   -0.008624
    98  C    0.151398
    99  C    0.099995
   100  C    0.014832
   101  O   -0.254046
   102  C    0.061543
   103  N   -0.350573
   104  C    0.037526
   105  C   -0.020302
   106  C   -0.035408
   107  C    0.090111
   108  C    0.073278
   109  C    0.034563
   110  C   -0.007134
   111  N   -0.324906
   112  C    0.078989
   113  C   -0.163237
   114  C    0.005673
   115  C    0.093893
   116  C    0.130419
   117  C    0.052256
   118  O   -0.180861
   119  C   -0.002253
   120  C    0.209159
   121  O   -0.253226
   122  O   -0.303800
   123  C    0.152590
   124  H   -0.022149
   125  H   -0.016358
   126  H   -0.041815
   127  H    0.000619
   128  H   -0.005864
   129  H    0.026338
   130  H    0.013433
   131  H    0.012277
   132  H    0.013427
   133  H    0.038122
   134  H    0.019253
   135  H    0.018555
   136  H    0.007219
   137  H    0.024201
   138  H    0.038691
   139  H    0.037353
   140  H    0.035454
   141  H    0.033389
   142  H    0.013587
   143  H    0.012641
   144  H    0.024216
   145  H    0.013467
   146  H    0.005076
   147  H    0.005358
   148  H    0.002350
   149  H    0.010779
   150  H    0.017214
   151  H    0.030771
   152  H    0.046228
   153  H    0.005199
   154  H    0.051467
   155  H    0.050713
   156  H    0.041697
   157  H    0.047404
   158  H    0.053005
 Sum of Mulliken charges =  -0.00000

 Dipole moment (field-independent basis, Debye):
    X=             -1.8007    Y=             -1.9905    Z=             -7.8164  Tot=              8.2644
 Quadrupole moment (field-independent basis, Debye-Ang):
   XX=           -518.5007   YY=           -531.8348   ZZ=           -458.8248
   XY=             19.6396   XZ=              8.6754   YZ=            -51.8679

 Normal termination of Gaussian 16 at Thu Sep  9 06:31:11 2021.
