 Gaussian 16, Revision A.03,
 Gaussian 16:  ES64L-G16RevA.03 25-Dec-2016

 -----------------------------------
 #p cam-b3lyp/Def2SVP td=(nstates=5)
 -----------------------------------

 --------------------------------
 TDDFT excited states in gaussian
 --------------------------------
 Symbolic Z-matrix:
 Charge =  0 Multiplicity = 1

                         Standard orientation:
 ---------------------------------------------------------------------
 Center     Atomic      Atomic             Coordinates (Angstroms)
 Number     Number       Type             X           Y           Z
 ---------------------------------------------------------------------
      1         12           0        3.930426    1.624454    0.693616
      2          6           0        4.967520   -1.779735    0.308726
      3          6           0        5.118764    2.186573   -2.455184
      4          6           0        3.440723    4.719850    1.178733
      5          6           0        3.878491    1.065143    4.133112
      6          7           0        4.896881    0.291737   -0.786409
      7          6           0        5.182478   -1.005707   -0.833780
      8          6           0        5.661654   -1.481983   -2.237677
      9          6           0        6.197026   -0.091844   -2.805911
     10          6           0        5.328634    0.853015   -1.994086
     11          6           0        7.660911    0.178882   -2.473869
     12          6           0        4.487057   -2.042522   -3.108222
     13          6           0        4.912718   -2.823308   -4.355034
     14          1           0        4.116145   -3.968028   -4.770289
     15          7           0        3.779001    3.114893   -0.594216
     16          6           0        4.311707    3.167132   -1.838716
     17          6           0        3.919632    4.479907   -2.395114
     18          6           0        3.277023    5.263190   -1.303503
     19          6           0        3.499634    4.396181   -0.174735
     20          6           0        4.118783    4.857713   -3.830855
     21          6           0        2.583126    6.588351   -1.279243
     22          8           0        2.303480    7.189782   -0.186242
     23          6           0        2.315026    7.213545   -2.587026
     24          7           0        3.904314    2.805399    2.414756
     25          6           0        3.609224    4.108512    2.353092
     26          6           0        3.373935    4.680333    3.719693
     27          6           0        3.331136    3.435231    4.718514
     28          6           0        3.648654    2.308419    3.704736
     29          6           0        4.418157    5.692629    4.210477
     30          6           0        2.072225    3.291971    5.610164
     31          6           0        0.868910    2.972546    4.751619
     32          7           0        4.170302   -0.087533    2.006096
     33          6           0        4.132305   -0.087077    3.407962
     34          6           0        4.453766   -1.456741    3.849268
     35          6           0        4.674129   -2.159428    2.666257
     36          6           0        4.527025   -1.277945    1.557365
     37          6           0        4.568327   -1.892103    5.198998
     38          6           0        5.023817   -3.444086    2.082108
     39          8           0        5.175588   -4.584461    2.522566
     40          6           0        5.347319   -3.221376    0.538873
     41          6           0        4.607018   -4.276115   -0.237522
     42          8           0        3.359997   -4.278028   -0.285498
     43          8           0        5.477271   -4.967872   -0.988970
     44          6           0        4.803605   -6.011423   -1.807096
     45          1           0        5.666029    2.533506   -3.333864
     46          1           0        3.164411    5.755380    1.387942
     47          1           0        3.798255    0.795710    5.187826
     48          1           0        6.470591   -2.212505   -2.218126
     49          1           0        5.987791    0.020707   -3.869525
     50          1           0        8.059428   -0.570295   -1.789881
     51          1           0        7.676447    1.165045   -2.009398
     52          1           0        8.254673    0.266982   -3.384068
     53          1           0        3.961219   -1.212330   -3.579748
     54          1           0        3.821154   -2.661008   -2.505417
     55          1           0        5.970138   -3.086824   -4.318576
     56          1           0        4.827882   -2.162170   -5.217531
     57          1           0        4.763030    4.146618   -4.346447
     58          1           0        4.682259    5.790521   -3.839422
     59          1           0        3.172398    4.995088   -4.354128
     60          1           0        3.257067    7.359661   -3.115949
     61          1           0        1.734337    8.111246   -2.377780
     62          1           0        1.726475    6.524686   -3.193682
     63          1           0        2.421622    5.207130    3.764527
     64          1           0        4.158941    3.451264    5.427849
     65          1           0        3.995929    6.660463    4.482000
     66          1           0        5.174557    5.800040    3.433552
     67          1           0        5.020193    5.355736    5.053965
     68          1           0        1.861181    4.230389    6.121805
     69          1           0        2.168212    2.514977    6.368661
     70          1           0        0.548166    3.954942    4.406867
     71          1           0        0.091312    2.495352    5.348978
     72          1           0        1.150169    2.394129    3.871384
     73          1           0        4.058581   -2.853951    5.253561
     74          1           0        4.127508   -1.170609    5.886550
     75          1           0        5.651697   -1.956363    5.299180
     76          1           0        6.427280   -3.314151    0.428415
     77          1           0        5.279440   -6.962788   -1.568936
     78          1           0        4.845819   -5.669479   -2.841357
     79          1           0        3.766471   -6.230120   -1.550458
     80         12           0       -4.769782   -0.365730   -0.453888
     81          6           0       -2.535761   -3.168266   -0.269606
     82          6           0       -2.680076    0.954960   -2.804105
     83          6           0       -6.466940    2.311545   -0.314875
     84          6           0       -6.022329   -1.337280    2.649801
     85          7           0       -2.883249   -1.106086   -1.339967
     86          6           0       -2.162597   -2.212667   -1.237595
     87          6           0       -1.022221   -2.336610   -2.283415
     88          6           0       -0.822357   -0.776481   -2.607299
     89          6           0       -2.223590   -0.274337   -2.265103
     90          6           0        0.169608   -0.091935   -1.681699
     91          6           0       -1.465221   -3.135909   -3.558911
     92          6           0       -0.320476   -3.561156   -4.481123
     93          1           0       -0.423071   -4.843527   -5.172114
     94          7           0       -4.890921    1.145969   -1.733996
     95          6           0       -3.959795    1.527247   -2.633390
     96          6           0       -4.519531    2.702773   -3.318219
     97          6           0       -5.786342    3.083751   -2.636494
     98          6           0       -5.752401    2.188300   -1.497584
     99          6           0       -3.899955    3.299354   -4.548525
    100          6           0       -6.845791    4.096433   -2.949953
    101          8           0       -7.740713    4.422210   -2.092166
    102          6           0       -6.748996    4.763502   -4.256530
    103          7           0       -5.909542    0.504603    1.051373
    104          6           0       -6.587791    1.644938    0.833321
    105          6           0       -7.549775    1.931685    1.961489
    106          6           0       -7.550802    0.615677    2.870167
    107          6           0       -6.474858   -0.205981    2.126782
    108          6           0       -7.217040    3.147013    2.826747
    109          6           0       -8.927814   -0.047878    3.146230
    110          6           0       -9.488883   -0.624197    1.866213
    111          7           0       -4.507030   -2.052286    0.870696
    112          6           0       -5.108368   -2.246931    2.133467
    113          6           0       -4.533850   -3.482863    2.703410
    114          6           0       -3.613979   -3.912475    1.735040
    115          6           0       -3.600419   -2.997241    0.648005
    116          6           0       -4.842841   -4.032303    3.979637
    117          6           0       -2.643607   -4.926400    1.390021
    118          8           0       -2.290825   -5.995705    1.885870
    119          6           0       -1.810397   -4.421895    0.133990
    120          6           0       -1.746590   -5.546282   -0.863103
    121          8           0       -2.779159   -5.952150   -1.424971
    122          8           0       -0.458372   -5.808829   -1.149336
    123          6           0       -0.343667   -6.909762   -2.142620
    124          1           0       -1.979490    1.561574   -3.378639
    125          1           0       -7.151737    3.161219   -0.264071
    126          1           0       -6.431971   -1.760085    3.569642
    127          1           0       -0.099989   -2.758310   -1.902062
    128          1           0       -0.606497   -0.616198   -3.660427
    129          1           0        0.488817   -0.742591   -0.881140
    130          1           0       -0.346887    0.771859   -1.284042
    131          1           0        1.013423    0.299836   -2.256860
    132          1           0       -2.008991   -2.461673   -4.233043
    133          1           0       -2.048254   -3.994316   -3.287194
    134          1           0        0.658064   -3.463533   -3.995443
    135          1           0       -0.273767   -2.863390   -5.320732
    136          1           0       -2.888232    2.910755   -4.718268
    137          1           0       -3.751049    4.365629   -4.346649
    138          1           0       -4.531851    3.191967   -5.432750
    139          1           0       -5.789906    5.270197   -4.333139
    140          1           0       -7.642852    5.385516   -4.334006
    141          1           0       -6.764760    3.999242   -5.041550
    142          1           0       -8.550876    2.098277    1.583146
    143          1           0       -7.154266    0.815108    3.876555
    144          1           0       -8.034026    3.892065    2.865464
    145          1           0       -6.309240    3.597471    2.447926
    146          1           0       -6.949949    2.920779    3.857614
    147          1           0       -9.646224    0.699904    3.491000
    148          1           0       -8.888248   -0.827728    3.899388
    149          1           0       -9.960035    0.241652    1.391439
    150          1           0      -10.219098   -1.401078    2.083651
    151          1           0       -8.685655   -0.966956    1.203644
    152          1           0       -4.955268   -5.099286    3.840306
    153          1           0       -5.744323   -3.587803    4.396179
    154          1           0       -3.947774   -3.744718    4.537682
    155          1           0       -0.820664   -4.134892    0.491259
    156          1           0        0.298473   -7.676048   -1.697488
    157          1           0        0.012242   -6.434239   -3.075875
    158          1           0       -1.237071   -7.483086   -2.360746
 ---------------------------------------------------------------------

 SCF Done:  E(RCAM-B3LYP) =  -4069.81168714     A.U. after   19 cycles

 Excitation energies and oscillator strengths:

 Excited State   1:      Singlet-A      1.6446 eV  753.90 nm  f=0.0010  <S**2>=0.000
     309 -> 315        0.11698
     310 -> 316       -0.11774
     311 -> 313        0.48186
     312 -> 314        0.49092
 This state for optimization and/or second-order correction.
 Total Energy, E(TD-HF/TD-DFT) =  -4069.75125016
 Copying the excited state density for this state as the 1-particle RhoCI density.

 Excited State   2:      Singlet-A      1.7051 eV  727.12 nm  f=0.6899  <S**2>=0.000
     309 -> 315        0.13041
     310 -> 316        0.12642
     311 -> 313        0.48811
     312 -> 314       -0.47917

 Excited State   3:      Singlet-A      2.1795 eV  568.86 nm  f=0.0418  <S**2>=0.000
     309 -> 313        0.27141
     310 -> 314        0.58516
     311 -> 315       -0.11193
     312 -> 316        0.24334

 Excited State   4:      Singlet-A      2.1956 eV  564.69 nm  f=0.1420  <S**2>=0.000
     309 -> 313        0.57976
     310 -> 314       -0.26716
     311 -> 315       -0.25513
     312 -> 316       -0.11919

 Excited State   5:      Singlet-A      2.2640 eV  547.63 nm  f=0.0002  <S**2>=0.000
     312 -> 313        0.70594

 The electronic state is 1-A.
 Alpha  occ. eigenvalues --  -46.88080 -46.87373 -19.26528 -19.25702 -19.19276
 Alpha  occ. eigenvalues --  -19.19066 -19.18630 -19.18482 -19.18357 -19.17614
 Alpha  occ. eigenvalues --  -14.42741 -14.42205 -14.41706 -14.41073 -14.39678
 Alpha  occ. eigenvalues --  -14.39069 -14.38853 -14.38299 -10.39328 -10.38533
 Alpha  occ. eigenvalues --  -10.35702 -10.35167 -10.34583 -10.33770 -10.31924
 Alpha  occ. eigenvalues --  -10.31689 -10.31306 -10.31222 -10.30990 -10.30835
 Alpha  occ. eigenvalues --  -10.30753 -10.30695 -10.30461 -10.30146 -10.30100
 Alpha  occ. eigenvalues --  -10.30049 -10.29903 -10.29880 -10.29605 -10.29523
 Alpha  occ. eigenvalues --  -10.29182 -10.29115 -10.29113 -10.28992 -10.28643
 Alpha  occ. eigenvalues --  -10.28442 -10.28413 -10.28272 -10.28083 -10.28038
 Alpha  occ. eigenvalues --  -10.28015 -10.27850 -10.27846 -10.27798 -10.27705
 Alpha  occ. eigenvalues --  -10.27689 -10.27682 -10.27633 -10.27402 -10.27393
 Alpha  occ. eigenvalues --  -10.27313 -10.27311 -10.27217 -10.27185 -10.27155
 Alpha  occ. eigenvalues --  -10.27145 -10.26697 -10.26504 -10.26448 -10.26379
 Alpha  occ. eigenvalues --  -10.26333 -10.26264 -10.26250 -10.25979 -10.25958
 Alpha  occ. eigenvalues --  -10.25756 -10.25667 -10.25598 -10.25581 -10.25200
 Alpha  occ. eigenvalues --  -10.25073 -10.25035 -10.24821 -10.24556 -10.24555
 Alpha  occ. eigenvalues --  -10.24399  -3.16814  -3.16123  -1.91696  -1.91283
 Alpha  occ. eigenvalues --   -1.91124  -1.91006  -1.90594  -1.90431  -1.16876
 Alpha  occ. eigenvalues --   -1.16033  -1.08809  -1.08195  -1.07465  -1.06885
 Alpha  occ. eigenvalues --   -1.06739  -1.06404  -1.04870  -1.04189  -1.04022
 Alpha  occ. eigenvalues --   -1.03495  -1.03370  -1.02755  -1.02672  -1.01819
 Alpha  occ. eigenvalues --   -0.92230  -0.91610  -0.89738  -0.89528  -0.89224
 Alpha  occ. eigenvalues --   -0.88828  -0.88500  -0.88091  -0.87972  -0.87963
 Alpha  occ. eigenvalues --   -0.87550  -0.87502  -0.87394  -0.86885  -0.85307
 Alpha  occ. eigenvalues --   -0.84704  -0.84133  -0.83622  -0.83225  -0.82939
 Alpha  occ. eigenvalues --   -0.82717  -0.82355  -0.81837  -0.81201  -0.80862
 Alpha  occ. eigenvalues --   -0.80099  -0.79060  -0.78377  -0.77487  -0.77207
 Alpha  occ. eigenvalues --   -0.76874  -0.76576  -0.76192  -0.75505  -0.75111
 Alpha  occ. eigenvalues --   -0.74531  -0.73019  -0.72414  -0.71926  -0.71281
 Alpha  occ. eigenvalues --   -0.70095  -0.69537  -0.69176  -0.68539  -0.67899
 Alpha  occ. eigenvalues --   -0.67573  -0.67300  -0.66923  -0.65604  -0.65109
 Alpha  occ. eigenvalues --   -0.64920  -0.64885  -0.64490  -0.64466  -0.64299
 Alpha  occ. eigenvalues --   -0.63932  -0.62539  -0.61827  -0.60699  -0.60113
 Alpha  occ. eigenvalues --   -0.60090  -0.59462  -0.59238  -0.58750  -0.58676
 Alpha  occ. eigenvalues --   -0.58091  -0.57818  -0.57540  -0.57118  -0.56892
 Alpha  occ. eigenvalues --   -0.56558  -0.56249  -0.55919  -0.55780  -0.55547
 Alpha  occ. eigenvalues --   -0.55460  -0.55142  -0.54924  -0.54739  -0.54236
 Alpha  occ. eigenvalues --   -0.54113  -0.53597  -0.53556  -0.53514  -0.53166
 Alpha  occ. eigenvalues --   -0.53054  -0.52953  -0.52830  -0.52615  -0.52548
 Alpha  occ. eigenvalues --   -0.52426  -0.52166  -0.52105  -0.51942  -0.51593
 Alpha  occ. eigenvalues --   -0.51431  -0.51367  -0.50867  -0.50862  -0.50280
 Alpha  occ. eigenvalues --   -0.50270  -0.50175  -0.49804  -0.49731  -0.49630
 Alpha  occ. eigenvalues --   -0.49471  -0.49368  -0.49216  -0.48880  -0.48831
 Alpha  occ. eigenvalues --   -0.48782  -0.48706  -0.48656  -0.48228  -0.48131
 Alpha  occ. eigenvalues --   -0.48037  -0.47960  -0.47550  -0.47304  -0.47050
 Alpha  occ. eigenvalues --   -0.46881  -0.46852  -0.46601  -0.46433  -0.46389
 Alpha  occ. eigenvalues --   -0.46267  -0.46045  -0.46002  -0.45766  -0.45461
 Alpha  occ. eigenvalues --   -0.45412  -0.44946  -0.44826  -0.44768  -0.44397
 Alpha  occ. eigenvalues --   -0.44368  -0.44259  -0.44204  -0.44175  -0.43846
 Alpha  occ. eigenvalues --   -0.43819  -0.43733  -0.43666  -0.43609  -0.43271
 Alpha  occ. eigenvalues --   -0.43207  -0.43066  -0.42927  -0.42859  -0.42607
 Alpha  occ. eigenvalues --   -0.42378  -0.42308  -0.42248  -0.41949  -0.41837
 Alpha  occ. eigenvalues --   -0.41685  -0.41397  -0.41313  -0.41169  -0.41157
 Alpha  occ. eigenvalues --   -0.41118  -0.40788  -0.40714  -0.40618  -0.40473
 Alpha  occ. eigenvalues --   -0.40431  -0.40213  -0.39896  -0.39625  -0.39210
 Alpha  occ. eigenvalues --   -0.38705  -0.38115  -0.38105  -0.37580  -0.37557
 Alpha  occ. eigenvalues --   -0.37375  -0.37000  -0.36947  -0.36898  -0.36437
 Alpha  occ. eigenvalues --   -0.36317  -0.35851  -0.34548  -0.34017  -0.33953
 Alpha  occ. eigenvalues --   -0.33447  -0.33380  -0.32868  -0.31595  -0.31300
 Alpha  occ. eigenvalues --   -0.31040  -0.30661  -0.30217  -0.29713  -0.29561
 Alpha  occ. eigenvalues --   -0.29498  -0.29053  -0.28898  -0.24351  -0.23726
 Alpha  occ. eigenvalues --   -0.21392  -0.20832
 Alpha virt. eigenvalues --   -0.09035  -0.08498  -0.02015  -0.01405  -0.00330
 Alpha virt. eigenvalues --    0.00234   0.01978   0.02521   0.02705   0.03512
 Alpha virt. eigenvalues --    0.04333   0.04739   0.04967   0.05386   0.05707

 Mulliken charges:
               1
     1  Mg   0.831255
     2  C   -0.002940
     3  C   -0.095145
     4  C   -0.044900
     5  C   -0.063060
     6  N   -0.256495
     7  C   -0.055254
     8  C   -0.012763
     9  C   -0.086541
    10  C    0.044212
    11  C    0.104525
    12  C    0.050429
    13  C   -0.073192
    14  H    0.037235
    15  N   -0.433123
    16  C    0.166102
    17  C   -0.178638
    18  C   -0.004583
    19  C    0.148878
    20  C    0.110371
    21  C    0.012167
    22  O   -0.248567
    23  C    0.063017
    24  N   -0.340414
    25  C    0.040984
    26  C   -0.028219
    27  C   -0.024290
    28  C    0.075108
    29  C    0.075946
    30  C    0.034863
    31  C   -0.004630
    32  N   -0.310747
    33  C    0.080975
    34  C   -0.168515
    35  C    0.009574
    36  C    0.081289
    37  C    0.126824
    38  C    0.047433
    39  O   -0.185552
    40  C   -0.006619
    41  C    0.213748
    42  O   -0.256809
    43  O   -0.304601
    44  C    0.156364
    45  H   -0.017916
    46  H   -0.016254
    47  H   -0.040363
    48  H    0.001997
    49  H   -0.004799
    50  H    0.026080
    51  H    0.017450
    52  H    0.017068
    53  H    0.008521
    54  H    0.043423
    55  H    0.019923
    56  H    0.017895
    57  H    0.005606
    58  H    0.027686
    59  H    0.037131
    60  H    0.037793
    61  H    0.036454
    62  H    0.028967
    63  H    0.017131
    64  H    0.010040
    65  H    0.023749
    66  H    0.012565
    67  H    0.005196
    68  H    0.006906
    69  H    0.005249
    70  H    0.009181
    71  H    0.018879
    72  H    0.028784
    73  H    0.049925
    74  H    0.009679
    75  H    0.046501
    76  H    0.035727
    77  H    0.044170
    78  H    0.045078
    79  H    0.054707
    80  Mg   0.836831
    81  C   -0.017636
    82  C   -0.087725
    83  C   -0.045794
    84  C   -0.066077
    85  N   -0.254403
    86  C   -0.049374
    87  C   -0.018965
    88  C   -0.092507
    89  C    0.044893
    90  C    0.097546
    91  C    0.062725
    92  C   -0.078103
    93  H    0.031525
    94  N   -0.423373
    95  C    0.162591
    96  C   -0.175105
    97  C   -0.008334
    98  C    0.151920
    99  C    0.099964
   100  C    0.015258
   101  O   -0.253798
   102  C    0.061372
   103  N   -0.350199
   104  C    0.037196
   105  C   -0.019561
   106  C   -0.034766
   107  C    0.089355
   108  C    0.073875
   109  C    0.034905
   110  C   -0.007549
   111  N   -0.324328
   112  C    0.079069
   113  C   -0.163819
   114  C    0.003335
   115  C    0.095475
   116  C    0.131549
   117  C    0.042773
   118  O   -0.185623
   119  C    0.000996
   120  C    0.208613
   121  O   -0.254173
   122  O   -0.296604
   123  C    0.153923
   124  H   -0.021549
   125  H   -0.016313
   126  H   -0.041172
   127  H    0.014411
   128  H   -0.007127
   129  H    0.036335
   130  H    0.014593
   131  H    0.024019
   132  H    0.012095
   133  H    0.037672
   134  H    0.024719
   135  H    0.016487
   136  H    0.006626
   137  H    0.024780
   138  H    0.038663
   139  H    0.037651
   140  H    0.035701
   141  H    0.033306
   142  H    0.013870
   143  H    0.011726
   144  H    0.024543
   145  H    0.011996
   146  H    0.004767
   147  H    0.005685
   148  H    0.003332
   149  H    0.010686
   150  H    0.017462
   151  H    0.030489
   152  H    0.046049
   153  H    0.007599
   154  H    0.047219
   155  H    0.049315
   156  H    0.042817
   157  H    0.046587
   158  H    0.051253
 Sum of Mulliken charges =  -0.00000

 Dipole moment (field-independent basis, Debye):
    X=              4.6705    Y=              5.0179    Z=             -4.8267  Tot=              8.3839
 Quadrupole moment (field-independent basis, Debye-Ang):
   XX=           -506.5598   YY=           -564.6864   ZZ=           -451.7106
   XY=              7.3748   XZ=            -36.2992   YZ=             14.7542

 Normal termination of Gaussian 16 at Fri Sep 10 02:50:21 2021.
