 Gaussian 16, Revision A.03,
 Gaussian 16:  ES64L-G16RevA.03 25-Dec-2016

 -----------------------------------
 #p cam-b3lyp/Def2SVP td=(nstates=5)
 -----------------------------------

 --------------------------------
 TDDFT excited states in gaussian
 --------------------------------
 Symbolic Z-matrix:
 Charge =  0 Multiplicity = 1

                         Standard orientation:
 ---------------------------------------------------------------------
 Center     Atomic      Atomic             Coordinates (Angstroms)
 Number     Number       Type             X           Y           Z
 ---------------------------------------------------------------------
      1         12           0        8.125920    0.466875    0.901431
      2          6           0        8.537296   -2.443961   -1.140631
      3          6           0        9.276075    2.298543   -1.737736
      4          6           0        8.202919    2.987421    2.824330
      5          6           0        8.105209   -1.655857    3.665348
      6          7           0        8.788888   -0.113321   -1.129454
      7          6           0        8.841467   -1.255308   -1.807887
      8          6           0        9.177446   -1.062505   -3.316966
      9          6           0        9.925899    0.342619   -3.230697
     10          6           0        9.266773    0.892410   -1.978018
     11          6           0       11.425903    0.219737   -2.982923
     12          6           0        7.891393   -0.972964   -4.205661
     13          6           0        8.127370   -1.112215   -5.712405
     14          1           0        7.128163   -1.798653   -6.517226
     15          7           0        8.189343    2.396463    0.482482
     16          6           0        8.676259    2.964374   -0.646976
     17          6           0        8.499106    4.422813   -0.478886
     18          6           0        8.044325    4.667933    0.917963
     19          6           0        8.153931    3.345673    1.479205
     20          6           0        8.707584    5.410009   -1.586013
     21          6           0        7.593994    5.900535    1.636312
     22          8           0        7.464622    5.937845    2.907706
     23          6           0        7.390719    7.104745    0.810721
     24          7           0        8.370638    0.672240    2.964335
     25          6           0        8.305648    1.872568    3.550826
     26          6           0        8.224936    1.747342    5.043389
     27          6           0        8.002509    0.195224    5.345397
     28          6           0        8.080312   -0.340991    3.894643
     29          6           0        9.447489    2.249090    5.824174
     30          6           0        6.772025   -0.184225    6.206993
     31          6           0        5.500285    0.112702    5.444361
     32          7           0        8.111740   -1.678764    1.228660
     33          6           0        8.126643   -2.343454    2.463423
     34          6           0        8.220093   -3.786627    2.176045
     35          6           0        8.270095   -3.860703    0.785412
     36          6           0        8.238051   -2.545653    0.239601
     37          6           0        8.307024   -4.825297    3.144571
     38          6           0        8.367976   -4.743668   -0.365522
     39          8           0        8.334490   -5.964407   -0.527284
     40          6           0        8.667707   -3.856563   -1.653556
     41          6           0        7.726135   -4.299908   -2.739925
     42          8           0        6.497049   -4.109075   -2.638457
     43          8           0        8.433557   -4.659198   -3.822055
     44          6           0        7.557950   -5.081944   -4.947556
     45          1           0        9.842422    2.945280   -2.410732
     46          1           0        8.119748    3.823503    3.521817
     47          1           0        8.018475   -2.383010    4.474779
     48          1           0        9.846481   -1.815723   -3.733476
     49          1           0        9.700079    0.977259   -4.087411
     50          1           0       11.712606   -0.811540   -2.777521
     51          1           0       11.630768    0.851257   -2.118223
     52          1           0       11.991607    0.650629   -3.809413
     53          1           0        7.501483    0.044342   -4.172175
     54          1           0        7.150602   -1.707299   -3.887375
     55          1           0        9.123107   -1.502076   -5.925537
     56          1           0        8.127276   -0.114633   -6.151757
     57          1           0        9.198041    4.951901   -2.443995
     58          1           0        9.424638    6.146897   -1.224711
     59          1           0        7.780930    5.908072   -1.871628
     60          1           0        8.323437    7.356330    0.305456
     61          1           0        6.983989    7.862599    1.479359
     62          1           0        6.668698    6.877090    0.025987
     63          1           0        7.381639    2.312497    5.438200
     64          1           0        8.846220   -0.242562    5.879410
     65          1           0        9.211243    3.016479    6.561742
     66          1           0       10.181553    2.610906    5.104779
     67          1           0       10.012403    1.471624    6.337823
     68          1           0        6.747370    0.414121    7.117114
     69          1           0        6.758979   -1.234129    6.499878
     70          1           0        5.343481    1.173577    5.636163
     71          1           0        4.674076   -0.481243    5.836559
     72          1           0        5.643189   -0.006585    4.370193
     73          1           0        7.639475   -5.616680    2.803894
     74          1           0        8.024945   -4.468041    4.134724
     75          1           0        9.365475   -5.076257    3.077078
     76          1           0        9.709978   -4.031092   -1.918762
     77          1           0        7.868801   -6.086017   -5.236420
     78          1           0        7.620702   -4.296480   -5.700891
     79          1           0        6.508847   -5.253395   -4.703984
     80         12           0       -7.669032    0.477326   -0.704123
     81          6           0      -10.016730   -1.720825    0.888191
     82          6           0      -10.098308    2.871035   -0.646007
     83          6           0       -5.786987    2.290068   -2.503924
     84          6           0       -5.873801   -2.354512   -1.654682
     85          7           0       -9.747995    0.457571    0.050702
     86          6           0      -10.511355   -0.414616    0.691717
     87          6           0      -11.850241    0.167785    1.218749
     88          6           0      -11.997245    1.396705    0.195503
     89          6           0      -10.522304    1.619326   -0.132631
     90          6           0      -12.721725    1.027509   -1.088307
     91          6           0      -11.742425    0.665759    2.702804
     92          6           0      -13.082130    0.959868    3.381374
     93          1           0      -13.220476    0.666236    4.805141
     94          7           0       -7.705347    2.433674   -1.035746
     95          6           0       -8.772352    3.254871   -0.944080
     96          6           0       -8.281955    4.593678   -1.306398
     97          6           0       -6.876471    4.466437   -1.778770
     98          6           0       -6.738926    3.024192   -1.811520
     99          6           0       -9.097984    5.838828   -1.113769
    100          6           0       -5.833490    5.475606   -2.152917
    101          8           0       -4.758200    5.137965   -2.763309
    102          6           0       -6.150277    6.882555   -1.867224
    103          7           0       -6.180075    0.029177   -2.084165
    104          6           0       -5.479628    1.005818   -2.687064
    105          6           0       -4.285596    0.446180   -3.422933
    106          6           0       -4.192889   -1.089495   -2.986253
    107          6           0       -5.457589   -1.178559   -2.104217
    108          6           0       -4.340416    0.539040   -4.947645
    109          6           0       -2.841447   -1.571688   -2.391468
    110          6           0       -2.602941   -0.913192   -1.051742
    111          7           0       -7.774500   -1.641345   -0.294042
    112          6           0       -6.939806   -2.653762   -0.815954
    113          6           0       -7.472978   -3.946370   -0.339164
    114          6           0       -8.603272   -3.594953    0.414115
    115          6           0       -8.774889   -2.184467    0.390575
    116          6           0       -6.946843   -5.230686   -0.655160
    117          6           0       -9.696378   -4.097288    1.215040
    118          8           0      -10.016374   -5.201513    1.653253
    119          6           0      -10.732934   -2.916071    1.453067
    120          6           0      -11.085557   -2.895121    2.915165
    121          8           0      -10.225257   -2.616459    3.768894
    122          8           0      -12.420938   -2.992777    3.047813
    123          6           0      -12.820685   -2.965289    4.480038
    124          1           0      -10.856263    3.617971   -0.883626
    125          1           0       -5.045729    2.876730   -3.051510
    126          1           0       -5.314250   -3.276488   -1.826543
    127          1           0      -12.701604   -0.495993    1.127393
    128          1           0      -12.414906    2.271784    0.686586
    129          1           0      -12.914683   -0.033121   -1.151295
    130          1           0      -12.071446    1.342265   -1.893990
    131          1           0      -13.635387    1.620249   -1.189375
    132          1           0      -11.302410    1.671265    2.712018
    133          1           0      -11.180687   -0.027985    3.297616
    134          1           0      -13.928348    0.545992    2.819626
    135          1           0      -13.250696    2.039351    3.363262
    136          1           0      -10.148778    5.602845   -0.905068
    137          1           0       -9.122463    6.357483   -2.078271
    138          1           0       -8.673456    6.508705   -0.362962
    139          1           0       -7.064214    7.159722   -2.387181
    140          1           0       -5.248606    7.442731   -2.122290
    141          1           0       -6.354601    6.984513   -0.795551
    142          1           0       -3.375529    0.951952   -3.124477
    143          1           0       -4.355669   -1.765892   -3.838210
    144          1           0       -3.480471    1.082167   -5.383051
    145          1           0       -5.271329    1.014066   -5.227435
    146          1           0       -4.403300   -0.415969   -5.466508
    147          1           0       -2.013815   -1.269157   -3.037726
    148          1           0       -2.781065   -2.648469   -2.273657
    149          1           0       -2.178146    0.057128   -1.325834
    150          1           0       -1.902915   -1.496786   -0.457253
    151          1           0       -3.549462   -0.723751   -0.532257
    152          1           0       -6.944992   -5.801164    0.264109
    153          1           0       -5.948129   -5.157517   -1.080570
    154          1           0       -7.682564   -5.567322   -1.390445
    155          1           0      -11.602768   -3.111983    0.824920
    156          1           0      -13.411065   -3.868148    4.664345
    157          1           0      -13.326732   -1.993135    4.630348
    158          1           0      -12.037030   -3.070067    5.221218
 ---------------------------------------------------------------------

 SCF Done:  E(RCAM-B3LYP) =  -4069.81187969     A.U. after   19 cycles

 Excitation energies and oscillator strengths:

 Excited State   1:      Singlet-A      1.6694 eV  742.67 nm  f=0.0199  <S**2>=0.000
     309 -> 315       -0.10243
     310 -> 316        0.13865
     311 -> 313       -0.40634
     312 -> 314        0.55317
 This state for optimization and/or second-order correction.
 Total Energy, E(TD-HF/TD-DFT) =  -4069.75052889
 Copying the excited state density for this state as the 1-particle RhoCI density.

 Excited State   2:      Singlet-A      1.6853 eV  735.70 nm  f=0.7365  <S**2>=0.000
     309 -> 315        0.14268
     310 -> 316        0.10422
     311 -> 313        0.55234
     312 -> 314        0.40582

 Excited State   3:      Singlet-A      2.1855 eV  567.31 nm  f=0.0908  <S**2>=0.000
     310 -> 314        0.63871
     312 -> 316       -0.27109

 Excited State   4:      Singlet-A      2.1930 eV  565.36 nm  f=0.1086  <S**2>=0.000
     309 -> 313        0.63683
     311 -> 315       -0.27678

 Excited State   5:      Singlet-A      2.7976 eV  443.18 nm  f=0.0000  <S**2>=0.000
     312 -> 313        0.70701

 The electronic state is 1-A.
 Alpha  occ. eigenvalues --  -46.87744 -46.87582 -19.26290 -19.26271 -19.19097
 Alpha  occ. eigenvalues --  -19.19007 -19.18750 -19.18659 -19.18127 -19.17980
 Alpha  occ. eigenvalues --  -14.42423 -14.42400 -14.41396 -14.41275 -14.39349
 Alpha  occ. eigenvalues --  -14.39276 -14.38536 -14.38521 -10.39064 -10.39027
 Alpha  occ. eigenvalues --  -10.35383 -10.35338 -10.34348 -10.34157 -10.31702
 Alpha  occ. eigenvalues --  -10.31675 -10.31359 -10.31233 -10.30956 -10.30861
 Alpha  occ. eigenvalues --  -10.30520 -10.30454 -10.30317 -10.30281 -10.30148
 Alpha  occ. eigenvalues --  -10.30053 -10.29867 -10.29806 -10.29577 -10.29361
 Alpha  occ. eigenvalues --  -10.29324 -10.29198 -10.28713 -10.28659 -10.28605
 Alpha  occ. eigenvalues --  -10.28520 -10.28333 -10.28315 -10.28080 -10.28076
 Alpha  occ. eigenvalues --  -10.27925 -10.27740 -10.27676 -10.27595 -10.27529
 Alpha  occ. eigenvalues --  -10.27435 -10.27419 -10.27411 -10.27409 -10.27394
 Alpha  occ. eigenvalues --  -10.27393 -10.27387 -10.27356 -10.27273 -10.27123
 Alpha  occ. eigenvalues --  -10.26982 -10.26680 -10.26637 -10.26376 -10.26335
 Alpha  occ. eigenvalues --  -10.26194 -10.26107 -10.25971 -10.25963 -10.25954
 Alpha  occ. eigenvalues --  -10.25842 -10.25788 -10.25748 -10.25376 -10.25317
 Alpha  occ. eigenvalues --  -10.24797 -10.24782 -10.24734 -10.24611 -10.24603
 Alpha  occ. eigenvalues --  -10.24539  -3.16487  -3.16332  -1.91369  -1.91214
 Alpha  occ. eigenvalues --   -1.90955  -1.90803  -1.90797  -1.90640  -1.16619
 Alpha  occ. eigenvalues --   -1.16583  -1.08587  -1.08587  -1.07151  -1.06912
 Alpha  occ. eigenvalues --   -1.06882  -1.06628  -1.04532  -1.04422  -1.03707
 Alpha  occ. eigenvalues --   -1.03585  -1.03181  -1.02957  -1.02359  -1.02032
 Alpha  occ. eigenvalues --   -0.91926  -0.91913  -0.89460  -0.89390  -0.89149
 Alpha  occ. eigenvalues --   -0.89086  -0.88227  -0.88113  -0.87818  -0.87710
 Alpha  occ. eigenvalues --   -0.87624  -0.87608  -0.87214  -0.87056  -0.84940
 Alpha  occ. eigenvalues --   -0.84933  -0.83876  -0.83763  -0.82902  -0.82862
 Alpha  occ. eigenvalues --   -0.82603  -0.82584  -0.81551  -0.81524  -0.80551
 Alpha  occ. eigenvalues --   -0.80371  -0.78741  -0.78563  -0.77167  -0.77067
 Alpha  occ. eigenvalues --   -0.76894  -0.76817  -0.75883  -0.75770  -0.74844
 Alpha  occ. eigenvalues --   -0.74713  -0.72721  -0.72616  -0.71623  -0.71506
 Alpha  occ. eigenvalues --   -0.69841  -0.69625  -0.68828  -0.68758  -0.67591
 Alpha  occ. eigenvalues --   -0.67528  -0.67177  -0.67139  -0.65245  -0.65203
 Alpha  occ. eigenvalues --   -0.64808  -0.64688  -0.64578  -0.64575  -0.64212
 Alpha  occ. eigenvalues --   -0.64098  -0.62265  -0.62203  -0.60383  -0.60266
 Alpha  occ. eigenvalues --   -0.59760  -0.59729  -0.58937  -0.58912  -0.58455
 Alpha  occ. eigenvalues --   -0.58346  -0.57548  -0.57483  -0.57256  -0.57151
 Alpha  occ. eigenvalues --   -0.56259  -0.56128  -0.55951  -0.55820  -0.55467
 Alpha  occ. eigenvalues --   -0.55388  -0.55289  -0.55153  -0.54480  -0.54392
 Alpha  occ. eigenvalues --   -0.53856  -0.53849  -0.53244  -0.53175  -0.53149
 Alpha  occ. eigenvalues --   -0.53073  -0.52873  -0.52829  -0.52701  -0.52612
 Alpha  occ. eigenvalues --   -0.52371  -0.52253  -0.51863  -0.51794  -0.51597
 Alpha  occ. eigenvalues --   -0.51573  -0.51148  -0.51116  -0.50506  -0.50413
 Alpha  occ. eigenvalues --   -0.49970  -0.49911  -0.49862  -0.49767  -0.49467
 Alpha  occ. eigenvalues --   -0.49425  -0.49167  -0.49135  -0.49054  -0.49034
 Alpha  occ. eigenvalues --   -0.48552  -0.48490  -0.48406  -0.48391  -0.48286
 Alpha  occ. eigenvalues --   -0.48279  -0.47645  -0.47520  -0.47245  -0.47047
 Alpha  occ. eigenvalues --   -0.46745  -0.46622  -0.46515  -0.46487  -0.46307
 Alpha  occ. eigenvalues --   -0.46186  -0.46114  -0.46002  -0.45782  -0.45744
 Alpha  occ. eigenvalues --   -0.45144  -0.45118  -0.44534  -0.44452  -0.44446
 Alpha  occ. eigenvalues --   -0.44397  -0.44089  -0.44057  -0.44043  -0.43980
 Alpha  occ. eigenvalues --   -0.43971  -0.43877  -0.43473  -0.43456  -0.43337
 Alpha  occ. eigenvalues --   -0.43313  -0.42978  -0.42860  -0.42823  -0.42670
 Alpha  occ. eigenvalues --   -0.42598  -0.42448  -0.41955  -0.41858  -0.41656
 Alpha  occ. eigenvalues --   -0.41592  -0.41491  -0.41379  -0.41093  -0.40916
 Alpha  occ. eigenvalues --   -0.40821  -0.40764  -0.40662  -0.40620  -0.40514
 Alpha  occ. eigenvalues --   -0.40385  -0.40199  -0.40170  -0.39372  -0.39287
 Alpha  occ. eigenvalues --   -0.38412  -0.38252  -0.37712  -0.37589  -0.37264
 Alpha  occ. eigenvalues --   -0.37222  -0.37171  -0.37129  -0.36699  -0.36684
 Alpha  occ. eigenvalues --   -0.36151  -0.36130  -0.34235  -0.34174  -0.33796
 Alpha  occ. eigenvalues --   -0.33750  -0.33137  -0.33097  -0.31281  -0.31217
 Alpha  occ. eigenvalues --   -0.30985  -0.30897  -0.29988  -0.29883  -0.29394
 Alpha  occ. eigenvalues --   -0.29270  -0.29256  -0.29135  -0.24030  -0.23958
 Alpha  occ. eigenvalues --   -0.21075  -0.21038
 Alpha virt. eigenvalues --   -0.08721  -0.08717  -0.01696  -0.01605  -0.00002
 Alpha virt. eigenvalues --    0.00035   0.02250   0.02285   0.03175   0.03313
 Alpha virt. eigenvalues --    0.04762   0.04801   0.05118   0.05230   0.06206

 Mulliken charges:
               1
     1  Mg   0.838676
     2  C   -0.003172
     3  C   -0.094111
     4  C   -0.045740
     5  C   -0.063890
     6  N   -0.256788
     7  C   -0.052586
     8  C   -0.013976
     9  C   -0.087020
    10  C    0.046305
    11  C    0.104813
    12  C    0.053474
    13  C   -0.071687
    14  H    0.035643
    15  N   -0.433149
    16  C    0.168481
    17  C   -0.177062
    18  C   -0.003870
    19  C    0.148749
    20  C    0.110159
    21  C    0.012480
    22  O   -0.249559
    23  C    0.062369
    24  N   -0.341141
    25  C    0.041259
    26  C   -0.028187
    27  C   -0.024004
    28  C    0.074853
    29  C    0.076183
    30  C    0.035107
    31  C   -0.004557
    32  N   -0.310419
    33  C    0.080318
    34  C   -0.169722
    35  C    0.008280
    36  C    0.082883
    37  C    0.127321
    38  C    0.045968
    39  O   -0.188604
    40  C   -0.005287
    41  C    0.212936
    42  O   -0.257535
    43  O   -0.304682
    44  C    0.157805
    45  H   -0.017624
    46  H   -0.016752
    47  H   -0.041382
    48  H    0.000860
    49  H   -0.004031
    50  H    0.025439
    51  H    0.016498
    52  H    0.016621
    53  H    0.011302
    54  H    0.043773
    55  H    0.017926
    56  H    0.018089
    57  H    0.005811
    58  H    0.026775
    59  H    0.039926
    60  H    0.037203
    61  H    0.035728
    62  H    0.031941
    63  H    0.016716
    64  H    0.009427
    65  H    0.023241
    66  H    0.012455
    67  H    0.004735
    68  H    0.006432
    69  H    0.004804
    70  H    0.008908
    71  H    0.018508
    72  H    0.028817
    73  H    0.047533
    74  H    0.009268
    75  H    0.045958
    76  H    0.035138
    77  H    0.042973
    78  H    0.046395
    79  H    0.053271
    80  Mg   0.837894
    81  C   -0.016934
    82  C   -0.087953
    83  C   -0.045478
    84  C   -0.064747
    85  N   -0.254598
    86  C   -0.049823
    87  C   -0.015124
    88  C   -0.090462
    89  C    0.045712
    90  C    0.114426
    91  C    0.062551
    92  C   -0.077819
    93  H    0.034793
    94  N   -0.423408
    95  C    0.162843
    96  C   -0.174817
    97  C   -0.007969
    98  C    0.152076
    99  C    0.099434
   100  C    0.015500
   101  O   -0.253502
   102  C    0.061262
   103  N   -0.350130
   104  C    0.037534
   105  C   -0.019683
   106  C   -0.035198
   107  C    0.089098
   108  C    0.073846
   109  C    0.034692
   110  C   -0.007898
   111  N   -0.324164
   112  C    0.078601
   113  C   -0.162817
   114  C    0.002190
   115  C    0.096342
   116  C    0.131359
   117  C    0.042469
   118  O   -0.187838
   119  C    0.000887
   120  C    0.211265
   121  O   -0.250965
   122  O   -0.305680
   123  C    0.152058
   124  H   -0.019933
   125  H   -0.015806
   126  H   -0.039732
   127  H   -0.000747
   128  H   -0.004468
   129  H    0.022395
   130  H    0.014380
   131  H    0.016077
   132  H    0.013926
   133  H    0.037721
   134  H    0.020704
   135  H    0.019503
   136  H    0.008641
   137  H    0.025834
   138  H    0.039620
   139  H    0.038096
   140  H    0.035951
   141  H    0.033975
   142  H    0.014464
   143  H    0.012491
   144  H    0.024741
   145  H    0.011226
   146  H    0.005702
   147  H    0.007049
   148  H    0.004743
   149  H    0.010562
   150  H    0.019694
   151  H    0.029314
   152  H    0.046240
   153  H    0.009296
   154  H    0.046808
   155  H    0.034882
   156  H    0.043835
   157  H    0.049399
   158  H    0.053591
 Sum of Mulliken charges =  -0.00000

 Dipole moment (field-independent basis, Debye):
    X=             -0.0129    Y=              6.9219    Z=             -3.4611  Tot=              7.7390
 Quadrupole moment (field-independent basis, Debye-Ang):
   XX=           -420.4786   YY=           -541.2554   ZZ=           -481.2063
   XY=            -26.3305   XZ=            -15.5093   YZ=             -1.1275

 Normal termination of Gaussian 16 at Sat Sep 11 19:59:39 2021.
