 Gaussian 16, Revision A.03,
 Gaussian 16:  ES64L-G16RevA.03 25-Dec-2016

 -----------------------------------
 #p cam-b3lyp/Def2SVP td=(nstates=5)
 -----------------------------------

 --------------------------------
 TDDFT excited states in gaussian
 --------------------------------
 Symbolic Z-matrix:
 Charge =  0 Multiplicity = 1

                         Standard orientation:
 ---------------------------------------------------------------------
 Center     Atomic      Atomic             Coordinates (Angstroms)
 Number     Number       Type             X           Y           Z
 ---------------------------------------------------------------------
      1         12           0        5.548600    0.329094    0.690037
      2          6           0        5.816732   -2.730669   -1.147943
      3          6           0        6.731307    1.925615   -2.084019
      4          6           0        5.751484    2.972047    2.430799
      5          6           0        5.484798   -1.593975    3.595789
      6          7           0        6.159188   -0.416789   -1.302822
      7          6           0        6.157427   -1.604335   -1.900235
      8          6           0        6.478960   -1.530401   -3.422905
      9          6           0        7.282821   -0.153678   -3.443878
     10          6           0        6.663707    0.507681   -2.225180
     11          6           0        8.780293   -0.318830   -3.205540
     12          6           0        5.184746   -1.451548   -4.300699
     13          6           0        5.393444   -1.704447   -5.796641
     14          1           0        4.356761   -2.404702   -6.539796
     15          7           0        5.681227    2.220841    0.136367
     16          6           0        6.173653    2.689025   -1.035642
     17          6           0        6.055963    4.161524   -0.967987
     18          6           0        5.631203    4.521051    0.413467
     19          6           0        5.697193    3.237656    1.064560
     20          6           0        6.286870    5.060311   -2.143833
     21          6           0        5.239665    5.817571    1.048970
     22          8           0        5.130123    5.948250    2.316053
     23          6           0        5.071685    6.968669    0.143543
     24          7           0        5.830750    0.667341    2.730531
     25          6           0        5.821067    1.907149    3.232295
     26          6           0        5.756980    1.889237    4.730798
     27          6           0        5.478532    0.371969    5.143251
     28          6           0        5.514511   -0.266413    3.732775
     29          6           0        7.009265    2.394811    5.460310
     30          6           0        4.246685    0.102715    6.043515
     31          6           0        2.976673    0.396472    5.276786
     32          7           0        5.455428   -1.786348    1.166768
     33          6           0        5.462124   -2.363716    2.444764
     34          6           0        5.495065   -3.825944    2.258025
     35          6           0        5.522158   -3.998386    0.875500
     36          6           0        5.533604   -2.724203    0.239403
     37          6           0        5.555313   -4.797460    3.295792
     38          6           0        5.568977   -4.962376   -0.211877
     39          8           0        5.485573   -6.189092   -0.287410
     40          6           0        5.884555   -4.179569   -1.562229
     41          6           0        4.910896   -4.659373   -2.603904
     42          8           0        3.691775   -4.413042   -2.501780
     43          8           0        5.588147   -5.120925   -3.666375
     44          6           0        4.680637   -5.585548   -4.749291
     45          1           0        7.312728    2.500911   -2.807155
     46          1           0        5.711020    3.857217    3.068982
     47          1           0        5.381398   -2.259097    4.455077
     48          1           0        7.112049   -2.336839   -3.793418
     49          1           0        7.069648    0.428419   -4.340227
     50          1           0        9.029467   -1.343967   -2.931811
     51          1           0        9.022039    0.362553   -2.389593
     52          1           0        9.350447    0.030678   -4.066670
     53          1           0        4.835341   -0.419623   -4.333967
     54          1           0        4.420520   -2.131840   -3.923224
     55          1           0        6.370050   -2.147609   -5.993510
     56          1           0        5.425956   -0.740591   -6.304700
     57          1           0        6.746708    4.524493   -2.973286
     58          1           0        7.037242    5.791306   -1.843336
     59          1           0        5.376344    5.573922   -2.452829
     60          1           0        6.006153    7.147111   -0.388882
     61          1           0        4.704476    7.786774    0.762181
     62          1           0        4.330135    6.716052   -0.614900
     63          1           0        4.942130    2.513665    5.094851
     64          1           0        6.312105   -0.060991    5.696763
     65          1           0        6.813755    3.220403    6.145057
     66          1           0        7.746476    2.676184    4.708885
     67          1           0        7.550738    1.632977    6.020518
     68          1           0        4.258467    0.763348    6.909755
     69          1           0        4.196899   -0.922947    6.409290
     70          1           0        2.864147    1.473520    5.395681
     71          1           0        2.133641   -0.135336    5.719154
     72          1           0        3.099371    0.197241    4.212014
     73          1           0        4.852575   -5.583319    3.019107
     74          1           0        5.301638   -4.361306    4.261723
     75          1           0        6.602089   -5.094554    3.233746
     76          1           0        6.915306   -4.413567   -1.826651
     77          1           0        4.947900   -6.618869   -4.970766
     78          1           0        4.763156   -4.857449   -5.556426
     79          1           0        3.629252   -5.697648   -4.482156
     80         12           0       -4.992442    0.683734   -0.255157
     81          6           0       -7.706023   -1.600781    0.289396
     82          6           0       -7.277733    2.853164   -1.561144
     83          6           0       -2.575548    2.530386   -1.158438
     84          6           0       -2.830905   -2.036587    0.015621
     85          7           0       -7.180109    0.531875   -0.543792
     86          6           0       -8.112525   -0.359186   -0.242235
     87          6           0       -9.568306    0.137243   -0.451574
     88          6           0       -9.278732    1.277262   -1.544914
     89          6           0       -7.833088    1.606194   -1.178055
     90          6           0       -9.303191    0.760757   -2.973883
     91          6           0      -10.188026    0.740928    0.857440
     92          6           0      -11.701674    0.960893    0.810253
     93          1           0      -12.473770    0.752151    2.032050
     94          7           0       -4.961438    2.602722   -0.760213
     95          6           0       -5.985267    3.331251   -1.252448
     96          6           0       -5.445723    4.680725   -1.480436
     97          6           0       -3.977856    4.646200   -1.237773
     98          6           0       -3.773632    3.222668   -1.059055
     99          6           0       -6.314690    5.859427   -1.810553
    100          6           0       -2.929183    5.715822   -1.188966
    101          8           0       -1.678875    5.433924   -1.198925
    102          6           0       -3.408000    7.105434   -1.223469
    103          7           0       -3.012773    0.276866   -0.742734
    104          6           0       -2.158596    1.268751   -1.050077
    105          6           0       -0.734525    0.768254   -1.093885
    106          6           0       -0.784334   -0.720656   -0.512314
    107          6           0       -2.308639   -0.861335   -0.307146
    108          6           0       -0.076659    0.753711   -2.473526
    109          6           0        0.155002   -1.041333    0.682462
    110          6           0       -0.289490   -0.276266    1.908219
    111          7           0       -5.177691   -1.403805    0.270109
    112          6           0       -4.149656   -2.371589    0.295038
    113          6           0       -4.782488   -3.671243    0.599710
    114          6           0       -6.148626   -3.370929    0.709042
    115          6           0       -6.355235   -1.985728    0.468163
    116          6           0       -4.110324   -4.922602    0.691533
    117          6           0       -7.464208   -3.912676    0.962962
    118          8           0       -7.899531   -5.008948    1.312830
    119          6           0       -8.546178   -2.813858    0.577827
    120          6           0       -9.540156   -2.726215    1.703363
    121          8           0       -9.191016   -2.316544    2.824464
    122          8           0      -10.777238   -2.931771    1.215750
    123          6           0      -11.799226   -2.843766    2.292602
    124          1           0       -7.871569    3.513021   -2.194265
    125          1           0       -1.692851    3.141973   -1.359182
    126          1           0       -2.213320   -2.915233    0.213723
    127          1           0      -10.246880   -0.603417   -0.857447
    128          1           0       -9.917535    2.143128   -1.391417
    129          1           0       -9.394725   -0.314554   -3.012095
    130          1           0       -8.367876    1.076835   -3.416976
    131          1           0      -10.091032    1.262801   -3.542743
    132          1           0       -9.850573    1.779576    0.967395
    133          1           0       -9.936519    0.140602    1.710064
    134          1           0      -12.168141    0.437583   -0.033256
    135          1           0      -11.892639    2.017734    0.608699
    136          1           0       -7.329307    5.546500   -2.086292
    137          1           0       -5.911034    6.308231   -2.724614
    138          1           0       -6.320872    6.612750   -1.019901
    139          1           0       -3.986095    7.265794   -2.130418
    140          1           0       -2.518676    7.724367   -1.089695
    141          1           0       -4.092780    7.260507   -0.382248
    142          1           0       -0.093224    1.370881   -0.462478
    143          1           0       -0.499441   -1.464232   -1.271116
    144          1           0        0.860649    1.339978   -2.516335
    145          1           0       -0.790939    1.125303   -3.196199
    146          1           0        0.154267   -0.235687   -2.864632
    147          1           0        1.173287   -0.711148    0.462847
    148          1           0        0.203787   -2.098335    0.921947
    149          1           0        0.168210    0.707103    1.764774
    150          1           0        0.079195   -0.754998    2.813166
    151          1           0       -1.376721   -0.136426    1.912070
    152          1           0       -4.510464   -5.427931    1.560455
    153          1           0       -3.033092   -4.790570    0.768419
    154          1           0       -4.401900   -5.371036   -0.261958
    155          1           0       -9.012766   -3.127056   -0.356940
    156          1           0      -12.364518   -3.780660    2.273914
    157          1           0      -12.361834   -1.911987    2.095090
    158          1           0      -11.447406   -2.829434    3.317521
 ---------------------------------------------------------------------

 SCF Done:  E(RCAM-B3LYP) =  -4069.81261399     A.U. after   19 cycles

 Excitation energies and oscillator strengths:

 Excited State   1:      Singlet-A      1.6535 eV  749.83 nm  f=0.0046  <S**2>=0.000
     309 -> 315       -0.11186
     310 -> 316        0.12574
     311 -> 313       -0.45467
     312 -> 314        0.51540
 This state for optimization and/or second-order correction.
 Total Energy, E(TD-HF/TD-DFT) =  -4069.75184914
 Copying the excited state density for this state as the 1-particle RhoCI density.

 Excited State   2:      Singlet-A      1.6975 eV  730.41 nm  f=0.7085  <S**2>=0.000
     309 -> 315        0.13542
     310 -> 316        0.11818
     311 -> 313        0.51349
     312 -> 314        0.45292

 Excited State   3:      Singlet-A      2.1839 eV  567.72 nm  f=0.1098  <S**2>=0.000
     310 -> 314        0.64262
     312 -> 316       -0.27135

 Excited State   4:      Singlet-A      2.1969 eV  564.36 nm  f=0.0929  <S**2>=0.000
     309 -> 313        0.63996
     311 -> 315       -0.28000

 Excited State   5:      Singlet-A      2.4754 eV  500.86 nm  f=0.0000  <S**2>=0.000
     312 -> 313        0.70642

 The electronic state is 1-A.
 Alpha  occ. eigenvalues --  -46.87892 -46.87459 -19.26410 -19.26215 -19.19175
 Alpha  occ. eigenvalues --  -19.19018 -19.18733 -19.18588 -19.18233 -19.17874
 Alpha  occ. eigenvalues --  -14.42517 -14.42304 -14.41506 -14.41137 -14.39457
 Alpha  occ. eigenvalues --  -14.39159 -14.38670 -14.38394 -10.39224 -10.38944
 Alpha  occ. eigenvalues --  -10.35358 -10.35270 -10.34459 -10.34051 -10.31793
 Alpha  occ. eigenvalues --  -10.31639 -10.31483 -10.31111 -10.30957 -10.30856
 Alpha  occ. eigenvalues --  -10.30638 -10.30558 -10.30227 -10.30189 -10.30151
 Alpha  occ. eigenvalues --  -10.29977 -10.29900 -10.29662 -10.29658 -10.29283
 Alpha  occ. eigenvalues --  -10.29237 -10.29202 -10.28824 -10.28626 -10.28572
 Alpha  occ. eigenvalues --  -10.28543 -10.28420 -10.28224 -10.28181 -10.27987
 Alpha  occ. eigenvalues --  -10.27831 -10.27804 -10.27778 -10.27599 -10.27514
 Alpha  occ. eigenvalues --  -10.27477 -10.27465 -10.27462 -10.27421 -10.27332
 Alpha  occ. eigenvalues --  -10.27292 -10.27280 -10.27242 -10.27129 -10.27098
 Alpha  occ. eigenvalues --  -10.26882 -10.26815 -10.26561 -10.26333 -10.26284
 Alpha  occ. eigenvalues --  -10.26212 -10.26189 -10.26065 -10.25890 -10.25887
 Alpha  occ. eigenvalues --  -10.25730 -10.25668 -10.25545 -10.25435 -10.25133
 Alpha  occ. eigenvalues --  -10.24884 -10.24828 -10.24708 -10.24677 -10.24488
 Alpha  occ. eigenvalues --  -10.24421  -3.16626  -3.16209  -1.91509  -1.91093
 Alpha  occ. eigenvalues --   -1.91091  -1.90935  -1.90680  -1.90517  -1.16762
 Alpha  occ. eigenvalues --   -1.16507  -1.08700  -1.08483  -1.07126  -1.06845
 Alpha  occ. eigenvalues --   -1.06802  -1.06790  -1.04644  -1.04306  -1.03812
 Alpha  occ. eigenvalues --   -1.03460  -1.03288  -1.02822  -1.02467  -1.01904
 Alpha  occ. eigenvalues --   -0.92038  -0.91795  -0.89554  -0.89258  -0.89229
 Alpha  occ. eigenvalues --   -0.88986  -0.88316  -0.87945  -0.87921  -0.87726
 Alpha  occ. eigenvalues --   -0.87566  -0.87480  -0.87245  -0.86961  -0.85037
 Alpha  occ. eigenvalues --   -0.84831  -0.83965  -0.83609  -0.82915  -0.82770
 Alpha  occ. eigenvalues --   -0.82663  -0.82483  -0.81660  -0.81416  -0.80639
 Alpha  occ. eigenvalues --   -0.80263  -0.78802  -0.78449  -0.77255  -0.76996
 Alpha  occ. eigenvalues --   -0.76952  -0.76696  -0.75983  -0.75665  -0.74929
 Alpha  occ. eigenvalues --   -0.74566  -0.72819  -0.72480  -0.71719  -0.71379
 Alpha  occ. eigenvalues --   -0.69929  -0.69443  -0.68916  -0.68654  -0.67678
 Alpha  occ. eigenvalues --   -0.67409  -0.67253  -0.67053  -0.65355  -0.65102
 Alpha  occ. eigenvalues --   -0.64915  -0.64673  -0.64560  -0.64461  -0.64305
 Alpha  occ. eigenvalues --   -0.63936  -0.62382  -0.62090  -0.60437  -0.60153
 Alpha  occ. eigenvalues --   -0.59866  -0.59624  -0.59039  -0.58782  -0.58553
 Alpha  occ. eigenvalues --   -0.58221  -0.57670  -0.57376  -0.57339  -0.57017
 Alpha  occ. eigenvalues --   -0.56345  -0.56063  -0.56003  -0.55724  -0.55516
 Alpha  occ. eigenvalues --   -0.55390  -0.55292  -0.55009  -0.54588  -0.54253
 Alpha  occ. eigenvalues --   -0.53963  -0.53754  -0.53328  -0.53228  -0.53038
 Alpha  occ. eigenvalues --   -0.52981  -0.52960  -0.52722  -0.52718  -0.52534
 Alpha  occ. eigenvalues --   -0.52458  -0.52091  -0.51969  -0.51649  -0.51634
 Alpha  occ. eigenvalues --   -0.51507  -0.51251  -0.50994  -0.50491  -0.50330
 Alpha  occ. eigenvalues --   -0.50042  -0.49908  -0.49815  -0.49624  -0.49528
 Alpha  occ. eigenvalues --   -0.49333  -0.49247  -0.49145  -0.49035  -0.48921
 Alpha  occ. eigenvalues --   -0.48657  -0.48496  -0.48411  -0.48385  -0.48198
 Alpha  occ. eigenvalues --   -0.48132  -0.47718  -0.47406  -0.47313  -0.46928
 Alpha  occ. eigenvalues --   -0.46844  -0.46614  -0.46487  -0.46404  -0.46379
 Alpha  occ. eigenvalues --   -0.46216  -0.46052  -0.45892  -0.45854  -0.45615
 Alpha  occ. eigenvalues --   -0.45226  -0.44982  -0.44639  -0.44507  -0.44353
 Alpha  occ. eigenvalues --   -0.44268  -0.44171  -0.44135  -0.44019  -0.43962
 Alpha  occ. eigenvalues --   -0.43854  -0.43782  -0.43562  -0.43434  -0.43365
 Alpha  occ. eigenvalues --   -0.43198  -0.43073  -0.42795  -0.42766  -0.42700
 Alpha  occ. eigenvalues --   -0.42682  -0.42309  -0.42056  -0.41756  -0.41729
 Alpha  occ. eigenvalues --   -0.41586  -0.41475  -0.41270  -0.41187  -0.40920
 Alpha  occ. eigenvalues --   -0.40802  -0.40770  -0.40603  -0.40588  -0.40510
 Alpha  occ. eigenvalues --   -0.40291  -0.40212  -0.40093  -0.39460  -0.39109
 Alpha  occ. eigenvalues --   -0.38506  -0.38095  -0.37822  -0.37495  -0.37358
 Alpha  occ. eigenvalues --   -0.37331  -0.37038  -0.36998  -0.36819  -0.36600
 Alpha  occ. eigenvalues --   -0.36263  -0.35986  -0.34349  -0.34048  -0.33910
 Alpha  occ. eigenvalues --   -0.33708  -0.33245  -0.32969  -0.31277  -0.31146
 Alpha  occ. eigenvalues --   -0.31075  -0.30775  -0.30099  -0.29777  -0.29476
 Alpha  occ. eigenvalues --   -0.29371  -0.29148  -0.29012  -0.24144  -0.23830
 Alpha  occ. eigenvalues --   -0.21175  -0.20912
 Alpha virt. eigenvalues --   -0.08810  -0.08597  -0.01793  -0.01487  -0.00051
 Alpha virt. eigenvalues --    0.00129   0.02107   0.02210   0.02483   0.03431
 Alpha virt. eigenvalues --    0.04650   0.04912   0.04964   0.05316   0.06040

 Mulliken charges:
               1
     1  Mg   0.830577
     2  C   -0.002581
     3  C   -0.093658
     4  C   -0.045140
     5  C   -0.063518
     6  N   -0.256264
     7  C   -0.054401
     8  C   -0.013528
     9  C   -0.087004
    10  C    0.046195
    11  C    0.104712
    12  C    0.053104
    13  C   -0.071913
    14  H    0.035819
    15  N   -0.434006
    16  C    0.168595
    17  C   -0.176033
    18  C   -0.002629
    19  C    0.148996
    20  C    0.109855
    21  C    0.014635
    22  O   -0.249083
    23  C    0.061218
    24  N   -0.340096
    25  C    0.041292
    26  C   -0.028365
    27  C   -0.024036
    28  C    0.073569
    29  C    0.076080
    30  C    0.035303
    31  C   -0.006345
    32  N   -0.310485
    33  C    0.078749
    34  C   -0.170929
    35  C    0.008094
    36  C    0.080334
    37  C    0.127556
    38  C    0.045298
    39  O   -0.188617
    40  C   -0.005608
    41  C    0.213431
    42  O   -0.259677
    43  O   -0.304289
    44  C    0.157639
    45  H   -0.017136
    46  H   -0.016025
    47  H   -0.041711
    48  H    0.001037
    49  H   -0.003670
    50  H    0.025594
    51  H    0.016725
    52  H    0.016985
    53  H    0.011213
    54  H    0.042413
    55  H    0.018306
    56  H    0.018565
    57  H    0.005583
    58  H    0.026991
    59  H    0.042366
    60  H    0.036206
    61  H    0.036396
    62  H    0.035948
    63  H    0.017339
    64  H    0.009651
    65  H    0.023702
    66  H    0.012587
    67  H    0.004912
    68  H    0.007017
    69  H    0.004656
    70  H    0.010238
    71  H    0.019313
    72  H    0.027908
    73  H    0.046891
    74  H    0.009266
    75  H    0.046300
    76  H    0.035575
    77  H    0.043537
    78  H    0.046679
    79  H    0.052987
    80  Mg   0.837449
    81  C   -0.017301
    82  C   -0.088313
    83  C   -0.045501
    84  C   -0.064446
    85  N   -0.254599
    86  C   -0.049790
    87  C   -0.015104
    88  C   -0.090424
    89  C    0.045611
    90  C    0.114542
    91  C    0.062611
    92  C   -0.077645
    93  H    0.034475
    94  N   -0.423302
    95  C    0.162651
    96  C   -0.175264
    97  C   -0.008503
    98  C    0.152102
    99  C    0.099609
   100  C    0.015386
   101  O   -0.254635
   102  C    0.061391
   103  N   -0.350082
   104  C    0.037477
   105  C   -0.020809
   106  C   -0.037441
   107  C    0.087995
   108  C    0.072091
   109  C    0.032846
   110  C   -0.010056
   111  N   -0.324243
   112  C    0.078432
   113  C   -0.162469
   114  C    0.002049
   115  C    0.096454
   116  C    0.131196
   117  C    0.042502
   118  O   -0.187947
   119  C    0.000892
   120  C    0.211219
   121  O   -0.251165
   122  O   -0.305664
   123  C    0.152144
   124  H   -0.020458
   125  H   -0.016631
   126  H   -0.035952
   127  H   -0.000900
   128  H   -0.004771
   129  H    0.022333
   130  H    0.014320
   131  H    0.015687
   132  H    0.013876
   133  H    0.037628
   134  H    0.020627
   135  H    0.019359
   136  H    0.008422
   137  H    0.025142
   138  H    0.039242
   139  H    0.037700
   140  H    0.035132
   141  H    0.034243
   142  H    0.012944
   143  H    0.020642
   144  H    0.023253
   145  H    0.009765
   146  H    0.010844
   147  H    0.009309
   148  H    0.011001
   149  H    0.009334
   150  H    0.019649
   151  H    0.028775
   152  H    0.045579
   153  H    0.011726
   154  H    0.047399
   155  H    0.034753
   156  H    0.043701
   157  H    0.049285
   158  H    0.053432
 Sum of Mulliken charges =  -0.00000

 Dipole moment (field-independent basis, Debye):
    X=              1.0873    Y=              6.3948    Z=             -4.9702  Tot=              8.1718
 Quadrupole moment (field-independent basis, Debye-Ang):
   XX=           -448.8609   YY=           -544.9647   ZZ=           -479.5618
   XY=            -29.8068   XZ=              5.2586   YZ=            -10.3226

 Normal termination of Gaussian 16 at Sat Sep 11 02:56:26 2021.
