 Gaussian 16, Revision A.03,
 Gaussian 16:  ES64L-G16RevA.03 25-Dec-2016

 -----------------------------------
 #p cam-b3lyp/Def2SVP td=(nstates=5)
 -----------------------------------

 --------------------------------
 TDDFT excited states in gaussian
 --------------------------------
 Symbolic Z-matrix:
 Charge =  0 Multiplicity = 1

                         Standard orientation:
 ---------------------------------------------------------------------
 Center     Atomic      Atomic             Coordinates (Angstroms)
 Number     Number       Type             X           Y           Z
 ---------------------------------------------------------------------
      1         12           0       -4.112034   -1.596536    0.294716
      2          6           0       -5.595918    1.573949   -0.452497
      3          6           0       -4.770138   -2.497126   -2.930017
      4          6           0       -3.224679   -4.545450    1.051765
      5          6           0       -4.605077   -0.866606    3.666625
      6          7           0       -5.064557   -0.510998   -1.383066
      7          6           0       -5.535957    0.719881   -1.555954
      8          6           0       -5.890733    1.043058   -3.038204
      9          6           0       -6.127051   -0.441352   -3.569881
     10          6           0       -5.240679   -1.193335   -2.592746
     11          6           0       -7.563499   -0.926613   -3.403629
     12          6           0       -4.710018    1.740966   -3.793563
     13          6           0       -5.079811    2.380691   -5.134965
     14          1           0       -4.419141    3.616388   -5.527287
     15          7           0       -3.564565   -3.105273   -0.857169
     16          6           0       -3.912337   -3.303809   -2.151358
     17          6           0       -3.253839   -4.562603   -2.561843
     18          6           0       -2.650529   -5.177671   -1.347018
     19          6           0       -3.151340   -4.302808   -0.317852
     20          6           0       -3.199788   -5.038048   -3.981273
     21          6           0       -1.771990   -6.371525   -1.144495
     22          8           0       -1.552054   -6.865473    0.014046
     23          6           0       -1.239680   -7.009567   -2.362112
     24          7           0       -4.135651   -2.671354    2.084086
     25          6           0       -3.639555   -3.911695    2.150618
     26          6           0       -3.504049   -4.370027    3.572416
     27          6           0       -3.785347   -3.086295    4.479421
     28          6           0       -4.133126   -2.076576    3.357911
     29          6           0       -4.437511   -5.511164    3.999575
     30          6           0       -2.693294   -2.699007    5.507939
     31          6           0       -1.449253   -2.233592    4.784857
     32          7           0       -4.783222    0.117639    1.444567
     33          6           0       -4.932829    0.192663    2.836926
     34          6           0       -5.515518    1.513170    3.138262
     35          6           0       -5.680858    2.111991    1.890897
     36          6           0       -5.254428    1.211732    0.873064
     37          6           0       -5.874091    1.990777    4.429676
     38          6           0       -6.141508    3.293419    1.179639
     39          8           0       -6.522917    4.415067    1.517171
     40          6           0       -6.218572    2.945604   -0.372428
     41          6           0       -5.551126    4.065697   -1.122905
     42          8           0       -4.323879    4.265233   -1.016064
     43          8           0       -6.408734    4.570858   -2.022829
     44          6           0       -5.799272    5.667169   -2.822085
     45          1           0       -5.135952   -2.970405   -3.843323
     46          1           0       -2.823926   -5.511611    1.365403
     47          1           0       -4.708238   -0.535929    4.701740
     48          1           0       -6.796998    1.634427   -3.170077
     49          1           0       -5.763185   -0.571384   -4.588907
     50          1           0       -8.159286   -0.218139   -2.828283
     51          1           0       -7.490102   -1.878288   -2.876921
     52          1           0       -8.010152   -1.153750   -4.371972
     53          1           0       -4.005510    0.983564   -4.137177
     54          1           0       -4.232701    2.487322   -3.157600
     55          1           0       -6.160373    2.472660   -5.248261
     56          1           0       -4.780838    1.699857   -5.932010
     57          1           0       -3.870475   -4.465899   -4.621093
     58          1           0       -3.608044   -6.048426   -3.994393
     59          1           0       -2.182313   -5.047569   -4.372408
     60          1           0       -2.069358   -7.330891   -2.992140
     61          1           0       -0.561910   -7.791031   -2.020363
     62          1           0       -0.687617   -6.266103   -2.937816
     63          1           0       -2.497063   -4.734377    3.771548
     64          1           0       -4.688089   -3.199776    5.080130
     65          1           0       -3.912511   -6.384102    4.388239
     66          1           0       -5.058246   -5.776830    3.144356
     67          1           0       -5.190925   -5.233874    4.736389
     68          1           0       -2.411596   -3.564936    6.106068
     69          1           0       -3.007008   -1.910897    6.192567
     70          1           0       -0.939250   -3.167662    4.551956
     71          1           0       -0.840266   -1.608877    5.439134
     72          1           0       -1.695620   -1.752060    3.838328
     73          1           0       -5.529015    3.023441    4.479643
     74          1           0       -5.423949    1.384257    5.215238
     75          1           0       -6.958144    1.885310    4.390160
     76          1           0       -7.275557    2.858367   -0.622013
     77          1           0       -6.442200    6.540496   -2.711736
     78          1           0       -5.650535    5.272120   -3.827182
     79          1           0       -4.851254    6.061822   -2.454866
     80         12           0        4.264234    1.699487    0.113641
     81          6           0        5.294176   -1.541391   -1.033089
     82          6           0        3.930549    0.329678    3.219574
     83          6           0        2.927276    4.416959    1.059835
     84          6           0        3.584892    2.505722   -3.208139
     85          7           0        4.599509   -0.351829    0.869907
     86          6           0        5.049882   -1.485998    0.354961
     87          6           0        5.326172   -2.601295    1.398669
     88          6           0        4.336290   -2.096306    2.557973
     89          6           0        4.308834   -0.606205    2.224020
     90          6           0        2.924355   -2.641962    2.423716
     91          6           0        6.818950   -2.611178    1.881918
     92          6           0        7.233821   -3.860066    2.662881
     93          1           0        8.592721   -4.367278    2.493739
     94          7           0        3.998644    2.432920    1.938497
     95          6           0        3.909095    1.735818    3.090584
     96          6           0        3.694765    2.734377    4.149408
     97          6           0        3.500505    4.063351    3.508468
     98          6           0        3.446040    3.677424    2.112698
     99          6           0        3.767382    2.399121    5.610831
    100          6           0        3.370747    5.450369    4.061240
    101          8           0        2.969847    6.429021    3.337115
    102          6           0        3.637145    5.611033    5.498146
    103          7           0        3.185444    3.165057   -0.891683
    104          6           0        2.763760    4.271905   -0.255283
    105          6           0        2.255377    5.303531   -1.233886
    106          6           0        2.649222    4.752299   -2.682549
    107          6           0        3.265099    3.394945   -2.277983
    108          6           0        0.753139    5.581807   -1.186656
    109          6           0        3.478553    5.698016   -3.593870
    110          6           0        4.860709    5.893024   -3.013346
    111          7           0        4.573657    0.763129   -1.808742
    112          6           0        4.189776    1.262698   -3.072534
    113          6           0        4.509578    0.219537   -4.068504
    114          6           0        5.040333   -0.832036   -3.306277
    115          6           0        5.031915   -0.477733   -1.930091
    116          6           0        4.258349    0.299908   -5.467266
    117          6           0        5.595987   -2.165408   -3.351828
    118          8           0        5.925819   -2.938835   -4.250026
    119          6           0        5.668080   -2.733757   -1.869210
    120          6           0        7.033616   -3.331074   -1.666621
    121          8           0        8.047243   -2.610699   -1.682169
    122          8           0        6.900807   -4.611062   -1.273726
    123          6           0        8.228116   -5.243268   -1.049304
    124          1           0        3.575704   -0.048200    4.178834
    125          1           0        2.554481    5.410350    1.320014
    126          1           0        3.493786    2.718834   -4.275361
    127          1           0        5.048563   -3.599286    1.081307
    128          1           0        4.766323   -2.258459    3.542931
    129          1           0        2.789002   -3.186794    1.501227
    130          1           0        2.271600   -1.779351    2.452926
    131          1           0        2.667875   -3.243802    3.300274
    132          1           0        6.947712   -1.850176    2.662318
    133          1           0        7.487634   -2.462467    1.056456
    134          1           0        6.504568   -4.672629    2.558555
    135          1           0        7.220042   -3.622880    3.729453
    136          1           0        3.759731    1.314594    5.775598
    137          1           0        2.834735    2.749596    6.066014
    138          1           0        4.608734    2.881993    6.112449
    139          1           0        2.959218    4.976683    6.064248
    140          1           0        3.581399    6.684782    5.687426
    141          1           0        4.651508    5.253745    5.707998
    142          1           0        2.742044    6.258318   -1.076941
    143          1           0        1.759365    4.525644   -3.288040
    144          1           0        0.511909    6.646224   -1.005287
    145          1           0        0.314094    4.956537   -0.420612
    146          1           0        0.199761    5.281875   -2.074913
    147          1           0        3.016144    6.687346   -3.633490
    148          1           0        3.569150    5.343743   -4.615271
    149          1           0        4.707591    6.682308   -2.271282
    150          1           0        5.559697    6.207622   -3.785680
    151          1           0        5.192486    4.996332   -2.477153
    152          1           0        5.140484   -0.081085   -5.964431
    153          1           0        4.037883    1.320358   -5.773624
    154          1           0        3.383070   -0.350452   -5.545896
    155          1           0        4.876562   -3.476777   -1.764340
    156          1           0        8.263333   -6.142150   -1.672577
    157          1           0        8.310214   -5.385336    0.044686
    158          1           0        9.103461   -4.708774   -1.399346
 ---------------------------------------------------------------------

 SCF Done:  E(RCAM-B3LYP) =  -4069.81194778     A.U. after   19 cycles

 Excitation energies and oscillator strengths:

 Excited State   1:      Singlet-A      1.6509 eV  751.03 nm  f=0.0456  <S**2>=0.000
     309 -> 315        0.11007
     310 -> 316        0.12689
     311 -> 313        0.45096
     312 -> 314        0.51895
 This state for optimization and/or second-order correction.
 Total Energy, E(TD-HF/TD-DFT) =  -4069.75127981
 Copying the excited state density for this state as the 1-particle RhoCI density.

 Excited State   2:      Singlet-A      1.6996 eV  729.49 nm  f=0.6486  <S**2>=0.000
     309 -> 315        0.13626
     310 -> 316       -0.11802
     311 -> 313        0.51652
     312 -> 314       -0.44886

 Excited State   3:      Singlet-A      2.1811 eV  568.46 nm  f=0.0299  <S**2>=0.000
     309 -> 313        0.29482
     310 -> 314        0.57387
     311 -> 315       -0.12194
     312 -> 316       -0.23838

 Excited State   4:      Singlet-A      2.1968 eV  564.39 nm  f=0.1487  <S**2>=0.000
     309 -> 313        0.56859
     310 -> 314       -0.29078
     311 -> 315       -0.25075
     312 -> 316        0.12950

 Excited State   5:      Singlet-A      2.3486 eV  527.91 nm  f=0.0000  <S**2>=0.000
     312 -> 313        0.70709

 The electronic state is 1-A.
 Alpha  occ. eigenvalues --  -46.87909 -46.87434 -19.26396 -19.26222 -19.19139
 Alpha  occ. eigenvalues --  -19.19026 -19.18895 -19.18477 -19.18253 -19.17904
 Alpha  occ. eigenvalues --  -14.42560 -14.42273 -14.41579 -14.41110 -14.39509
 Alpha  occ. eigenvalues --  -14.39128 -14.38695 -14.38391 -10.39196 -10.38952
 Alpha  occ. eigenvalues --  -10.35521 -10.35154 -10.34476 -10.34082 -10.31797
 Alpha  occ. eigenvalues --  -10.31646 -10.31512 -10.31113 -10.31009 -10.30796
 Alpha  occ. eigenvalues --  -10.30675 -10.30624 -10.30342 -10.30180 -10.30175
 Alpha  occ. eigenvalues --  -10.30064 -10.29874 -10.29731 -10.29629 -10.29357
 Alpha  occ. eigenvalues --  -10.29210 -10.29205 -10.28852 -10.28660 -10.28509
 Alpha  occ. eigenvalues --  -10.28494 -10.28462 -10.28211 -10.28192 -10.27924
 Alpha  occ. eigenvalues --  -10.27887 -10.27831 -10.27803 -10.27714 -10.27676
 Alpha  occ. eigenvalues --  -10.27651 -10.27513 -10.27506 -10.27455 -10.27303
 Alpha  occ. eigenvalues --  -10.27266 -10.27266 -10.27258 -10.27194 -10.26961
 Alpha  occ. eigenvalues --  -10.26892 -10.26824 -10.26515 -10.26497 -10.26408
 Alpha  occ. eigenvalues --  -10.26316 -10.26200 -10.26152 -10.25944 -10.25895
 Alpha  occ. eigenvalues --  -10.25765 -10.25761 -10.25710 -10.25611 -10.25101
 Alpha  occ. eigenvalues --  -10.24927 -10.24915 -10.24704 -10.24683 -10.24514
 Alpha  occ. eigenvalues --  -10.24425  -3.16652  -3.16185  -1.91534  -1.91121
 Alpha  occ. eigenvalues --   -1.91067  -1.90962  -1.90655  -1.90493  -1.16746
 Alpha  occ. eigenvalues --   -1.16514  -1.08711  -1.08521  -1.07298  -1.06812
 Alpha  occ. eigenvalues --   -1.06757  -1.06723  -1.04688  -1.04277  -1.03885
 Alpha  occ. eigenvalues --   -1.03434  -1.03345  -1.02802  -1.02526  -1.01881
 Alpha  occ. eigenvalues --   -0.92078  -0.91788  -0.89705  -0.89292  -0.89247
 Alpha  occ. eigenvalues --   -0.88937  -0.88467  -0.87970  -0.87915  -0.87786
 Alpha  occ. eigenvalues --   -0.87628  -0.87453  -0.87343  -0.86919  -0.85092
 Alpha  occ. eigenvalues --   -0.84785  -0.84146  -0.83566  -0.83059  -0.82748
 Alpha  occ. eigenvalues --   -0.82691  -0.82436  -0.81701  -0.81425  -0.80704
 Alpha  occ. eigenvalues --   -0.80246  -0.78880  -0.78443  -0.77358  -0.77063
 Alpha  occ. eigenvalues --   -0.76933  -0.76665  -0.76031  -0.75642  -0.75058
 Alpha  occ. eigenvalues --   -0.74444  -0.72892  -0.72489  -0.71792  -0.71302
 Alpha  occ. eigenvalues --   -0.70150  -0.69467  -0.68979  -0.68618  -0.67748
 Alpha  occ. eigenvalues --   -0.67380  -0.67317  -0.67003  -0.65402  -0.65070
 Alpha  occ. eigenvalues --   -0.64980  -0.64759  -0.64559  -0.64444  -0.64434
 Alpha  occ. eigenvalues --   -0.63932  -0.62422  -0.62097  -0.60542  -0.60105
 Alpha  occ. eigenvalues --   -0.59906  -0.59589  -0.59112  -0.58760  -0.58623
 Alpha  occ. eigenvalues --   -0.58208  -0.57691  -0.57442  -0.57395  -0.56993
 Alpha  occ. eigenvalues --   -0.56407  -0.56091  -0.56020  -0.55714  -0.55616
 Alpha  occ. eigenvalues --   -0.55509  -0.55265  -0.54994  -0.54685  -0.54236
 Alpha  occ. eigenvalues --   -0.54000  -0.53701  -0.53418  -0.53309  -0.53050
 Alpha  occ. eigenvalues --   -0.53013  -0.52940  -0.52835  -0.52705  -0.52678
 Alpha  occ. eigenvalues --   -0.52461  -0.52157  -0.52017  -0.51756  -0.51707
 Alpha  occ. eigenvalues --   -0.51465  -0.51328  -0.51010  -0.50631  -0.50262
 Alpha  occ. eigenvalues --   -0.50212  -0.50001  -0.49756  -0.49606  -0.49538
 Alpha  occ. eigenvalues --   -0.49310  -0.49278  -0.49196  -0.49015  -0.48898
 Alpha  occ. eigenvalues --   -0.48711  -0.48603  -0.48527  -0.48371  -0.48136
 Alpha  occ. eigenvalues --   -0.48044  -0.47810  -0.47400  -0.47373  -0.46939
 Alpha  occ. eigenvalues --   -0.46868  -0.46660  -0.46483  -0.46481  -0.46333
 Alpha  occ. eigenvalues --   -0.46294  -0.46054  -0.45934  -0.45833  -0.45633
 Alpha  occ. eigenvalues --   -0.45369  -0.44826  -0.44698  -0.44617  -0.44317
 Alpha  occ. eigenvalues --   -0.44299  -0.44259  -0.44192  -0.44105  -0.43923
 Alpha  occ. eigenvalues --   -0.43838  -0.43747  -0.43615  -0.43510  -0.43372
 Alpha  occ. eigenvalues --   -0.43155  -0.43144  -0.42894  -0.42801  -0.42769
 Alpha  occ. eigenvalues --   -0.42671  -0.42282  -0.42186  -0.41819  -0.41736
 Alpha  occ. eigenvalues --   -0.41651  -0.41455  -0.41259  -0.41235  -0.41021
 Alpha  occ. eigenvalues --   -0.40907  -0.40739  -0.40732  -0.40501  -0.40474
 Alpha  occ. eigenvalues --   -0.40343  -0.40192  -0.40026  -0.39710  -0.39151
 Alpha  occ. eigenvalues --   -0.38647  -0.38033  -0.37866  -0.37481  -0.37452
 Alpha  occ. eigenvalues --   -0.37370  -0.37022  -0.36979  -0.36848  -0.36594
 Alpha  occ. eigenvalues --   -0.36334  -0.35951  -0.34400  -0.34031  -0.33888
 Alpha  occ. eigenvalues --   -0.33710  -0.33302  -0.32955  -0.31429  -0.31151
 Alpha  occ. eigenvalues --   -0.31031  -0.30742  -0.30115  -0.29812  -0.29541
 Alpha  occ. eigenvalues --   -0.29418  -0.29124  -0.29023  -0.24196  -0.23812
 Alpha  occ. eigenvalues --   -0.21240  -0.20893
 Alpha virt. eigenvalues --   -0.08877  -0.08580  -0.01869  -0.01441  -0.00143
 Alpha virt. eigenvalues --    0.00183   0.02096   0.02383   0.02820   0.03498
 Alpha virt. eigenvalues --    0.04600   0.04951   0.04986   0.05309   0.06050

 Mulliken charges:
               1
     1  Mg   0.838777
     2  C   -0.002914
     3  C   -0.093491
     4  C   -0.046461
     5  C   -0.064286
     6  N   -0.256680
     7  C   -0.052557
     8  C   -0.014014
     9  C   -0.087090
    10  C    0.046241
    11  C    0.104705
    12  C    0.053509
    13  C   -0.071620
    14  H    0.034924
    15  N   -0.433242
    16  C    0.168516
    17  C   -0.176326
    18  C   -0.003734
    19  C    0.148620
    20  C    0.109861
    21  C    0.011928
    22  O   -0.250647
    23  C    0.062209
    24  N   -0.340878
    25  C    0.041207
    26  C   -0.028209
    27  C   -0.023720
    28  C    0.074166
    29  C    0.076124
    30  C    0.035530
    31  C   -0.005381
    32  N   -0.310513
    33  C    0.080242
    34  C   -0.169638
    35  C    0.008711
    36  C    0.082984
    37  C    0.127274
    38  C    0.046379
    39  O   -0.187938
    40  C   -0.005559
    41  C    0.213349
    42  O   -0.257703
    43  O   -0.304579
    44  C    0.157686
    45  H   -0.017029
    46  H   -0.017314
    47  H   -0.042095
    48  H    0.001120
    49  H   -0.003675
    50  H    0.025559
    51  H    0.016538
    52  H    0.017052
    53  H    0.011465
    54  H    0.043254
    55  H    0.018346
    56  H    0.018413
    57  H    0.006071
    58  H    0.027154
    59  H    0.041446
    60  H    0.037634
    61  H    0.036050
    62  H    0.033442
    63  H    0.015155
    64  H    0.009856
    65  H    0.022936
    66  H    0.013266
    67  H    0.004935
    68  H    0.005773
    69  H    0.004889
    70  H    0.007651
    71  H    0.014692
    72  H    0.030985
    73  H    0.048079
    74  H    0.008340
    75  H    0.046143
    76  H    0.035407
    77  H    0.043482
    78  H    0.046263
    79  H    0.053091
    80  Mg   0.837575
    81  C   -0.017305
    82  C   -0.088249
    83  C   -0.043905
    84  C   -0.064857
    85  N   -0.254801
    86  C   -0.050048
    87  C   -0.015129
    88  C   -0.090945
    89  C    0.046130
    90  C    0.114006
    91  C    0.062594
    92  C   -0.077721
    93  H    0.034009
    94  N   -0.423841
    95  C    0.163775
    96  C   -0.174496
    97  C   -0.006679
    98  C    0.152281
    99  C    0.099384
   100  C    0.016036
   101  O   -0.251648
   102  C    0.061214
   103  N   -0.350140
   104  C    0.039117
   105  C   -0.020970
   106  C   -0.033641
   107  C    0.088947
   108  C    0.072043
   109  C    0.034707
   110  C   -0.007427
   111  N   -0.323804
   112  C    0.078146
   113  C   -0.164150
   114  C    0.001393
   115  C    0.096057
   116  C    0.131774
   117  C    0.041130
   118  O   -0.189872
   119  C    0.001343
   120  C    0.211038
   121  O   -0.251220
   122  O   -0.305536
   123  C    0.152278
   124  H   -0.020220
   125  H   -0.013672
   126  H   -0.041619
   127  H   -0.000170
   128  H   -0.005070
   129  H    0.024292
   130  H    0.014584
   131  H    0.016657
   132  H    0.013608
   133  H    0.037317
   134  H    0.021368
   135  H    0.019242
   136  H    0.008010
   137  H    0.026091
   138  H    0.039500
   139  H    0.038207
   140  H    0.036535
   141  H    0.033171
   142  H    0.013322
   143  H    0.012142
   144  H    0.024644
   145  H    0.020083
   146  H    0.008597
   147  H    0.006123
   148  H    0.002135
   149  H    0.011116
   150  H    0.016826
   151  H    0.029841
   152  H    0.045295
   153  H    0.008178
   154  H    0.044588
   155  H    0.034293
   156  H    0.043298
   157  H    0.049745
   158  H    0.053220
 Sum of Mulliken charges =  -0.00000

 Dipole moment (field-independent basis, Debye):
    X=             -3.2819    Y=             -3.2540    Z=              0.6692  Tot=              4.6698
 Quadrupole moment (field-independent basis, Debye-Ang):
   XX=           -528.2200   YY=           -536.0179   ZZ=           -456.0980
   XY=             18.4855   XZ=             52.7930   YZ=            -29.4980

 Normal termination of Gaussian 16 at Fri Sep  3 20:56:45 2021.
