 Gaussian 16, Revision A.03,
 Gaussian 16:  ES64L-G16RevA.03 25-Dec-2016

 -----------------------------------
 #p cam-b3lyp/Def2SVP td=(nstates=5)
 -----------------------------------

 --------------------------------
 TDDFT excited states in gaussian
 --------------------------------
 Symbolic Z-matrix:
 Charge =  0 Multiplicity = 1

                         Standard orientation:
 ---------------------------------------------------------------------
 Center     Atomic      Atomic             Coordinates (Angstroms)
 Number     Number       Type             X           Y           Z
 ---------------------------------------------------------------------
      1         12           0        5.552223    0.170563    0.148620
      2          6           0        5.455191   -3.171499   -1.129431
      3          6           0        6.444590    1.184157   -2.984968
      4          6           0        6.085924    3.055740    1.351759
      5          6           0        5.771329   -1.213530    3.339535
      6          7           0        5.874819   -0.946181   -1.735381
      7          6           0        5.746839   -2.216430   -2.105868
      8          6           0        5.877347   -2.427530   -3.643976
      9          6           0        6.730749   -1.129983   -4.004632
     10          6           0        6.298770   -0.229472   -2.860780
     11          6           0        8.237787   -1.347896   -3.916007
     12          6           0        4.487685   -2.418013   -4.365420
     13          6           0        4.495637   -2.938434   -5.805716
     14          1           0        3.344584   -3.688049   -6.285822
     15          7           0        5.695580    1.925670   -0.746869
     16          6           0        6.056517    2.151580   -2.032939
     17          6           0        6.011801    3.618115   -2.217211
     18          6           0        5.779906    4.237522   -0.882800
     19          6           0        5.871854    3.084329   -0.024273
     20          6           0        6.131603    4.283480   -3.553882
     21          6           0        5.527553    5.646868   -0.448988
     22          8           0        5.583851    6.001231    0.778136
     23          6           0        5.296857    6.632696   -1.520419
     24          7           0        6.102880    0.837206    2.048620
     25          6           0        6.209748    2.143040    2.317622
     26          6           0        6.333780    2.388392    3.792193
     27          6           0        6.044278    0.986376    4.499505
     28          6           0        5.875179    0.113004    3.231870
     29          6           0        7.688423    2.930378    4.268852
     30          6           0        4.924893    0.956826    5.570262
     31          6           0        3.582434    1.195180    4.915978
     32          7           0        5.428667   -1.820238    1.004476
     33          6           0        5.571045   -2.167406    2.355726
     34          6           0        5.517240   -3.638938    2.431659
     35          6           0        5.362917   -4.048958    1.108816
     36          6           0        5.349206   -2.907232    0.257602
     37          6           0        5.665525   -4.418445    3.612681
     38          6           0        5.231141   -5.187249    0.213949
     39          8           0        5.086143   -6.400583    0.369798
     40          6           0        5.407936   -4.671487   -1.282233
     41          6           0        4.291328   -5.260064   -2.100813
     42          8           0        3.106458   -4.921545   -1.903700
     43          8           0        4.809169   -5.940967   -3.134619
     44          6           0        3.753595   -6.526020   -4.003890
     45          1           0        6.954758    1.587121   -3.862060
     46          1           0        6.164151    4.038567    1.821193
     47          1           0        5.748186   -1.712150    4.310254
     48          1           0        6.423523   -3.325038   -3.934828
     49          1           0        6.431891   -0.698908   -4.959923
     50          1           0        8.474994   -2.324275   -3.493706
     51          1           0        8.609284   -0.552892   -3.269129
     52          1           0        8.709719   -1.189955   -4.886116
     53          1           0        4.181647   -1.386954   -4.542392
     54          1           0        3.748368   -2.972061   -3.785965
     55          1           0        5.419756   -3.471102   -6.031943
     56          1           0        4.505530   -2.080959   -6.478649
     57          1           0        6.460043    3.583878   -4.321495
     58          1           0        6.944576    5.005353   -3.478494
     59          1           0        5.212439    4.793747   -3.842147
     60          1           0        6.163816    6.655739   -2.181024
     61          1           0        5.045890    7.567347   -1.020124
     62          1           0        4.455682    6.301331   -2.129984
     63          1           0        5.598803    3.117642    4.130467
     64          1           0        6.921376    0.602580    5.021114
     65          1           0        7.616264    3.872711    4.812456
     66          1           0        8.336785    3.029506    3.398742
     67          1           0        8.262685    2.243380    4.889878
     68          1           0        5.073892    1.754982    6.296687
     69          1           0        4.877336    0.015147    6.117282
     70          1           0        3.532241    2.281563    4.852069
     71          1           0        2.779561    0.803370    5.541351
     72          1           0        3.561647    0.807534    3.897261
     73          1           0        4.900393   -5.193207    3.564864
     74          1           0        5.554279   -3.806548    4.507560
     75          1           0        6.682428   -4.788799    3.483829
     76          1           0        6.386240   -5.013744   -1.618244
     77          1           0        3.946144   -7.597141   -4.065996
     78          1           0        3.765309   -5.955146   -4.932529
     79          1           0        2.740272   -6.522123   -3.600776
     80         12           0       -5.002857    1.035184    0.380806
     81          6           0       -7.402423   -1.628255    0.215699
     82          6           0       -6.619573    2.455270   -2.265746
     83          6           0       -2.650117    3.157158    0.209680
     84          6           0       -2.952453   -1.111682    2.206301
     85          7           0       -6.770925    0.400373   -0.786773
     86          6           0       -7.638134   -0.598471   -0.718880
     87          6           0       -8.868354   -0.446792   -1.653279
     88          6           0       -8.219606    0.532972   -2.747836
     89          6           0       -7.157435    1.202119   -1.877933
     90          6           0       -7.517739   -0.205220   -3.875581
     91          6           0      -10.088078    0.226105   -0.931146
     92          6           0      -11.416506    0.125769   -1.684114
     93          1           0      -12.645024   -0.030863   -0.910365
     94          7           0       -4.937254    2.811612   -0.501574
     95          6           0       -5.679928    3.228026   -1.548632
     96          6           0       -5.239246    4.602436   -1.833155
     97          6           0       -4.061788    4.904693   -0.974691
     98          6           0       -3.819269    3.600551   -0.391184
     99          6           0       -5.968597    5.511368   -2.779360
    100          6           0       -3.275312    6.156880   -0.730402
    101          8           0       -2.144702    6.134974   -0.127029
    102          6           0       -3.822817    7.396606   -1.300333
    103          7           0       -2.995610    0.961185    0.917268
    104          6           0       -2.204746    2.040668    0.786226
    105          6           0       -0.883235    1.837123    1.488071
    106          6           0       -1.045668    0.484771    2.326127
    107          6           0       -2.464481    0.075461    1.873519
    108          6           0        0.342156    1.729228    0.580799
    109          6           0       -0.748645    0.560473    3.848855
    110          6           0       -1.792306    1.410849    4.536619
    111          7           0       -5.195827   -0.931760    1.253697
    112          6           0       -4.205651   -1.655036    1.954047
    113          6           0       -4.769281   -2.987565    2.252596
    114          6           0       -6.049996   -2.954898    1.680594
    115          6           0       -6.261497   -1.698451    1.051236
    116          6           0       -4.093329   -4.045411    2.923545
    117          6           0       -7.267087   -3.701446    1.456889
    118          8           0       -7.699676   -4.790360    1.832235
    119          6           0       -8.149254   -2.921606    0.389172
    120          6           0       -9.557928   -2.852545    0.912021
    121          8           0       -9.819593   -2.202607    1.939499
    122          8           0      -10.393275   -3.380329   -0.001233
    123          6           0      -11.803740   -3.324554    0.467078
    124          1           0       -6.911891    2.868899   -3.231327
    125          1           0       -1.844914    3.892646    0.274270
    126          1           0       -2.412733   -1.803194    2.856846
    127          1           0       -9.196766   -1.365343   -2.124638
    128          1           0       -8.941444    1.265562   -3.099425
    129          1           0       -7.468962   -1.268305   -3.692247
    130          1           0       -6.522207    0.215746   -3.927951
    131          1           0       -7.994052    0.027474   -4.832295
    132          1           0       -9.950974    1.315113   -0.936315
    133          1           0      -10.205115   -0.162992    0.061594
    134          1           0      -11.376164   -0.611980   -2.494696
    135          1           0      -11.598778    1.074747   -2.194247
    136          1           0       -6.697032    4.959492   -3.386178
    137          1           0       -5.232370    5.876077   -3.503807
    138          1           0       -6.422570    6.367314   -2.275446
    139          1           0       -3.921317    7.286125   -2.377618
    140          1           0       -3.169380    8.195434   -0.944277
    141          1           0       -4.833935    7.546423   -0.905579
    142          1           0       -0.678981    2.651891    2.171842
    143          1           0       -0.363157   -0.300374    1.968972
    144          1           0        1.123857    2.477183    0.812283
    145          1           0        0.015968    1.825526   -0.446274
    146          1           0        0.830363    0.756166    0.577874
    147          1           0        0.213443    1.048450    4.023243
    148          1           0       -0.708852   -0.411082    4.329986
    149          1           0       -1.425208    2.429118    4.377088
    150          1           0       -1.843650    1.171367    5.596831
    151          1           0       -2.762323    1.327440    4.032864
    152          1           0       -4.799482   -4.471403    3.623823
    153          1           0       -3.198048   -3.688243    3.428199
    154          1           0       -3.855738   -4.693685    2.075866
    155          1           0       -8.087941   -3.471466   -0.550768
    156          1           0      -12.194012   -4.346235    0.427920
    157          1           0      -12.300995   -2.570561   -0.171664
    158          1           0      -11.977091   -3.071627    1.506506
 ---------------------------------------------------------------------

 SCF Done:  E(RCAM-B3LYP) =  -4069.81217773     A.U. after   19 cycles

 Excitation energies and oscillator strengths:

 Excited State   1:      Singlet-A      1.6552 eV  749.06 nm  f=0.0037  <S**2>=0.000
     309 -> 315       -0.11218
     310 -> 316        0.12593
     311 -> 313       -0.45534
     312 -> 314        0.51470
 This state for optimization and/or second-order correction.
 Total Energy, E(TD-HF/TD-DFT) =  -4069.75135074
 Copying the excited state density for this state as the 1-particle RhoCI density.

 Excited State   2:      Singlet-A      1.6979 eV  730.23 nm  f=0.7117  <S**2>=0.000
     309 -> 315        0.13510
     310 -> 316        0.11844
     311 -> 313        0.51281
     312 -> 314        0.45362

 Excited State   3:      Singlet-A      2.1838 eV  567.74 nm  f=0.0873  <S**2>=0.000
     309 -> 313       -0.14768
     310 -> 314        0.62604
     312 -> 316       -0.26408

 Excited State   4:      Singlet-A      2.1958 eV  564.64 nm  f=0.1102  <S**2>=0.000
     309 -> 313        0.62308
     310 -> 314        0.14540
     311 -> 315       -0.27269

 Excited State   5:      Singlet-A      2.4726 eV  501.44 nm  f=0.0000  <S**2>=0.000
     312 -> 313        0.70656

 The electronic state is 1-A.
 Alpha  occ. eigenvalues --  -46.87891 -46.87482 -19.26332 -19.26219 -19.19080
 Alpha  occ. eigenvalues --  -19.19024 -19.18781 -19.18577 -19.18223 -19.17878
 Alpha  occ. eigenvalues --  -14.42523 -14.42324 -14.41536 -14.41175 -14.39469
 Alpha  occ. eigenvalues --  -14.39180 -14.38674 -14.38415 -10.39139 -10.38950
 Alpha  occ. eigenvalues --  -10.35409 -10.35259 -10.34446 -10.34055 -10.31713
 Alpha  occ. eigenvalues --  -10.31642 -10.31485 -10.31131 -10.30963 -10.30873
 Alpha  occ. eigenvalues --  -10.30649 -10.30583 -10.30280 -10.30210 -10.30173
 Alpha  occ. eigenvalues --  -10.30014 -10.29953 -10.29698 -10.29688 -10.29313
 Alpha  occ. eigenvalues --  -10.29261 -10.29219 -10.28803 -10.28585 -10.28584
 Alpha  occ. eigenvalues --  -10.28554 -10.28427 -10.28240 -10.28175 -10.28001
 Alpha  occ. eigenvalues --  -10.27850 -10.27823 -10.27795 -10.27630 -10.27621
 Alpha  occ. eigenvalues --  -10.27549 -10.27499 -10.27486 -10.27471 -10.27353
 Alpha  occ. eigenvalues --  -10.27311 -10.27297 -10.27288 -10.27215 -10.27190
 Alpha  occ. eigenvalues --  -10.26888 -10.26759 -10.26574 -10.26379 -10.26326
 Alpha  occ. eigenvalues --  -10.26293 -10.26285 -10.26107 -10.25927 -10.25919
 Alpha  occ. eigenvalues --  -10.25895 -10.25726 -10.25565 -10.25502 -10.25270
 Alpha  occ. eigenvalues --  -10.24996 -10.24895 -10.24863 -10.24689 -10.24558
 Alpha  occ. eigenvalues --  -10.24514  -3.16627  -3.16232  -1.91510  -1.91114
 Alpha  occ. eigenvalues --   -1.91095  -1.90937  -1.90703  -1.90540  -1.16683
 Alpha  occ. eigenvalues --   -1.16511  -1.08682  -1.08485  -1.07176  -1.06833
 Alpha  occ. eigenvalues --   -1.06807  -1.06701  -1.04651  -1.04326  -1.03838
 Alpha  occ. eigenvalues --   -1.03486  -1.03308  -1.02854  -1.02488  -1.01931
 Alpha  occ. eigenvalues --   -0.92039  -0.91814  -0.89635  -0.89301  -0.89249
 Alpha  occ. eigenvalues --   -0.89007  -0.88393  -0.88034  -0.87939  -0.87742
 Alpha  occ. eigenvalues --   -0.87584  -0.87510  -0.87289  -0.86975  -0.85038
 Alpha  occ. eigenvalues --   -0.84851  -0.84063  -0.83698  -0.82980  -0.82797
 Alpha  occ. eigenvalues --   -0.82683  -0.82509  -0.81646  -0.81436  -0.80649
 Alpha  occ. eigenvalues --   -0.80283  -0.78837  -0.78468  -0.77301  -0.77006
 Alpha  occ. eigenvalues --   -0.76981  -0.76743  -0.75984  -0.75685  -0.74987
 Alpha  occ. eigenvalues --   -0.74642  -0.72849  -0.72512  -0.71740  -0.71417
 Alpha  occ. eigenvalues --   -0.70068  -0.69569  -0.68925  -0.68677  -0.67694
 Alpha  occ. eigenvalues --   -0.67435  -0.67253  -0.67065  -0.65353  -0.65121
 Alpha  occ. eigenvalues --   -0.64929  -0.64697  -0.64594  -0.64493  -0.64372
 Alpha  occ. eigenvalues --   -0.64016  -0.62363  -0.62121  -0.60484  -0.60180
 Alpha  occ. eigenvalues --   -0.59864  -0.59640  -0.59061  -0.58816  -0.58573
 Alpha  occ. eigenvalues --   -0.58254  -0.57646  -0.57388  -0.57378  -0.57064
 Alpha  occ. eigenvalues --   -0.56362  -0.56030  -0.56029  -0.55743  -0.55549
 Alpha  occ. eigenvalues --   -0.55436  -0.55302  -0.55068  -0.54616  -0.54321
 Alpha  occ. eigenvalues --   -0.53952  -0.53770  -0.53360  -0.53244  -0.53061
 Alpha  occ. eigenvalues --   -0.52989  -0.52986  -0.52766  -0.52749  -0.52594
 Alpha  occ. eigenvalues --   -0.52544  -0.52209  -0.51988  -0.51650  -0.51646
 Alpha  occ. eigenvalues --   -0.51519  -0.51276  -0.51027  -0.50562  -0.50351
 Alpha  occ. eigenvalues --   -0.50137  -0.49937  -0.49836  -0.49708  -0.49542
 Alpha  occ. eigenvalues --   -0.49345  -0.49261  -0.49148  -0.49048  -0.48942
 Alpha  occ. eigenvalues --   -0.48655  -0.48536  -0.48446  -0.48399  -0.48203
 Alpha  occ. eigenvalues --   -0.48195  -0.47751  -0.47442  -0.47344  -0.46962
 Alpha  occ. eigenvalues --   -0.46887  -0.46608  -0.46532  -0.46435  -0.46409
 Alpha  occ. eigenvalues --   -0.46241  -0.46096  -0.45909  -0.45888  -0.45641
 Alpha  occ. eigenvalues --   -0.45296  -0.45051  -0.44649  -0.44550  -0.44365
 Alpha  occ. eigenvalues --   -0.44308  -0.44235  -0.44142  -0.44043  -0.43977
 Alpha  occ. eigenvalues --   -0.43915  -0.43791  -0.43561  -0.43454  -0.43398
 Alpha  occ. eigenvalues --   -0.43229  -0.43101  -0.42824  -0.42780  -0.42739
 Alpha  occ. eigenvalues --   -0.42721  -0.42377  -0.42122  -0.41791  -0.41772
 Alpha  occ. eigenvalues --   -0.41596  -0.41500  -0.41304  -0.41205  -0.40958
 Alpha  occ. eigenvalues --   -0.40829  -0.40807  -0.40670  -0.40591  -0.40545
 Alpha  occ. eigenvalues --   -0.40312  -0.40275  -0.40103  -0.39614  -0.39229
 Alpha  occ. eigenvalues --   -0.38570  -0.38174  -0.37808  -0.37517  -0.37416
 Alpha  occ. eigenvalues --   -0.37324  -0.37083  -0.37041  -0.36784  -0.36624
 Alpha  occ. eigenvalues --   -0.36271  -0.36045  -0.34363  -0.34076  -0.33833
 Alpha  occ. eigenvalues --   -0.33717  -0.33259  -0.32995  -0.31321  -0.31134
 Alpha  occ. eigenvalues --   -0.31097  -0.30800  -0.30085  -0.29782  -0.29496
 Alpha  occ. eigenvalues --   -0.29386  -0.29162  -0.29024  -0.24158  -0.23854
 Alpha  occ. eigenvalues --   -0.21200  -0.20939
 Alpha virt. eigenvalues --   -0.08833  -0.08616  -0.01819  -0.01518  -0.00078
 Alpha virt. eigenvalues --    0.00121   0.02136   0.02390   0.02595   0.03393
 Alpha virt. eigenvalues --    0.04646   0.04891   0.05039   0.05309   0.06080

 Mulliken charges:
               1
     1  Mg   0.833071
     2  C   -0.002653
     3  C   -0.093641
     4  C   -0.045954
     5  C   -0.064320
     6  N   -0.256459
     7  C   -0.052984
     8  C   -0.013887
     9  C   -0.087082
    10  C    0.046467
    11  C    0.104759
    12  C    0.053346
    13  C   -0.071865
    14  H    0.036212
    15  N   -0.433479
    16  C    0.168942
    17  C   -0.176623
    18  C   -0.003018
    19  C    0.148364
    20  C    0.110200
    21  C    0.013868
    22  O   -0.248880
    23  C    0.061892
    24  N   -0.340437
    25  C    0.040912
    26  C   -0.028433
    27  C   -0.024768
    28  C    0.073712
    29  C    0.076049
    30  C    0.040932
    31  C   -0.015220
    32  N   -0.310200
    33  C    0.079094
    34  C   -0.170661
    35  C    0.008349
    36  C    0.081777
    37  C    0.127472
    38  C    0.045815
    39  O   -0.188230
    40  C   -0.005343
    41  C    0.213062
    42  O   -0.257632
    43  O   -0.304701
    44  C    0.157548
    45  H   -0.017278
    46  H   -0.016398
    47  H   -0.042007
    48  H    0.001076
    49  H   -0.003845
    50  H    0.025617
    51  H    0.016541
    52  H    0.016865
    53  H    0.011306
    54  H    0.043929
    55  H    0.017997
    56  H    0.017995
    57  H    0.005679
    58  H    0.027097
    59  H    0.040767
    60  H    0.036442
    61  H    0.037182
    62  H    0.033573
    63  H    0.016653
    64  H    0.010036
    65  H    0.023777
    66  H    0.012974
    67  H    0.004936
    68  H    0.006937
    69  H    0.004322
    70  H    0.010126
    71  H    0.020700
    72  H    0.029184
    73  H    0.047210
    74  H    0.008665
    75  H    0.046369
    76  H    0.035414
    77  H    0.043272
    78  H    0.046411
    79  H    0.053838
    80  Mg   0.837997
    81  C   -0.017088
    82  C   -0.088236
    83  C   -0.046010
    84  C   -0.062557
    85  N   -0.254579
    86  C   -0.049619
    87  C   -0.015096
    88  C   -0.090489
    89  C    0.045735
    90  C    0.114527
    91  C    0.062599
    92  C   -0.077652
    93  H    0.034531
    94  N   -0.423289
    95  C    0.162694
    96  C   -0.175420
    97  C   -0.008335
    98  C    0.151908
    99  C    0.099740
   100  C    0.014805
   101  O   -0.253172
   102  C    0.061269
   103  N   -0.349901
   104  C    0.037359
   105  C   -0.020552
   106  C   -0.036705
   107  C    0.089052
   108  C    0.068189
   109  C    0.030642
   110  C   -0.007671
   111  N   -0.324327
   112  C    0.078263
   113  C   -0.162064
   114  C    0.002272
   115  C    0.096501
   116  C    0.131789
   117  C    0.042733
   118  O   -0.187730
   119  C    0.000804
   120  C    0.211191
   121  O   -0.251203
   122  O   -0.305615
   123  C    0.152140
   124  H   -0.020506
   125  H   -0.015632
   126  H   -0.038476
   127  H   -0.000785
   128  H   -0.004814
   129  H    0.022634
   130  H    0.014390
   131  H    0.015549
   132  H    0.013832
   133  H    0.037649
   134  H    0.020653
   135  H    0.019322
   136  H    0.008356
   137  H    0.024967
   138  H    0.039286
   139  H    0.037366
   140  H    0.035995
   141  H    0.033920
   142  H    0.014825
   143  H    0.016631
   144  H    0.030070
   145  H    0.011271
   146  H    0.008036
   147  H    0.010338
   148  H    0.003831
   149  H    0.010756
   150  H    0.016680
   151  H    0.029910
   152  H    0.045343
   153  H    0.009286
   154  H    0.049571
   155  H    0.035127
   156  H    0.043767
   157  H    0.049253
   158  H    0.053433
 Sum of Mulliken charges =  -0.00000

 Dipole moment (field-independent basis, Debye):
    X=              1.9901    Y=              4.8846    Z=             -6.8963  Tot=              8.6821
 Quadrupole moment (field-independent basis, Debye-Ang):
   XX=           -471.8528   YY=           -556.7958   ZZ=           -460.5041
   XY=            -23.9451   XZ=             24.9577   YZ=             -5.7267

 Normal termination of Gaussian 16 at Sat Sep 11 00:51:35 2021.
