 Gaussian 16, Revision A.03,
 Gaussian 16:  ES64L-G16RevA.03 25-Dec-2016

 -----------------------------------
 #p cam-b3lyp/Def2SVP td=(nstates=5)
 -----------------------------------

 --------------------------------
 TDDFT excited states in gaussian
 --------------------------------
 Symbolic Z-matrix:
 Charge =  0 Multiplicity = 1

                         Standard orientation:
 ---------------------------------------------------------------------
 Center     Atomic      Atomic             Coordinates (Angstroms)
 Number     Number       Type             X           Y           Z
 ---------------------------------------------------------------------
      1         12           0      -15.772819   -0.779763    0.102276
      2          6           0      -15.975473    2.787812    0.310974
      3          6           0      -16.653198   -0.488888   -3.181532
      4          6           0      -16.043893   -3.937958    0.007720
      5          6           0      -16.028542   -0.850043    3.577233
      6          7           0      -16.228208    0.980545   -1.160493
      7          6           0      -16.211771    2.296785   -0.974989
      8          6           0      -16.394643    3.108667   -2.292099
      9          6           0      -17.148755    2.007301   -3.164056
     10          6           0      -16.619038    0.756109   -2.485940
     11          6           0      -18.665988    2.043609   -3.011775
     12          6           0      -15.025910    3.511481   -2.937113
     13          6           0      -15.109336    4.574337   -4.036535
     14          1           0      -14.033991    5.547741   -4.152577
     15          7           0      -15.794929   -2.018251   -1.436720
     16          6           0      -16.166298   -1.725802   -2.706304
     17          6           0      -16.007726   -2.978364   -3.476126
     18          6           0      -15.695627   -4.069068   -2.511215
     19          6           0      -15.860296   -3.381615   -1.255958
     20          6           0      -16.104539   -3.044219   -4.969458
     21          6           0      -15.320380   -5.506007   -2.691571
     22          8           0      -15.319334   -6.335938   -1.719055
     23          6           0      -15.035908   -5.942588   -4.070525
     24          7           0      -16.223537   -2.210431    1.554060
     25          6           0      -16.218427   -3.515600    1.261672
     26          6           0      -16.287911   -4.353675    2.503744
     27          6           0      -16.096069   -3.346510    3.727904
     28          6           0      -16.027522   -2.019232    2.932980
     29          6           0      -17.582958   -5.154019    2.699490
     30          6           0      -14.958100   -3.665930    4.729611
     31          6           0      -13.616380   -3.502415    4.051269
     32          7           0      -15.790376    0.687393    1.701710
     33          6           0      -15.928809    0.436500    3.074504
     34          6           0      -15.992133    1.746234    3.748785
     35          6           0      -15.902217    2.674127    2.713037
     36          6           0      -15.816263    1.987587    1.468221
     37          6           0      -16.175291    1.957327    5.143893
     38          6           0      -15.883556    4.085969    2.366322
     39          8           0      -15.833321    5.136005    3.008500
     40          6           0      -16.052942    4.216683    0.788333
     41          6           0      -15.006807    5.179831    0.297155
     42          8           0      -13.794225    4.889995    0.351986
     43          8           0      -15.601806    6.179299   -0.371862
     44          6           0      -14.617385    7.154971   -0.911429
     45          1           0      -17.149471   -0.537420   -4.152767
     46          1           0      -16.031635   -5.029628    0.031073
     47          1           0      -16.023112   -0.793522    4.667292
     48          1           0      -17.018060    3.997698   -2.195154
     49          1           0      -16.838411    2.032553   -4.208456
     50          1           0      -18.971293    2.737373   -2.228576
     51          1           0      -18.956987    1.025349   -2.753012
     52          1           0      -19.146090    2.258939   -3.966716
     53          1           0      -14.641898    2.673130   -3.518287
     54          1           0      -14.320412    3.838372   -2.172429
     55          1           0      -16.078426    5.074109   -4.035046
     56          1           0      -15.065684    4.070846   -5.002346
     57          1           0      -16.506119   -2.121236   -5.385848
     58          1           0      -16.854654   -3.798297   -5.206950
     59          1           0      -15.154167   -3.312987   -5.430856
     60          1           0      -15.913322   -5.764547   -4.692615
     61          1           0      -14.698787   -6.975807   -3.995312
     62          1           0      -14.238620   -5.321671   -4.480088
     63          1           0      -15.488829   -5.093663    2.521400
     64          1           0      -16.988891   -3.284835    4.350592
     65          1           0      -17.422385   -6.226843    2.808893
     66          1           0      -18.241284   -4.940962    1.857763
     67          1           0      -18.196158   -4.832601    3.540972
     68          1           0      -15.025281   -4.701196    5.062261
     69          1           0      -14.973944   -3.031180    5.615666
     70          1           0      -13.480215   -4.458656    3.547388
     71          1           0      -12.833395   -3.336421    4.791938
     72          1           0      -13.650646   -2.730707    3.281998
     73          1           0      -15.476472    2.744151    5.427672
     74          1           0      -15.994250    1.043735    5.709735
     75          1           0      -17.221478    2.262029    5.166379
     76          1           0      -17.063221    4.584062    0.610878
     77          1           0      -14.897105    8.137218   -0.530403
     78          1           0      -14.604618    7.016517   -1.992665
     79          1           0      -13.597944    7.070264   -0.533402
     80         12           0       15.984494   -0.772373    0.045087
     81          6           0       15.615405    2.790560    0.264939
     82          6           0       14.954169   -0.529151   -3.197418
     83          6           0       15.865669   -3.941621   -0.050807
     84          6           0       15.870839   -0.859633    3.527211
     85          7           0       15.390714    0.961897   -1.192642
     86          6           0       15.348677    2.274483   -1.020344
     87          6           0       15.079818    3.085053   -2.316589
     88          6           0       14.337114    1.941875   -3.165367
     89          6           0       14.953690    0.709271   -2.507190
     90          6           0       12.835035    1.903654   -2.938151
     91          6           0       16.404948    3.550470   -3.016194
     92          6           0       16.218643    4.603296   -4.111004
     93          1           0       17.246029    5.628336   -4.272974
     94          7           0       15.961289   -2.010320   -1.505887
     95          6           0       15.530863   -1.740360   -2.756132
     96          6           0       15.703125   -2.986495   -3.518784
     97          6           0       16.116081   -4.060657   -2.575195
     98          6           0       15.973748   -3.368954   -1.309748
     99          6           0       15.556203   -3.054041   -5.011197
    100          6           0       16.552922   -5.479986   -2.777362
    101          8           0       16.635737   -6.304754   -1.799752
    102          6           0       16.790846   -5.901279   -4.165663
    103          7           0       15.670945   -2.216471    1.507486
    104          6           0       15.721529   -3.526260    1.207771
    105          6           0       15.741699   -4.371735    2.458828
    106          6           0       15.939017   -3.344437    3.668496
    107          6           0       15.908003   -2.016532    2.880385
    108          6           0       14.494379   -5.218987    2.709332
    109          6           0       17.132406   -3.607164    4.627385
    110          6           0       18.438390   -3.391493    3.897137
    111          7           0       15.967140    0.687428    1.637797
    112          6           0       15.891087    0.435317    3.025150
    113          6           0       15.792617    1.745283    3.700945
    114          6           0       15.795045    2.675000    2.650174
    115          6           0       15.868080    1.991683    1.406296
    116          6           0       15.667650    1.950232    5.103976
    117          6           0       15.741718    4.078602    2.309938
    118          8           0       15.760639    5.129001    2.950284
    119          6           0       15.495508    4.210275    0.745191
    120          6           0       16.472769    5.217746    0.204376
    121          8           0       17.694466    4.985947    0.222308
    122          8           0       15.796134    6.186775   -0.438685
    123          6           0       16.723032    7.204095   -1.002351
    124          1           0       14.426689   -0.592625   -4.149579
    125          1           0       15.931552   -5.031700   -0.021442
    126          1           0       15.930320   -0.797348    4.615912
    127          1           0       14.425272    3.939163   -2.190721
    128          1           0       14.610281    1.989820   -4.216284
    129          1           0       12.529373    2.576760   -2.150990
    130          1           0       12.603697    0.880534   -2.672128
    131          1           0       12.306857    2.097981   -3.876023
    132          1           0       16.802322    2.722558   -3.617351
    133          1           0       17.114188    3.902993   -2.292786
    134          1           0       15.221957    5.059923   -4.078428
    135          1           0       16.252981    4.103780   -5.082248
    136          1           0       15.086258   -2.146828   -5.410599
    137          1           0       14.835324   -3.850377   -5.225810
    138          1           0       16.496606   -3.282867   -5.517100
    139          1           0       15.882334   -5.760716   -4.746457
    140          1           0       17.181319   -6.918644   -4.099492
    141          1           0       17.550094   -5.244826   -4.605238
    142          1           0       16.575549   -5.062831    2.445133
    143          1           0       15.067233   -3.332305    4.339074
    144          1           0       14.713197   -6.298835    2.809909
    145          1           0       13.796344   -5.046129    1.900998
    146          1           0       13.910815   -4.934627    3.583278
    147          1           0       17.130151   -4.648630    4.958290
    148          1           0       17.116355   -2.986544    5.517083
    149          1           0       18.594002   -4.344688    3.383048
    150          1           0       19.242056   -3.187240    4.601716
    151          1           0       18.336562   -2.615693    3.129399
    152          1           0       16.332012    2.764827    5.360033
    153          1           0       15.910932    1.047727    5.660833
    154          1           0       14.605365    2.199936    5.170753
    155          1           0       14.461218    4.525294    0.601672
    156          1           0       16.408720    8.175654   -0.608694
    157          1           0       16.683860    7.068592   -2.099560
    158          1           0       17.757955    7.171081   -0.682502
 ---------------------------------------------------------------------

 SCF Done:  E(RCAM-B3LYP) =  -4069.81176976     A.U. after   19 cycles

 Excitation energies and oscillator strengths:

 Excited State   1:      Singlet-A      1.6753 eV  740.07 nm  f=0.2109  <S**2>=0.000
     310 -> 316        0.16852
     311 -> 314       -0.16366
     312 -> 313        0.66625
     310 <- 316        0.10159
 This state for optimization and/or second-order correction.
 Total Energy, E(TD-HF/TD-DFT) =  -4069.75020349
 Copying the excited state density for this state as the 1-particle RhoCI density.

 Excited State   2:      Singlet-A      1.6801 eV  737.95 nm  f=0.5665  <S**2>=0.000
     309 -> 315        0.17054
     311 -> 314        0.66588
     312 -> 313        0.16361
     309 <- 315        0.10210

 Excited State   3:      Singlet-A      2.1861 eV  567.16 nm  f=0.0951  <S**2>=0.000
     310 -> 313        0.64210
     312 -> 316       -0.27294

 Excited State   4:      Singlet-A      2.1925 eV  565.49 nm  f=0.1050  <S**2>=0.000
     309 -> 314        0.64032
     311 -> 315       -0.27814

 Excited State   5:      Singlet-A      3.0661 eV  404.38 nm  f=0.0000  <S**2>=0.000
     311 -> 313        0.70711

 The electronic state is 1-A.
 Alpha  occ. eigenvalues --  -46.87797 -46.87660 -19.26347 -19.26284 -19.19159
 Alpha  occ. eigenvalues --  -19.19020 -19.18817 -19.18715 -19.18169 -19.18050
 Alpha  occ. eigenvalues --  -14.42497 -14.42451 -14.41450 -14.41359 -14.39404
 Alpha  occ. eigenvalues --  -14.39352 -14.38599 -14.38587 -10.39089 -10.39079
 Alpha  occ. eigenvalues --  -10.35450 -10.35393 -10.34389 -10.34227 -10.31754
 Alpha  occ. eigenvalues --  -10.31679 -10.31405 -10.31308 -10.31023 -10.30910
 Alpha  occ. eigenvalues --  -10.30570 -10.30508 -10.30397 -10.30360 -10.30208
 Alpha  occ. eigenvalues --  -10.30141 -10.29921 -10.29894 -10.29631 -10.29437
 Alpha  occ. eigenvalues --  -10.29401 -10.29255 -10.28750 -10.28718 -10.28654
 Alpha  occ. eigenvalues --  -10.28541 -10.28405 -10.28366 -10.28139 -10.28118
 Alpha  occ. eigenvalues --  -10.28001 -10.27793 -10.27728 -10.27669 -10.27585
 Alpha  occ. eigenvalues --  -10.27518 -10.27501 -10.27484 -10.27483 -10.27469
 Alpha  occ. eigenvalues --  -10.27465 -10.27450 -10.27404 -10.27376 -10.27158
 Alpha  occ. eigenvalues --  -10.27049 -10.26707 -10.26693 -10.26417 -10.26414
 Alpha  occ. eigenvalues --  -10.26235 -10.26183 -10.26138 -10.26023 -10.26020
 Alpha  occ. eigenvalues --  -10.25934 -10.25849 -10.25842 -10.25435 -10.25397
 Alpha  occ. eigenvalues --  -10.24872 -10.24833 -10.24788 -10.24732 -10.24690
 Alpha  occ. eigenvalues --  -10.24687  -3.16540  -3.16410  -1.91422  -1.91292
 Alpha  occ. eigenvalues --   -1.91008  -1.90881  -1.90850  -1.90718  -1.16641
 Alpha  occ. eigenvalues --   -1.16632  -1.08656  -1.08627  -1.07218  -1.06968
 Alpha  occ. eigenvalues --   -1.06944  -1.06642  -1.04582  -1.04495  -1.03761
 Alpha  occ. eigenvalues --   -1.03663  -1.03234  -1.03039  -1.02412  -1.02111
 Alpha  occ. eigenvalues --   -0.91986  -0.91972  -0.89520  -0.89494  -0.89189
 Alpha  occ. eigenvalues --   -0.89150  -0.88287  -0.88220  -0.87870  -0.87793
 Alpha  occ. eigenvalues --   -0.87684  -0.87674  -0.87275  -0.87121  -0.84999
 Alpha  occ. eigenvalues --   -0.84983  -0.83936  -0.83876  -0.82969  -0.82933
 Alpha  occ. eigenvalues --   -0.82652  -0.82650  -0.81595  -0.81586  -0.80597
 Alpha  occ. eigenvalues --   -0.80442  -0.78798  -0.78636  -0.77219  -0.77144
 Alpha  occ. eigenvalues --   -0.76935  -0.76898  -0.75924  -0.75838  -0.74898
 Alpha  occ. eigenvalues --   -0.74802  -0.72775  -0.72699  -0.71673  -0.71580
 Alpha  occ. eigenvalues --   -0.69907  -0.69758  -0.68874  -0.68827  -0.67642
 Alpha  occ. eigenvalues --   -0.67601  -0.67221  -0.67200  -0.65287  -0.65271
 Alpha  occ. eigenvalues --   -0.64854  -0.64770  -0.64653  -0.64621  -0.64270
 Alpha  occ. eigenvalues --   -0.64204  -0.62298  -0.62277  -0.60443  -0.60340
 Alpha  occ. eigenvalues --   -0.59805  -0.59796  -0.58992  -0.58988  -0.58504
 Alpha  occ. eigenvalues --   -0.58425  -0.57584  -0.57553  -0.57309  -0.57236
 Alpha  occ. eigenvalues --   -0.56310  -0.56204  -0.55979  -0.55885  -0.55521
 Alpha  occ. eigenvalues --   -0.55452  -0.55339  -0.55247  -0.54523  -0.54487
 Alpha  occ. eigenvalues --   -0.53912  -0.53896  -0.53300  -0.53228  -0.53223
 Alpha  occ. eigenvalues --   -0.53141  -0.52915  -0.52902  -0.52758  -0.52669
 Alpha  occ. eigenvalues --   -0.52438  -0.52401  -0.51914  -0.51884  -0.51659
 Alpha  occ. eigenvalues --   -0.51618  -0.51200  -0.51196  -0.50575  -0.50476
 Alpha  occ. eigenvalues --   -0.50032  -0.49980  -0.49920  -0.49867  -0.49516
 Alpha  occ. eigenvalues --   -0.49488  -0.49215  -0.49202  -0.49103  -0.49097
 Alpha  occ. eigenvalues --   -0.48593  -0.48558  -0.48462  -0.48446  -0.48375
 Alpha  occ. eigenvalues --   -0.48339  -0.47696  -0.47594  -0.47298  -0.47118
 Alpha  occ. eigenvalues --   -0.46797  -0.46709  -0.46556  -0.46553  -0.46360
 Alpha  occ. eigenvalues --   -0.46270  -0.46163  -0.46085  -0.45822  -0.45821
 Alpha  occ. eigenvalues --   -0.45208  -0.45202  -0.44578  -0.44513  -0.44508
 Alpha  occ. eigenvalues --   -0.44476  -0.44145  -0.44127  -0.44089  -0.44078
 Alpha  occ. eigenvalues --   -0.44020  -0.43939  -0.43552  -0.43495  -0.43386
 Alpha  occ. eigenvalues --   -0.43385  -0.43027  -0.42929  -0.42900  -0.42699
 Alpha  occ. eigenvalues --   -0.42655  -0.42554  -0.42010  -0.41964  -0.41704
 Alpha  occ. eigenvalues --   -0.41668  -0.41535  -0.41458  -0.41142  -0.40989
 Alpha  occ. eigenvalues --   -0.40870  -0.40825  -0.40723  -0.40699  -0.40572
 Alpha  occ. eigenvalues --   -0.40493  -0.40236  -0.40227  -0.39441  -0.39426
 Alpha  occ. eigenvalues --   -0.38469  -0.38350  -0.37750  -0.37654  -0.37321
 Alpha  occ. eigenvalues --   -0.37266  -0.37264  -0.37199  -0.36770  -0.36713
 Alpha  occ. eigenvalues --   -0.36217  -0.36193  -0.34286  -0.34253  -0.33861
 Alpha  occ. eigenvalues --   -0.33770  -0.33187  -0.33175  -0.31347  -0.31274
 Alpha  occ. eigenvalues --   -0.31036  -0.30973  -0.30028  -0.29954  -0.29450
 Alpha  occ. eigenvalues --   -0.29327  -0.29322  -0.29211  -0.24081  -0.24036
 Alpha  occ. eigenvalues --   -0.21128  -0.21117
 Alpha virt. eigenvalues --   -0.08792  -0.08775  -0.01750  -0.01684  -0.00059
 Alpha virt. eigenvalues --   -0.00029   0.02200   0.02208   0.03122   0.03227
 Alpha virt. eigenvalues --    0.04717   0.04730   0.05098   0.05167   0.06176

 Mulliken charges:
               1
     1  Mg   0.838769
     2  C   -0.002976
     3  C   -0.094129
     4  C   -0.045873
     5  C   -0.063960
     6  N   -0.256778
     7  C   -0.052459
     8  C   -0.014021
     9  C   -0.087001
    10  C    0.046323
    11  C    0.104812
    12  C    0.053474
    13  C   -0.071791
    14  H    0.036115
    15  N   -0.433142
    16  C    0.168421
    17  C   -0.177174
    18  C   -0.004010
    19  C    0.148709
    20  C    0.110183
    21  C    0.012272
    22  O   -0.249627
    23  C    0.062484
    24  N   -0.341175
    25  C    0.041257
    26  C   -0.028178
    27  C   -0.023986
    28  C    0.074870
    29  C    0.076164
    30  C    0.035118
    31  C   -0.004504
    32  N   -0.310471
    33  C    0.080416
    34  C   -0.169689
    35  C    0.008359
    36  C    0.082968
    37  C    0.127307
    38  C    0.046137
    39  O   -0.188407
    40  C   -0.005316
    41  C    0.212866
    42  O   -0.257103
    43  O   -0.304796
    44  C    0.157693
    45  H   -0.017615
    46  H   -0.016840
    47  H   -0.041471
    48  H    0.000948
    49  H   -0.004049
    50  H    0.025483
    51  H    0.016449
    52  H    0.016652
    53  H    0.011187
    54  H    0.044126
    55  H    0.017880
    56  H    0.017929
    57  H    0.005865
    58  H    0.026818
    59  H    0.039518
    60  H    0.037344
    61  H    0.035635
    62  H    0.031478
    63  H    0.016551
    64  H    0.009472
    65  H    0.023212
    66  H    0.012544
    67  H    0.004764
    68  H    0.006373
    69  H    0.004751
    70  H    0.008771
    71  H    0.018163
    72  H    0.028972
    73  H    0.047598
    74  H    0.009125
    75  H    0.046020
    76  H    0.035156
    77  H    0.042965
    78  H    0.046382
    79  H    0.053695
    80  Mg   0.837843
    81  C   -0.016812
    82  C   -0.087785
    83  C   -0.045509
    84  C   -0.064872
    85  N   -0.254564
    86  C   -0.049816
    87  C   -0.015109
    88  C   -0.090506
    89  C    0.045763
    90  C    0.114370
    91  C    0.062539
    92  C   -0.077902
    93  H    0.034899
    94  N   -0.423478
    95  C    0.162928
    96  C   -0.174640
    97  C   -0.007803
    98  C    0.152106
    99  C    0.099371
   100  C    0.015566
   101  O   -0.253181
   102  C    0.061195
   103  N   -0.350072
   104  C    0.037536
   105  C   -0.019856
   106  C   -0.034806
   107  C    0.088915
   108  C    0.073644
   109  C    0.034723
   110  C   -0.007672
   111  N   -0.324113
   112  C    0.078471
   113  C   -0.163101
   114  C    0.002253
   115  C    0.096161
   116  C    0.131481
   117  C    0.042414
   118  O   -0.187821
   119  C    0.000917
   120  C    0.211264
   121  O   -0.251031
   122  O   -0.305618
   123  C    0.152023
   124  H   -0.019666
   125  H   -0.015571
   126  H   -0.040427
   127  H   -0.000613
   128  H   -0.004342
   129  H    0.022507
   130  H    0.014443
   131  H    0.016288
   132  H    0.013903
   133  H    0.037672
   134  H    0.020812
   135  H    0.019577
   136  H    0.008756
   137  H    0.026138
   138  H    0.039779
   139  H    0.038249
   140  H    0.036391
   141  H    0.033889
   142  H    0.014397
   143  H    0.012460
   144  H    0.025139
   145  H    0.011655
   146  H    0.005715
   147  H    0.006273
   148  H    0.003670
   149  H    0.010925
   150  H    0.017934
   151  H    0.030094
   152  H    0.046020
   153  H    0.008522
   154  H    0.047012
   155  H    0.035084
   156  H    0.043945
   157  H    0.049483
   158  H    0.053572
 Sum of Mulliken charges =  -0.00000

 Dipole moment (field-independent basis, Debye):
    X=             -4.1116    Y=             -2.5576    Z=             -7.6675  Tot=              9.0685
 Quadrupole moment (field-independent basis, Debye-Ang):
   XX=           -518.9399   YY=           -552.2620   ZZ=           -447.0492
   XY=             -5.3610   XZ=              5.3500   YZ=            -48.2527

 Normal termination of Gaussian 16 at Sun Sep 12 19:57:43 2021.
