 Gaussian 16, Revision A.03,
 Gaussian 16:  ES64L-G16RevA.03 25-Dec-2016

 -----------------------------------
 #p cam-b3lyp/Def2SVP td=(nstates=5)
 -----------------------------------

 --------------------------------
 TDDFT excited states in gaussian
 --------------------------------
 Symbolic Z-matrix:
 Charge =  0 Multiplicity = 1

                         Standard orientation:
 ---------------------------------------------------------------------
 Center     Atomic      Atomic             Coordinates (Angstroms)
 Number     Number       Type             X           Y           Z
 ---------------------------------------------------------------------
      1         12           0        4.699202   -0.216016   -0.011194
      2          6           0        4.510492    2.998022   -1.575343
      3          6           0        5.490071    1.405158    2.885249
      4          6           0        5.315353   -3.047237    1.277669
      5          6           0        5.016061   -1.585604   -3.200159
      6          7           0        4.937665    1.931980    0.468277
      7          6           0        4.779121    3.066331   -0.206468
      8          6           0        4.850488    4.335863    0.693848
      9          6           0        5.707560    3.741448    1.899706
     10          6           0        5.329841    2.276624    1.767257
     11          6           0        7.213754    3.880029    1.703042
     12          6           0        3.435651    4.805042    1.173261
     13          6           0        3.383960    6.210555    1.779245
     14          1           0        2.206133    7.031865    1.543614
     15          7           0        4.833396   -0.759350    1.883438
     16          6           0        5.150118    0.035861    2.933491
     17          6           0        5.118475   -0.834866    4.128277
     18          6           0        4.943860   -2.239003    3.663515
     19          6           0        5.051557   -2.072115    2.236655
     20          6           0        5.198321   -0.312103    5.529738
     21          6           0        4.726549   -3.528290    4.390595
     22          8           0        4.832414   -4.662603    3.810336
     23          6           0        4.470174   -3.430560    5.838961
     24          7           0        5.327846   -2.036403   -0.816574
     25          6           0        5.462065   -3.121932   -0.046772
     26          6           0        5.643185   -4.359485   -0.874779
     27          6           0        5.360843   -3.925890   -2.385418
     28          6           0        5.133783   -2.411023   -2.157617
     29          6           0        7.021523   -5.028929   -0.785104
     30          6           0        4.281028   -4.725804   -3.156493
     31          6           0        2.918896   -4.460417   -2.555440
     32          7           0        4.580168    0.518153   -2.050280
     33          6           0        4.767126   -0.223527   -3.225708
     34          6           0        4.696296    0.726005   -4.351514
     35          6           0        4.488232    1.964608   -3.747843
     36          6           0        4.458825    1.803044   -2.333162
     37          6           0        4.877109    0.404331   -5.725656
     38          6           0        4.308515    3.390522   -3.967677
     39          8           0        4.152963    4.101919   -4.961262
     40          6           0        4.437467    4.133877   -2.565315
     41          6           0        3.283864    5.092804   -2.451432
     42          8           0        2.111659    4.675119   -2.357416
     43          8           0        3.754361    6.330296   -2.232828
     44          6           0        2.659942    7.325926   -2.080771
     45          1           0        5.973240    1.786671    3.786879
     46          1           0        5.423922   -4.058806    1.674379
     47          1           0        5.021679   -1.952407   -4.228204
     48          1           0        5.373523    5.181367    0.246654
     49          1           0        5.379839    4.131676    2.863056
     50          1           0        7.453048    4.248921    0.705756
     51          1           0        7.619322    2.878223    1.845846
     52          1           0        7.652015    4.495564    2.489057
     53          1           0        3.137280    4.217563    2.041538
     54          1           0        2.710595    4.735489    0.361607
     55          1           0        4.291930    6.772926    1.559616
     56          1           0        3.380820    6.114446    2.865041
     57          1           0        5.489035    0.737483    5.549721
     58          1           0        6.023164   -0.831744    6.016890
     59          1           0        4.276202   -0.484193    6.085088
     60          1           0        5.312651   -2.934018    6.320861
     61          1           0        4.250277   -4.443454    6.174432
     62          1           0        3.602898   -2.789987    6.001588
     63          1           0        4.930956   -5.131188   -0.585589
     64          1           0        6.251157   -4.011814   -3.008821
     65          1           0        6.981983   -6.072215   -0.470947
     66          1           0        7.638939   -4.439671   -0.107710
     67          1           0        7.608776   -4.990693   -1.702213
     68          1           0        4.467215   -5.795691   -3.069186
     69          1           0        4.240797   -4.481716   -4.218120
     70          1           0        2.881054   -5.158932   -1.720289
     71          1           0        2.134199   -4.676697   -3.281170
     72          1           0        2.855680   -3.453871   -2.141489
     73          1           0        4.100365    0.941789   -6.269510
     74          1           0        4.806891   -0.670167   -5.893365
     75          1           0        5.883539    0.788047   -5.892134
     76          1           0        5.398138    4.647890   -2.570166
     77          1           0        2.835635    8.110899   -2.816422
     78          1           0        2.645415    7.612233   -1.029000
     79          1           0        1.662168    6.993272   -2.369091
     80         12           0       -4.240482   -1.175914    0.261003
     81          6           0       -6.771914    1.362588    0.096931
     82          6           0       -1.999721    1.311248    0.914921
     83          6           0       -1.922583   -3.322686   -0.032505
     84          6           0       -6.411248   -3.258725   -1.498366
     85          7           0       -4.476545    1.014596    0.456411
     86          6           0       -5.496047    1.859884    0.435010
     87          6           0       -5.142011    3.305869    0.874705
     88          6           0       -3.571241    3.280697    0.541648
     89          6           0       -3.316359    1.781039    0.678555
     90          6           0       -3.252188    3.690993   -0.886361
     91          6           0       -5.401248    3.546137    2.403458
     92          6           0       -5.372188    5.013166    2.837869
     93          1           0       -6.286070    5.445239    3.891732
     94          7           0       -2.357304   -1.126102    0.885289
     95          6           0       -1.607049   -0.029462    1.121407
     96          6           0       -0.288225   -0.527231    1.542244
     97          6           0       -0.270367   -2.006086    1.376813
     98          6           0       -1.536549   -2.211207    0.702431
     99          6           0        0.773001    0.365488    2.116944
    100          6           0        0.727688   -3.059788    1.750726
    101          8           0        0.645384   -4.256108    1.298099
    102          6           0        1.856307   -2.626369    2.587306
    103          7           0       -4.088063   -2.948117   -0.815285
    104          6           0       -2.990136   -3.719125   -0.725678
    105          6           0       -3.217460   -5.068382   -1.364604
    106          6           0       -4.782022   -5.131648   -1.689772
    107          6           0       -5.190725   -3.710376   -1.244395
    108          6           0       -2.421319   -5.342997   -2.640198
    109          6           0       -5.571339   -6.341038   -1.117913
    110          6           0       -5.630047   -6.252534    0.390103
    111          7           0       -6.294381   -1.077572   -0.402229
    112          6           0       -6.997948   -2.049928   -1.146288
    113          6           0       -8.326624   -1.483473   -1.456441
    114          6           0       -8.295235   -0.201793   -0.886541
    115          6           0       -7.028647    0.022881   -0.282557
    116          6           0       -9.346320   -2.122160   -2.216982
    117          6           0       -9.041777    1.016203   -0.667767
    118          8           0      -10.199894    1.374759   -0.877364
    119          6           0       -8.043999    2.130991   -0.131037
    120          6           0       -8.684443    2.794262    1.057424
    121          8           0       -8.891618    2.153834    2.103143
    122          8           0       -8.746875    4.120799    0.841135
    123          6           0       -9.364600    4.823793    1.997008
    124          1           0       -1.181292    2.031550    0.899684
    125          1           0       -1.197174   -4.138711   -0.069440
    126          1           0       -7.180540   -3.882561   -1.958477
    127          1           0       -5.630598    4.086629    0.304207
    128          1           0       -3.001209    3.833652    1.283713
    129          1           0       -4.146356    3.818434   -1.478274
    130          1           0       -2.640565    2.895405   -1.291342
    131          1           0       -2.623503    4.586028   -0.889886
    132          1           0       -4.546484    3.163668    2.976025
    133          1           0       -6.326660    3.097321    2.708118
    134          1           0       -5.421324    5.697497    1.982170
    135          1           0       -4.400418    5.221379    3.292106
    136          1           0        0.534819    1.424998    1.961660
    137          1           0        1.681806    0.202201    1.527643
    138          1           0        0.986928    0.144835    3.164902
    139          1           0        2.401805   -1.836307    2.076717
    140          1           0        2.411727   -3.536240    2.822942
    141          1           0        1.459841   -2.189168    3.510496
    142          1           0       -2.968601   -5.868247   -0.678043
    143          1           0       -4.971332   -5.188509   -2.771781
    144          1           0       -1.794201   -6.252228   -2.576056
    145          1           0       -1.812089   -4.475303   -2.855772
    146          1           0       -3.018127   -5.437026   -3.545827
    147          1           0       -5.056183   -7.275360   -1.354157
    148          1           0       -6.580282   -6.421944   -1.508418
    149          1           0       -4.673303   -6.683441    0.700015
    150          1           0       -6.466967   -6.831369    0.775515
    151          1           0       -5.644384   -5.208133    0.722786
    152          1           0      -10.278315   -1.948962   -1.695559
    153          1           0       -9.147453   -3.185330   -2.334875
    154          1           0       -9.253499   -1.579960   -3.161789
    155          1           0       -7.868348    2.833532   -0.946600
    156          1           0      -10.209361    5.399565    1.606448
    157          1           0       -8.544415    5.392970    2.473544
    158          1           0       -9.852740    4.216579    2.750311
 ---------------------------------------------------------------------

 SCF Done:  E(RCAM-B3LYP) =  -4069.81214942     A.U. after   19 cycles

 Excitation energies and oscillator strengths:

 Excited State   1:      Singlet-A      1.6387 eV  756.58 nm  f=0.2867  <S**2>=0.000
     309 -> 315        0.12547
     310 -> 316       -0.10729
     311 -> 313        0.52208
     312 -> 314       -0.44616
 This state for optimization and/or second-order correction.
 Total Energy, E(TD-HF/TD-DFT) =  -4069.75192681
 Copying the excited state density for this state as the 1-particle RhoCI density.

 Excited State   2:      Singlet-A      1.6887 eV  734.20 nm  f=0.4927  <S**2>=0.000
     309 -> 315        0.11793
     310 -> 316        0.13421
     311 -> 313        0.44465
     312 -> 314        0.52008

 Excited State   3:      Singlet-A      2.1775 eV  569.39 nm  f=0.0024  <S**2>=0.000
     309 -> 313        0.41002
     310 -> 314        0.48530
     311 -> 315       -0.17171
     312 -> 313        0.12004
     312 -> 316       -0.20069

 Excited State   4:      Singlet-A      2.1901 eV  566.10 nm  f=0.1250  <S**2>=0.000
     309 -> 313       -0.37780
     310 -> 314        0.39553
     311 -> 315        0.17169
     312 -> 313       -0.36107
     312 -> 316       -0.17266

 Excited State   5:      Singlet-A      2.2118 eV  560.55 nm  f=0.0419  <S**2>=0.000
     309 -> 313       -0.31324
     310 -> 314        0.14265
     311 -> 315        0.13790
     312 -> 313        0.59359

 The electronic state is 1-A.
 Alpha  occ. eigenvalues --  -46.88230 -46.87387 -19.26739 -19.26168 -19.19503
 Alpha  occ. eigenvalues --  -19.19259 -19.18970 -19.18529 -19.18316 -19.17812
 Alpha  occ. eigenvalues --  -14.42866 -14.42204 -14.41778 -14.41100 -14.39917
 Alpha  occ. eigenvalues --  -14.39070 -14.38959 -14.38336 -10.39549 -10.38894
 Alpha  occ. eigenvalues --  -10.35826 -10.34909 -10.34754 -10.33990 -10.32134
 Alpha  occ. eigenvalues --  -10.31815 -10.31607 -10.31330 -10.31021 -10.30998
 Alpha  occ. eigenvalues --  -10.30836 -10.30734 -10.30491 -10.30211 -10.30125
 Alpha  occ. eigenvalues --  -10.30088 -10.30060 -10.29883 -10.29652 -10.29615
 Alpha  occ. eigenvalues --  -10.29219 -10.29162 -10.29133 -10.29093 -10.28751
 Alpha  occ. eigenvalues --  -10.28541 -10.28497 -10.28414 -10.28149 -10.28132
 Alpha  occ. eigenvalues --  -10.28131 -10.27991 -10.27887 -10.27790 -10.27752
 Alpha  occ. eigenvalues --  -10.27736 -10.27556 -10.27553 -10.27476 -10.27332
 Alpha  occ. eigenvalues --  -10.27323 -10.27322 -10.27311 -10.27214 -10.27191
 Alpha  occ. eigenvalues --  -10.27181 -10.26811 -10.26753 -10.26593 -10.26476
 Alpha  occ. eigenvalues --  -10.26312 -10.26107 -10.26034 -10.25971 -10.25682
 Alpha  occ. eigenvalues --  -10.25633 -10.25526 -10.25490 -10.25421 -10.25265
 Alpha  occ. eigenvalues --  -10.25194 -10.25079 -10.24612 -10.24568 -10.24429
 Alpha  occ. eigenvalues --  -10.24262  -3.16976  -3.16136  -1.91862  -1.91441
 Alpha  occ. eigenvalues --   -1.91285  -1.91019  -1.90607  -1.90444  -1.17092
 Alpha  occ. eigenvalues --   -1.16459  -1.08990  -1.08426  -1.07640  -1.07116
 Alpha  occ. eigenvalues --   -1.06754  -1.06536  -1.04998  -1.04202  -1.04141
 Alpha  occ. eigenvalues --   -1.03618  -1.03385  -1.02776  -1.02769  -1.01846
 Alpha  occ. eigenvalues --   -0.92347  -0.91723  -0.89731  -0.89608  -0.89263
 Alpha  occ. eigenvalues --   -0.88816  -0.88432  -0.88201  -0.88049  -0.88006
 Alpha  occ. eigenvalues --   -0.87691  -0.87546  -0.87404  -0.86802  -0.85412
 Alpha  occ. eigenvalues --   -0.84695  -0.84049  -0.83676  -0.83257  -0.82995
 Alpha  occ. eigenvalues --   -0.82563  -0.82261  -0.81959  -0.81363  -0.80966
 Alpha  occ. eigenvalues --   -0.80162  -0.79177  -0.78343  -0.77557  -0.77240
 Alpha  occ. eigenvalues --   -0.76882  -0.76647  -0.76300  -0.75541  -0.75072
 Alpha  occ. eigenvalues --   -0.74590  -0.73102  -0.72435  -0.71994  -0.71299
 Alpha  occ. eigenvalues --   -0.69904  -0.69557  -0.69266  -0.68526  -0.67999
 Alpha  occ. eigenvalues --   -0.67693  -0.67328  -0.66899  -0.65706  -0.65209
 Alpha  occ. eigenvalues --   -0.64992  -0.64964  -0.64512  -0.64415  -0.64386
 Alpha  occ. eigenvalues --   -0.63974  -0.62662  -0.62059  -0.60788  -0.60226
 Alpha  occ. eigenvalues --   -0.60069  -0.59486  -0.59315  -0.58838  -0.58732
 Alpha  occ. eigenvalues --   -0.58173  -0.57976  -0.57569  -0.57323  -0.57001
 Alpha  occ. eigenvalues --   -0.56670  -0.56396  -0.55938  -0.55893  -0.55662
 Alpha  occ. eigenvalues --   -0.55562  -0.55176  -0.55035  -0.54741  -0.54343
 Alpha  occ. eigenvalues --   -0.54280  -0.53717  -0.53604  -0.53574  -0.53291
 Alpha  occ. eigenvalues --   -0.53205  -0.52931  -0.52815  -0.52643  -0.52412
 Alpha  occ. eigenvalues --   -0.52385  -0.52203  -0.52194  -0.52056  -0.51654
 Alpha  occ. eigenvalues --   -0.51498  -0.51369  -0.50986  -0.50961  -0.50467
 Alpha  occ. eigenvalues --   -0.50136  -0.50069  -0.49836  -0.49710  -0.49585
 Alpha  occ. eigenvalues --   -0.49496  -0.49459  -0.49180  -0.48971  -0.48905
 Alpha  occ. eigenvalues --   -0.48823  -0.48729  -0.48609  -0.48282  -0.48170
 Alpha  occ. eigenvalues --   -0.48059  -0.47859  -0.47551  -0.47298  -0.47103
 Alpha  occ. eigenvalues --   -0.46972  -0.46887  -0.46648  -0.46463  -0.46405
 Alpha  occ. eigenvalues --   -0.46248  -0.46170  -0.46010  -0.45852  -0.45587
 Alpha  occ. eigenvalues --   -0.45376  -0.44991  -0.44936  -0.44822  -0.44498
 Alpha  occ. eigenvalues --   -0.44410  -0.44285  -0.44281  -0.44141  -0.43859
 Alpha  occ. eigenvalues --   -0.43839  -0.43813  -0.43702  -0.43576  -0.43357
 Alpha  occ. eigenvalues --   -0.43333  -0.43118  -0.43099  -0.42766  -0.42719
 Alpha  occ. eigenvalues --   -0.42652  -0.42321  -0.42173  -0.42034  -0.41833
 Alpha  occ. eigenvalues --   -0.41738  -0.41484  -0.41406  -0.41215  -0.41195
 Alpha  occ. eigenvalues --   -0.41069  -0.40746  -0.40655  -0.40645  -0.40438
 Alpha  occ. eigenvalues --   -0.40314  -0.40244  -0.39927  -0.39356  -0.39225
 Alpha  occ. eigenvalues --   -0.38655  -0.38220  -0.38130  -0.37725  -0.37502
 Alpha  occ. eigenvalues --   -0.37407  -0.37099  -0.37021  -0.36914  -0.36577
 Alpha  occ. eigenvalues --   -0.36466  -0.35984  -0.34646  -0.34229  -0.33987
 Alpha  occ. eigenvalues --   -0.33656  -0.33526  -0.32900  -0.31717  -0.31395
 Alpha  occ. eigenvalues --   -0.30846  -0.30671  -0.30391  -0.29933  -0.29719
 Alpha  occ. eigenvalues --   -0.29692  -0.29057  -0.28951  -0.24464  -0.23759
 Alpha  occ. eigenvalues --   -0.21463  -0.20847
 Alpha virt. eigenvalues --   -0.09151  -0.08522  -0.02187  -0.01405  -0.00511
 Alpha virt. eigenvalues --    0.00289   0.01856   0.02468   0.02485   0.03476
 Alpha virt. eigenvalues --    0.04294   0.04630   0.05006   0.05369   0.05603

 Mulliken charges:
               1
     1  Mg   0.820877
     2  C   -0.001763
     3  C   -0.096963
     4  C   -0.032778
     5  C   -0.062430
     6  N   -0.254290
     7  C   -0.056538
     8  C   -0.012686
     9  C   -0.086475
    10  C    0.042749
    11  C    0.104509
    12  C    0.051667
    13  C   -0.071528
    14  H    0.034515
    15  N   -0.441803
    16  C    0.171186
    17  C   -0.186089
    18  C    0.014448
    19  C    0.119675
    20  C    0.111323
    21  C    0.013457
    22  O   -0.248502
    23  C    0.068284
    24  N   -0.339504
    25  C    0.040193
    26  C   -0.028372
    27  C   -0.024635
    28  C    0.080041
    29  C    0.075872
    30  C    0.034143
    31  C   -0.005535
    32  N   -0.307603
    33  C    0.082167
    34  C   -0.168618
    35  C    0.008849
    36  C    0.080757
    37  C    0.127076
    38  C    0.046492
    39  O   -0.187423
    40  C   -0.006457
    41  C    0.213597
    42  O   -0.259699
    43  O   -0.304034
    44  C    0.157531
    45  H   -0.017688
    46  H   -0.014631
    47  H   -0.039998
    48  H    0.001879
    49  H   -0.004287
    50  H    0.025990
    51  H    0.017659
    52  H    0.017390
    53  H    0.009669
    54  H    0.041141
    55  H    0.019951
    56  H    0.018529
    57  H    0.005919
    58  H    0.028412
    59  H    0.038161
    60  H    0.037747
    61  H    0.038680
    62  H    0.027049
    63  H    0.023935
    64  H    0.009185
    65  H    0.024780
    66  H    0.011702
    67  H    0.004725
    68  H    0.006611
    69  H    0.002687
    70  H    0.020014
    71  H    0.016491
    72  H    0.029261
    73  H    0.048164
    74  H    0.010467
    75  H    0.046654
    76  H    0.036019
    77  H    0.044516
    78  H    0.046107
    79  H    0.052389
    80  Mg   0.837966
    81  C   -0.016969
    82  C   -0.089184
    83  C   -0.045960
    84  C   -0.065080
    85  N   -0.254662
    86  C   -0.049357
    87  C   -0.015228
    88  C   -0.090114
    89  C    0.044734
    90  C    0.113851
    91  C    0.062818
    92  C   -0.076968
    93  H    0.033189
    94  N   -0.423831
    95  C    0.164951
    96  C   -0.187781
    97  C   -0.004101
    98  C    0.152370
    99  C    0.117284
   100  C    0.017834
   101  O   -0.252167
   102  C    0.034118
   103  N   -0.349831
   104  C    0.037678
   105  C   -0.019828
   106  C   -0.034718
   107  C    0.088743
   108  C    0.073403
   109  C    0.034940
   110  C   -0.007569
   111  N   -0.323944
   112  C    0.078180
   113  C   -0.163599
   114  C    0.002114
   115  C    0.096012
   116  C    0.131560
   117  C    0.042009
   118  O   -0.188812
   119  C    0.001050
   120  C    0.211132
   121  O   -0.251536
   122  O   -0.305419
   123  C    0.152321
   124  H   -0.013104
   125  H   -0.015763
   126  H   -0.041212
   127  H   -0.000841
   128  H   -0.005768
   129  H    0.020755
   130  H    0.020515
   131  H    0.019858
   132  H    0.012970
   133  H    0.037034
   134  H    0.020983
   135  H    0.018530
   136  H    0.009711
   137  H    0.024017
   138  H    0.036900
   139  H    0.052065
   140  H    0.051975
   141  H    0.022794
   142  H    0.014138
   143  H    0.011991
   144  H    0.023663
   145  H    0.012254
   146  H    0.005230
   147  H    0.005499
   148  H    0.003336
   149  H    0.010842
   150  H    0.017358
   151  H    0.030420
   152  H    0.045343
   153  H    0.007951
   154  H    0.046806
   155  H    0.035370
   156  H    0.043501
   157  H    0.049222
   158  H    0.053098
 Sum of Mulliken charges =  -0.00000

 Dipole moment (field-independent basis, Debye):
    X=              6.6494    Y=              2.3003    Z=              3.5848  Tot=              7.8966
 Quadrupole moment (field-independent basis, Debye-Ang):
   XX=           -552.1118   YY=           -482.4049   ZZ=           -501.2576
   XY=             16.4384   XZ=             20.6768   YZ=             52.0772

 Normal termination of Gaussian 16 at Fri Sep 10 06:52:06 2021.
