 Gaussian 16, Revision A.03,
 Gaussian 16:  ES64L-G16RevA.03 25-Dec-2016

 -----------------------------------
 #p cam-b3lyp/Def2SVP td=(nstates=5)
 -----------------------------------

 --------------------------------
 TDDFT excited states in gaussian
 --------------------------------
 Symbolic Z-matrix:
 Charge =  0 Multiplicity = 1

                         Standard orientation:
 ---------------------------------------------------------------------
 Center     Atomic      Atomic             Coordinates (Angstroms)
 Number     Number       Type             X           Y           Z
 ---------------------------------------------------------------------
      1         12           0       -4.127743    0.113225    0.327329
      2          6           0       -3.495573    3.389088    1.623976
      3          6           0       -5.035238    1.609790   -2.601802
      4          6           0       -5.122179   -2.722047   -0.687044
      5          6           0       -4.267343   -1.004574    3.625313
      6          7           0       -4.210652    2.237881   -0.288794
      7          6           0       -3.884813    3.393059    0.282663
      8          6           0       -3.923125    4.601150   -0.700406
      9          6           0       -4.941566    4.016118   -1.778605
     10          6           0       -4.690186    2.533069   -1.570527
     11          6           0       -6.403138    4.315788   -1.461581
     12          6           0       -2.522579    4.895282   -1.335770
     13          6           0       -2.398531    6.245654   -2.047432
     14          1           0       -1.132796    6.960116   -1.978093
     15          7           0       -4.489980   -0.538144   -1.502248
     16          6           0       -4.829522    0.213388   -2.577049
     17          6           0       -4.991570   -0.733223   -3.701481
     18          6           0       -4.904510   -2.113958   -3.150042
     19          6           0       -4.861052   -1.843324   -1.735741
     20          6           0       -5.154715   -0.298866   -5.125724
     21          6           0       -4.877073   -3.463630   -3.794839
     22          8           0       -5.032156   -4.541067   -3.124277
     23          6           0       -4.750705   -3.487664   -5.263341
     24          7           0       -4.843231   -1.578793    1.318686
     25          6           0       -5.149420   -2.694184    0.647020
     26          6           0       -5.365250   -3.850310    1.578003
     27          6           0       -4.902587   -3.347933    3.021372
     28          6           0       -4.558873   -1.881356    2.661814
     29          6           0       -6.801897   -4.384496    1.659860
     30          6           0       -3.833437   -4.198097    3.752508
     31          6           0       -2.515479   -4.109128    3.016187
     32          7           0       -3.749231    0.965117    2.287445
     33          6           0       -3.892152    0.324872    3.526934
     34          6           0       -3.627755    1.335029    4.567965
     35          6           0       -3.363931    2.504351    3.857383
     36          6           0       -3.483349    2.247557    2.461644
     37          6           0       -3.706955    1.124326    5.972873
     38          6           0       -3.033095    3.916869    3.953284
     39          8           0       -2.719241    4.673460    4.873370
     40          6           0       -3.224589    4.575051    2.515942
     41          6           0       -2.003145    5.405459    2.229922
     42          8           0       -0.888757    4.868508    2.065028
     43          8           0       -2.375658    6.666283    1.961409
     44          6           0       -1.213088    7.536468    1.639911
     45          1           0       -5.564025    1.976844   -3.483616
     46          1           0       -5.360861   -3.741892   -0.995888
     47          1           0       -4.209750   -1.300292    4.674450
     48          1           0       -4.321099    5.521960   -0.273616
     49          1           0       -4.671604    4.307488   -2.793468
     50          1           0       -6.512004    4.771634   -0.477571
     51          1           0       -6.911326    3.351808   -1.492906
     52          1           0       -6.854838    4.918395   -2.250002
     53          1           0       -2.363194    4.225079   -2.180450
     54          1           0       -1.733663    4.808085   -0.587883
     55          1           0       -3.225752    6.908409   -1.791756
     56          1           0       -2.506865    6.078179   -3.119074
     57          1           0       -5.347650    0.770716   -5.198638
     58          1           0       -6.066408   -0.765359   -5.498429
     59          1           0       -4.309068   -0.597694   -5.745333
     60          1           0       -5.585358   -2.943103   -5.705333
     61          1           0       -4.658143   -4.537289   -5.540050
     62          1           0       -3.847134   -2.948228   -5.548854
     63          1           0       -4.757991   -4.706130    1.286054
     64          1           0       -5.734154   -3.303938    3.725101
     65          1           0       -6.888909   -5.445039    1.422408
     66          1           0       -7.423352   -3.783071    0.997008
     67          1           0       -7.293836   -4.227814    2.619477
     68          1           0       -4.125228   -5.247721    3.762174
     69          1           0       -3.670703   -3.889584    4.785266
     70          1           0       -2.621480   -4.861603    2.235561
     71          1           0       -1.689136   -4.353590    3.684474
     72          1           0       -2.398784   -3.143341    2.524126
     73          1           0       -2.835934    1.617016    6.404785
     74          1           0       -3.720932    0.061594    6.213722
     75          1           0       -4.653322    1.615929    6.197755
     76          1           0       -4.128808    5.180817    2.566512
     77          1           0       -1.245125    8.381857    2.327316
     78          1           0       -1.271538    7.749812    0.572450
     79          1           0       -0.227621    7.126470    1.863733
     80         12           0        3.592286   -1.524392   -0.540669
     81          6           0        6.031303    1.078966   -0.149777
     82          6           0        1.524423    0.822371   -1.901280
     83          6           0        1.268538   -3.684174   -0.486173
     84          6           0        5.366311   -3.352765    1.837473
     85          7           0        3.857483    0.637835   -0.923697
     86          6           0        4.849285    1.505536   -0.790317
     87          6           0        4.588107    2.887001   -1.448259
     88          6           0        2.982502    2.858724   -1.437606
     89          6           0        2.764526    1.347189   -1.457645
     90          6           0        2.379351    3.411351   -0.156928
     91          6           0        5.151480    2.968758   -2.910426
     92          6           0        5.207398    4.379765   -3.500095
     93          1           0        6.314954    4.719152   -4.389247
     94          7           0        1.874793   -1.588244   -1.533000
     95          6           0        1.185230   -0.542034   -2.034234
     96          6           0       -0.019521   -1.114430   -2.654801
     97          6           0       -0.066792   -2.567103   -2.335100
     98          6           0        1.036780   -2.667538   -1.401214
     99          6           0       -0.944366   -0.314820   -3.525829
    100          6           0       -0.965542   -3.679122   -2.784408
    101          8           0       -0.973715   -4.817775   -2.195988
    102          6           0       -1.902083   -3.365707   -3.873511
    103          7           0        3.229218   -3.174566    0.670697
    104          6           0        2.174281   -3.977679    0.446989
    105          6           0        2.270707   -5.244827    1.262722
    106          6           0        3.736929   -5.234227    1.901205
    107          6           0        4.223843   -3.859053    1.394052
    108          6           0        1.233049   -5.401092    2.374136
    109          6           0        4.628930   -6.477932    1.636236
    110          6           0        4.992110   -6.549754    0.170519
    111          7           0        5.468667   -1.304895    0.507681
    112          6           0        6.009149   -2.174396    1.480281
    113          6           0        7.245820   -1.545332    1.987555
    114          6           0        7.327426   -0.333102    1.285883
    115          6           0        6.209137   -0.205724    0.418306
    116          6           0        8.091652   -2.073602    3.003241
    117          6           0        8.099713    0.872616    1.089624
    118          8           0        9.190313    1.280070    1.487509
    119          6           0        7.228726    1.898586    0.243952
    120          6           0        8.095249    2.446615   -0.856643
    121          8           0        8.511895    1.703358   -1.762511
    122          8           0        8.109119    3.789802   -0.779105
    123          6           0        8.946681    4.380239   -1.856928
    124          1           0        0.718090    1.519693   -2.130291
    125          1           0        0.552803   -4.509264   -0.506754
    126          1           0        6.027858   -3.904598    2.508676
    127          1           0        4.948807    3.736137   -0.880244
    128          1           0        2.573461    3.314887   -2.335358
    129          1           0        3.134518    3.623430    0.585289
    130          1           0        1.700322    2.648740    0.201408
    131          1           0        1.760738    4.285787   -0.378297
    132          1           0        4.431617    2.506227   -3.597891
    133          1           0        6.120585    2.512980   -2.971379
    134          1           0        5.080172    5.152666   -2.732390
    135          1           0        4.347451    4.514103   -4.160753
    136          1           0       -0.745349    0.760788   -3.442982
    137          1           0       -1.953405   -0.436603   -3.117318
    138          1           0       -0.940689   -0.651500   -4.564725
    139          1           0       -2.541832   -2.539315   -3.573062
    140          1           0       -2.395831   -4.309016   -4.114874
    141          1           0       -1.327695   -3.020046   -4.740233
    142          1           0        2.168338   -6.119441    0.632111
    143          1           0        3.702944   -5.170359    2.998755
    144          1           0        0.634307   -6.327206    2.285195
    145          1           0        0.590534   -4.530656    2.366076
    146          1           0        1.633962   -5.382943    3.386125
    147          1           0        4.078951   -7.394089    1.864979
    148          1           0        5.537876   -6.491614    2.228369
    149          1           0        4.119236   -7.034874   -0.276515
    150          1           0        5.891291   -7.145601    0.027416
    151          1           0        5.070975   -5.546885   -0.265011
    152          1           0        9.109611   -1.934137    2.664384
    153          1           0        7.875732   -3.122656    3.194615
    154          1           0        7.807718   -1.435931    3.844685
    155          1           0        6.889485    2.679749    0.925338
    156          1           0        9.693174    5.015197   -1.369842
    157          1           0        8.238776    4.874734   -2.548369
    158          1           0        9.579043    3.708227   -2.425225
 ---------------------------------------------------------------------

 SCF Done:  E(RCAM-B3LYP) =  -4069.80922619     A.U. after   19 cycles

 Excitation energies and oscillator strengths:

 Excited State   1:      Singlet-A      1.6152 eV  767.62 nm  f=0.1870  <S**2>=0.000
     309 -> 315        0.11309
     310 -> 316        0.10733
     311 -> 313        0.48644
     312 -> 313       -0.13310
     312 -> 314       -0.46439
 This state for optimization and/or second-order correction.
 Total Energy, E(TD-HF/TD-DFT) =  -4069.74986923
 Copying the excited state density for this state as the 1-particle RhoCI density.

 Excited State   2:      Singlet-A      1.7086 eV  725.65 nm  f=0.5538  <S**2>=0.000
     309 -> 315        0.12708
     310 -> 316       -0.12714
     311 -> 313        0.47452
     312 -> 314        0.49039

 Excited State   3:      Singlet-A      2.0838 eV  595.00 nm  f=0.0002  <S**2>=0.000
     312 -> 313        0.69231
     312 -> 314       -0.11746

 Excited State   4:      Singlet-A      2.1741 eV  570.29 nm  f=0.0005  <S**2>=0.000
     309 -> 313        0.44656
     310 -> 314        0.45922
     311 -> 315       -0.18011
     312 -> 316        0.18179

 Excited State   5:      Singlet-A      2.1963 eV  564.50 nm  f=0.1651  <S**2>=0.000
     309 -> 313        0.45664
     310 -> 314       -0.43907
     311 -> 315       -0.20322
     312 -> 316       -0.19159

 The electronic state is 1-A.
 Alpha  occ. eigenvalues --  -46.88194 -46.87338 -19.26784 -19.26106 -19.19577
 Alpha  occ. eigenvalues --  -19.19130 -19.18908 -19.18586 -19.18258 -19.17750
 Alpha  occ. eigenvalues --  -14.42877 -14.42141 -14.41811 -14.41057 -14.39892
 Alpha  occ. eigenvalues --  -14.39034 -14.38981 -14.38279 -10.39604 -10.38831
 Alpha  occ. eigenvalues --  -10.35780 -10.34930 -10.34808 -10.33927 -10.32162
 Alpha  occ. eigenvalues --  -10.31831 -10.31554 -10.31395 -10.31011 -10.30937
 Alpha  occ. eigenvalues --  -10.30894 -10.30667 -10.30575 -10.30201 -10.30093
 Alpha  occ. eigenvalues --  -10.30056 -10.30054 -10.29843 -10.29692 -10.29619
 Alpha  occ. eigenvalues --  -10.29282 -10.29182 -10.29112 -10.29093 -10.28815
 Alpha  occ. eigenvalues --  -10.28586 -10.28445 -10.28301 -10.28233 -10.28153
 Alpha  occ. eigenvalues --  -10.28086 -10.28074 -10.27924 -10.27829 -10.27682
 Alpha  occ. eigenvalues --  -10.27679 -10.27603 -10.27588 -10.27560 -10.27411
 Alpha  occ. eigenvalues --  -10.27312 -10.27301 -10.27173 -10.27158 -10.27153
 Alpha  occ. eigenvalues --  -10.27033 -10.26737 -10.26638 -10.26629 -10.26400
 Alpha  occ. eigenvalues --  -10.26393 -10.26259 -10.26174 -10.25953 -10.25736
 Alpha  occ. eigenvalues --  -10.25637 -10.25580 -10.25545 -10.25260 -10.25255
 Alpha  occ. eigenvalues --  -10.25113 -10.25049 -10.24630 -10.24554 -10.24547
 Alpha  occ. eigenvalues --  -10.24395  -3.16934  -3.16088  -1.91814  -1.91403
 Alpha  occ. eigenvalues --   -1.91246  -1.90969  -1.90558  -1.90395  -1.17139
 Alpha  occ. eigenvalues --   -1.16398  -1.09044  -1.08363  -1.07532  -1.07171
 Alpha  occ. eigenvalues --   -1.06692  -1.06484  -1.05026  -1.04157  -1.04140
 Alpha  occ. eigenvalues --   -1.03652  -1.03341  -1.02808  -1.02734  -1.01795
 Alpha  occ. eigenvalues --   -0.92398  -0.91661  -0.89807  -0.89673  -0.89228
 Alpha  occ. eigenvalues --   -0.88690  -0.88525  -0.88265  -0.88099  -0.87976
 Alpha  occ. eigenvalues --   -0.87790  -0.87488  -0.87354  -0.86746  -0.85472
 Alpha  occ. eigenvalues --   -0.84609  -0.84164  -0.83658  -0.83421  -0.83078
 Alpha  occ. eigenvalues --   -0.82511  -0.82209  -0.82016  -0.81309  -0.81018
 Alpha  occ. eigenvalues --   -0.80133  -0.79227  -0.78301  -0.77626  -0.77325
 Alpha  occ. eigenvalues --   -0.76815  -0.76562  -0.76349  -0.75416  -0.75157
 Alpha  occ. eigenvalues --   -0.74541  -0.73158  -0.72377  -0.72041  -0.71227
 Alpha  occ. eigenvalues --   -0.70069  -0.69522  -0.69332  -0.68451  -0.68053
 Alpha  occ. eigenvalues --   -0.67754  -0.67311  -0.66902  -0.65764  -0.65256
 Alpha  occ. eigenvalues --   -0.65023  -0.64919  -0.64528  -0.64464  -0.64334
 Alpha  occ. eigenvalues --   -0.63936  -0.62718  -0.62010  -0.60808  -0.60269
 Alpha  occ. eigenvalues --   -0.60135  -0.59398  -0.59365  -0.58888  -0.58692
 Alpha  occ. eigenvalues --   -0.58119  -0.58028  -0.57630  -0.57262  -0.57031
 Alpha  occ. eigenvalues --   -0.56716  -0.56442  -0.55946  -0.55863  -0.55647
 Alpha  occ. eigenvalues --   -0.55621  -0.55276  -0.55003  -0.54836  -0.54405
 Alpha  occ. eigenvalues --   -0.54259  -0.53865  -0.53668  -0.53493  -0.53402
 Alpha  occ. eigenvalues --   -0.53302  -0.52915  -0.52808  -0.52589  -0.52533
 Alpha  occ. eigenvalues --   -0.52286  -0.52207  -0.52128  -0.51966  -0.51586
 Alpha  occ. eigenvalues --   -0.51578  -0.51322  -0.51218  -0.50883  -0.50513
 Alpha  occ. eigenvalues --   -0.50245  -0.50135  -0.49974  -0.49702  -0.49666
 Alpha  occ. eigenvalues --   -0.49514  -0.49343  -0.49039  -0.48912  -0.48828
 Alpha  occ. eigenvalues --   -0.48789  -0.48726  -0.48504  -0.48197  -0.48126
 Alpha  occ. eigenvalues --   -0.48035  -0.47827  -0.47596  -0.47171  -0.47158
 Alpha  occ. eigenvalues --   -0.47004  -0.46873  -0.46630  -0.46476  -0.46388
 Alpha  occ. eigenvalues --   -0.46227  -0.46140  -0.45888  -0.45785  -0.45528
 Alpha  occ. eigenvalues --   -0.45450  -0.44992  -0.44930  -0.44876  -0.44525
 Alpha  occ. eigenvalues --   -0.44455  -0.44379  -0.44225  -0.44046  -0.43908
 Alpha  occ. eigenvalues --   -0.43799  -0.43777  -0.43697  -0.43537  -0.43392
 Alpha  occ. eigenvalues --   -0.43270  -0.43150  -0.43033  -0.42852  -0.42662
 Alpha  occ. eigenvalues --   -0.42582  -0.42309  -0.42287  -0.42096  -0.41953
 Alpha  occ. eigenvalues --   -0.41681  -0.41524  -0.41391  -0.41293  -0.41244
 Alpha  occ. eigenvalues --   -0.41083  -0.40845  -0.40767  -0.40582  -0.40371
 Alpha  occ. eigenvalues --   -0.40175  -0.40131  -0.39780  -0.39558  -0.39190
 Alpha  occ. eigenvalues --   -0.38744  -0.38280  -0.38085  -0.37745  -0.37609
 Alpha  occ. eigenvalues --   -0.37339  -0.37156  -0.36977  -0.36836  -0.36575
 Alpha  occ. eigenvalues --   -0.36498  -0.35921  -0.34679  -0.34286  -0.33929
 Alpha  occ. eigenvalues --   -0.33598  -0.33591  -0.32858  -0.31644  -0.31415
 Alpha  occ. eigenvalues --   -0.30821  -0.30621  -0.30442  -0.29896  -0.29735
 Alpha  occ. eigenvalues --   -0.29656  -0.28992  -0.28891  -0.24474  -0.23716
 Alpha  occ. eigenvalues --   -0.21551  -0.20789
 Alpha virt. eigenvalues --   -0.09212  -0.08458  -0.02188  -0.01386  -0.00548
 Alpha virt. eigenvalues --    0.00449   0.01817   0.02462   0.02617   0.03578
 Alpha virt. eigenvalues --    0.04214   0.04483   0.05002   0.05431   0.05568

 Mulliken charges:
               1
     1  Mg   0.835552
     2  C   -0.004375
     3  C   -0.095055
     4  C   -0.041621
     5  C   -0.062708
     6  N   -0.256953
     7  C   -0.053161
     8  C   -0.013458
     9  C   -0.085965
    10  C    0.043189
    11  C    0.104572
    12  C    0.050738
    13  C   -0.071549
    14  H    0.034268
    15  N   -0.435985
    16  C    0.162624
    17  C   -0.183255
    18  C   -0.010803
    19  C    0.153347
    20  C    0.113361
    21  C   -0.014557
    22  O   -0.239653
    23  C    0.071382
    24  N   -0.340170
    25  C    0.038824
    26  C   -0.029472
    27  C   -0.025777
    28  C    0.077311
    29  C    0.075667
    30  C    0.043748
    31  C   -0.021114
    32  N   -0.310717
    33  C    0.081782
    34  C   -0.168370
    35  C    0.008669
    36  C    0.084363
    37  C    0.127069
    38  C    0.046751
    39  O   -0.186906
    40  C   -0.005841
    41  C    0.213285
    42  O   -0.258397
    43  O   -0.304056
    44  C    0.156788
    45  H   -0.017661
    46  H   -0.014123
    47  H   -0.040039
    48  H    0.002150
    49  H   -0.004581
    50  H    0.025996
    51  H    0.017510
    52  H    0.017453
    53  H    0.007579
    54  H    0.043591
    55  H    0.020504
    56  H    0.018501
    57  H    0.005487
    58  H    0.028864
    59  H    0.035377
    60  H    0.035866
    61  H    0.040346
    62  H    0.030387
    63  H    0.023089
    64  H    0.009749
    65  H    0.025028
    66  H    0.011977
    67  H    0.004675
    68  H    0.006629
    69  H    0.002465
    70  H    0.017610
    71  H    0.022473
    72  H    0.031740
    73  H    0.048577
    74  H    0.010286
    75  H    0.046944
    76  H    0.036103
    77  H    0.044927
    78  H    0.045900
    79  H    0.053427
    80  Mg   0.838179
    81  C   -0.016825
    82  C   -0.089306
    83  C   -0.046759
    84  C   -0.065135
    85  N   -0.254996
    86  C   -0.048105
    87  C   -0.015167
    88  C   -0.091604
    89  C    0.047370
    90  C    0.116331
    91  C    0.062900
    92  C   -0.076663
    93  H    0.032927
    94  N   -0.423157
    95  C    0.163428
    96  C   -0.181266
    97  C   -0.007443
    98  C    0.149253
    99  C    0.099402
   100  C    0.024919
   101  O   -0.248206
   102  C    0.038387
   103  N   -0.349956
   104  C    0.036762
   105  C   -0.017465
   106  C   -0.034849
   107  C    0.088784
   108  C    0.067812
   109  C    0.035017
   110  C   -0.007510
   111  N   -0.324034
   112  C    0.078403
   113  C   -0.163524
   114  C    0.002345
   115  C    0.096185
   116  C    0.131463
   117  C    0.042151
   118  O   -0.188804
   119  C    0.000974
   120  C    0.211052
   121  O   -0.251671
   122  O   -0.305260
   123  C    0.152404
   124  H   -0.018100
   125  H   -0.015698
   126  H   -0.041372
   127  H   -0.000671
   128  H   -0.008066
   129  H    0.021990
   130  H    0.023005
   131  H    0.019728
   132  H    0.012742
   133  H    0.036845
   134  H    0.020714
   135  H    0.018082
   136  H    0.004128
   137  H    0.046792
   138  H    0.030780
   139  H    0.044843
   140  H    0.048041
   141  H    0.029909
   142  H    0.013852
   143  H    0.011618
   144  H    0.023726
   145  H    0.017497
   146  H    0.003563
   147  H    0.005252
   148  H    0.003302
   149  H    0.010760
   150  H    0.017319
   151  H    0.030581
   152  H    0.045262
   153  H    0.007731
   154  H    0.047119
   155  H    0.036299
   156  H    0.043388
   157  H    0.049106
   158  H    0.053010
 Sum of Mulliken charges =  -0.00000

 Dipole moment (field-independent basis, Debye):
    X=             -6.9511    Y=              2.3312    Z=             -3.8870  Tot=              8.2982
 Quadrupole moment (field-independent basis, Debye-Ang):
   XX=           -549.2729   YY=           -492.0066   ZZ=           -492.5925
   XY=            -16.5886   XZ=              7.6907   YZ=            -57.4025

 Normal termination of Gaussian 16 at Thu Sep  9 08:56:21 2021.
