 Gaussian 16, Revision A.03,
 Gaussian 16:  ES64L-G16RevA.03 25-Dec-2016

 -----------------------------------
 #p cam-b3lyp/Def2SVP td=(nstates=5)
 -----------------------------------

 --------------------------------
 TDDFT excited states in gaussian
 --------------------------------
 Symbolic Z-matrix:
 Charge =  0 Multiplicity = 1

                         Standard orientation:
 ---------------------------------------------------------------------
 Center     Atomic      Atomic             Coordinates (Angstroms)
 Number     Number       Type             X           Y           Z
 ---------------------------------------------------------------------
      1         12           0        3.112276    1.939809    0.879339
      2          6           0        4.670359   -1.234731    0.325364
      3          6           0        4.324059    2.898263   -2.163030
      4          6           0        2.137876    4.884342    1.540314
      5          6           0        3.010866    1.132872    4.268178
      6          7           0        4.328025    0.876376   -0.634501
      7          6           0        4.809645   -0.357067   -0.752110
      8          6           0        5.410678   -0.654141   -2.158481
      9          6           0        5.749895    0.837610   -2.607489
     10          6           0        4.716390    1.581295   -1.780010
     11          6           0        7.141211    1.299261   -2.186039
     12          6           0        4.370401   -1.319636   -3.121120
     13          6           0        4.958807   -1.936307   -4.393459
     14          1           0        4.362950   -3.154234   -4.921622
     15          7           0        2.786290    3.479731   -0.314488
     16          6           0        3.353373    3.700377   -1.524868
     17          6           0        2.788025    4.976505   -2.013293
     18          6           0        1.991102    5.574419   -0.906268
     19          6           0        2.298641    4.671383    0.173233
     20          6           0        2.983622    5.482178   -3.409641
     21          6           0        1.102956    6.775895   -0.830210
     22          8           0        0.692129    7.248567    0.284409
     23          6           0        0.794390    7.446557   -2.106157
     24          7           0        2.838791    2.976613    2.670394
     25          6           0        2.351223    4.222078    2.679232
     26          6           0        1.977946    4.652477    4.066806
     27          6           0        2.086114    3.346305    4.978928
     28          6           0        2.611287    2.355471    3.910887
     29          6           0        2.835574    5.771351    4.673935
     30          6           0        0.829636    2.952867    5.795560
     31          6           0       -0.276217    2.520000    4.859176
     32          7           0        3.558403    0.192835    2.087685
     33          6           0        3.465641    0.086692    3.482964
     34          6           0        3.974453   -1.247796    3.849460
     35          6           0        4.345709   -1.822696    2.635580
     36          6           0        4.109747   -0.895542    1.580591
     37          6           0        4.100814   -1.757197    5.171949
     38          6           0        4.909797   -2.995317    1.987027
     39          8           0        5.216125   -4.128963    2.359184
     40          6           0        5.256061   -2.616289    0.479623
     41          6           0        4.716272   -3.711079   -0.399793
     42          8           0        3.486973   -3.895705   -0.509809
     43          8           0        5.710669   -4.209232   -1.150501
     44          6           0        5.236623   -5.280036   -2.067460
     45          1           0        4.846214    3.385365   -2.988879
     46          1           0        1.698969    5.849229    1.802596
     47          1           0        2.931181    0.779258    5.297771
     48          1           0        6.320088   -1.255182   -2.146370
     49          1           0        5.567973    0.993932   -3.670593
     50          1           0        7.622012    0.570711   -1.533378
     51          1           0        6.987992    2.240664   -1.658046
     52          1           0        7.749967    1.540322   -3.057867
     53          1           0        3.743159   -0.545496   -3.563090
     54          1           0        3.783326   -2.072388   -2.593831
     55          1           0        6.041772   -2.040918   -4.321671
     56          1           0        4.808221   -1.234892   -5.214154
     57          1           0        3.748495    4.914230   -3.937799
     58          1           0        3.398261    6.486831   -3.329294
     59          1           0        2.048690    5.514018   -3.969302
     60          1           0        1.723238    7.769385   -2.576872
     61          1           0        0.075903    8.230073   -1.867978
     62          1           0        0.342025    6.723024   -2.784991
     63          1           0        0.955458    5.026569    4.098438
     64          1           0        2.873244    3.434651    5.728125
     65          1           0        2.260434    6.643207    4.986643
     66          1           0        3.596753    6.046145    3.944288
     67          1           0        3.448252    5.468286    5.522578
     68          1           0        0.458081    3.809960    6.356171
     69          1           0        1.012984    2.146350    6.505605
     70          1           0       -0.729105    3.465734    4.563689
     71          1           0       -0.994911    1.890301    5.384693
     72          1           0        0.124322    2.054948    3.958188
     73          1           0        3.741851   -2.785777    5.138225
     74          1           0        3.528483   -1.160999    5.882293
     75          1           0        5.176531   -1.666022    5.321534
     76          1           0        6.341046   -2.538579    0.417248
     77          1           0        5.842135   -6.164337   -1.868461
     78          1           0        5.266904   -4.862063   -3.073833
     79          1           0        4.235643   -5.669038   -1.877579
     80         12           0       -4.160562   -0.865428   -0.627612
     81          6           0       -1.454718   -3.212747   -0.409587
     82          6           0       -2.167782    1.015582   -2.658668
     83          6           0       -6.345529    1.430490   -0.478937
     84          6           0       -5.467159   -2.314964    2.259842
     85          7           0       -2.097559   -1.165791   -1.366547
     86          6           0       -1.189540   -2.124978   -1.267421
     87          6           0        0.039557   -1.945819   -2.198424
     88          6           0       -0.036442   -0.353606   -2.393296
     89          6           0       -1.532237   -0.150093   -2.161281
     90          6           0        0.721822    0.420012   -1.327519
     91          6           0       -0.129741   -2.700346   -3.563724
     92          6           0        1.150768   -2.826002   -4.392130
     93          1           0        1.356364   -4.040960   -5.175776
     94          7           0       -4.458333    0.702409   -1.807351
     95          6           0       -3.543424    1.324973   -2.579768
     96          6           0       -4.256955    2.431485   -3.236006
     97          6           0       -5.627485    2.511972   -2.661657
     98          6           0       -5.521009    1.543532   -1.588865
     99          6           0       -3.659307    3.235821   -4.353719
    100          6           0       -6.830415    3.334850   -3.010991
    101          8           0       -7.842028    3.414789   -2.228007
    102          6           0       -6.750746    4.118270   -4.252525
    103          7           0       -5.572068   -0.353281    0.810342
    104          6           0       -6.435090    0.656727    0.602997
    105          6           0       -7.528171    0.662798    1.644896
    106          6           0       -7.355249   -0.704029    2.456958
    107          6           0       -6.081405   -1.245887    1.772050
    108          6           0       -7.511012    1.839589    2.620206
    109          6           0       -8.597948   -1.631602    2.546315
    110          6           0       -8.925070   -2.189238    1.179775
    111          7           0       -3.694654   -2.582160    0.598696
    112          6           0       -4.354422   -2.992401    1.777883
    113          6           0       -3.604915   -4.145447    2.317472
    114          6           0       -2.539399   -4.312912    1.420175
    115          6           0       -2.607734   -3.320788    0.405039
    116          6           0       -3.911959   -4.850255    3.515420
    117          6           0       -1.366341   -5.096782    1.106865
    118          8           0       -0.859153   -6.121234    1.561820
    119          6           0       -0.539935   -4.340944   -0.021044
    120          6           0       -0.175494   -5.344163   -1.080868
    121          8           0       -1.058411   -5.883760   -1.770731
    122          8           0        1.159009   -5.338789   -1.252446
    123          6           0        1.568376   -6.309979   -2.301736
    124          1           0       -1.549595    1.788248   -3.116624
    125          1           0       -7.182439    2.131593   -0.439914
    126          1           0       -5.866069   -2.883696    3.102512
    127          1           0        0.989059   -2.221270   -1.755300
    128          1           0        0.234949   -0.066197   -3.405775
    129          1           0        1.089483   -0.226987   -0.544988
    130          1           0        0.016715    1.136142   -0.926242
    131          1           0        1.521318    1.008835   -1.786255
    132          1           0       -0.732388   -2.082573   -4.241897
    133          1           0       -0.558479   -3.671761   -3.411576
    134          1           0        2.046616   -2.591607   -3.804374
    135          1           0        1.135162   -2.061971   -5.173173
    136          1           0       -2.580993    3.056724   -4.446261
    137          1           0       -3.735825    4.289853   -4.065582
    138          1           0       -4.179908    3.090146   -5.302625
    139          1           0       -5.903772    4.797974   -4.196923
    140          1           0       -7.737244    4.568916   -4.377512
    141          1           0       -6.551554    3.434690   -5.085380
    142          1           0       -8.506071    0.673683    1.179383
    143          1           0       -7.092951   -0.522201    3.509564
    144          1           0       -8.456017    2.414904    2.626718
    145          1           0       -6.677216    2.480780    2.366833
    146          1           0       -7.295688    1.578668    3.654986
    147          1           0       -9.473599   -1.061776    2.866759
    148          1           0       -8.474773   -2.452638    3.244682
    149          1           0       -9.510757   -1.387639    0.719877
    150          1           0       -9.508644   -3.103331    1.268704
    151          1           0       -8.016725   -2.319519    0.580120
    152          1           0       -3.805042   -5.903624    3.293014
    153          1           0       -4.914594   -4.617314    3.867888
    154          1           0       -3.140433   -4.451509    4.179513
    155          1           0        0.341614   -3.908024    0.453324
    156          1           0        2.304674   -6.979998   -1.847168
    157          1           0        1.905809   -5.698417   -3.159568
    158          1           0        0.823902   -7.017420   -2.647772
 ---------------------------------------------------------------------

 SCF Done:  E(RCAM-B3LYP) =  -4069.81212972     A.U. after   19 cycles

 Excitation energies and oscillator strengths:

 Excited State   1:      Singlet-A      1.6322 eV  759.62 nm  f=0.0011  <S**2>=0.000
     309 -> 315        0.11815
     310 -> 316       -0.11232
     311 -> 313        0.49492
     312 -> 314       -0.47865
 This state for optimization and/or second-order correction.
 Total Energy, E(TD-HF/TD-DFT) =  -4069.75214787
 Copying the excited state density for this state as the 1-particle RhoCI density.

 Excited State   2:      Singlet-A      1.7128 eV  723.88 nm  f=0.6656  <S**2>=0.000
     309 -> 315        0.12905
     310 -> 316        0.13113
     311 -> 313        0.47503
     312 -> 314        0.49097

 Excited State   3:      Singlet-A      2.1136 eV  586.61 nm  f=0.0019  <S**2>=0.000
     312 -> 313        0.69931

 Excited State   4:      Singlet-A      2.1749 eV  570.07 nm  f=0.0449  <S**2>=0.000
     309 -> 313        0.29918
     310 -> 314        0.57138
     311 -> 315       -0.12132
     312 -> 316       -0.23480

 Excited State   5:      Singlet-A      2.1953 eV  564.77 nm  f=0.1374  <S**2>=0.000
     309 -> 313        0.56073
     310 -> 314       -0.29636
     311 -> 315       -0.24632
     312 -> 316        0.13275

 The electronic state is 1-A.
 Alpha  occ. eigenvalues --  -46.88096 -46.87301 -19.26675 -19.25148 -19.19444
 Alpha  occ. eigenvalues --  -19.19125 -19.18422 -19.18415 -19.18276 -19.17450
 Alpha  occ. eigenvalues --  -14.42794 -14.42147 -14.41760 -14.40996 -14.39714
 Alpha  occ. eigenvalues --  -14.38994 -14.38923 -14.38219 -10.39431 -10.38136
 Alpha  occ. eigenvalues --  -10.35761 -10.35102 -10.34654 -10.33584 -10.32047
 Alpha  occ. eigenvalues --  -10.31784 -10.31329 -10.31165 -10.30924 -10.30919
 Alpha  occ. eigenvalues --  -10.30811 -10.30602 -10.30529 -10.30198 -10.30017
 Alpha  occ. eigenvalues --  -10.29959 -10.29953 -10.29850 -10.29601 -10.29525
 Alpha  occ. eigenvalues --  -10.29256 -10.29126 -10.29063 -10.29031 -10.28743
 Alpha  occ. eigenvalues --  -10.28555 -10.28316 -10.28131 -10.28130 -10.28118
 Alpha  occ. eigenvalues --  -10.27985 -10.27920 -10.27904 -10.27883 -10.27791
 Alpha  occ. eigenvalues --  -10.27727 -10.27668 -10.27627 -10.27490 -10.27465
 Alpha  occ. eigenvalues --  -10.27351 -10.27288 -10.27264 -10.27103 -10.27100
 Alpha  occ. eigenvalues --  -10.27036 -10.26762 -10.26590 -10.26355 -10.26327
 Alpha  occ. eigenvalues --  -10.26266 -10.26204 -10.26130 -10.26018 -10.25957
 Alpha  occ. eigenvalues --  -10.25918 -10.25630 -10.25600 -10.25531 -10.25156
 Alpha  occ. eigenvalues --  -10.25154 -10.25093 -10.24826 -10.24514 -10.24464
 Alpha  occ. eigenvalues --  -10.24315  -3.16821  -3.16052  -1.91702  -1.91291
 Alpha  occ. eigenvalues --   -1.91132  -1.90934  -1.90523  -1.90359  -1.17019
 Alpha  occ. eigenvalues --   -1.15578  -1.08876  -1.08010  -1.07522  -1.07040
 Alpha  occ. eigenvalues --   -1.06673  -1.06035  -1.04953  -1.04118  -1.04083
 Alpha  occ. eigenvalues --   -1.03563  -1.03296  -1.02742  -1.02680  -1.01742
 Alpha  occ. eigenvalues --   -0.92324  -0.91475  -0.89796  -0.89653  -0.89145
 Alpha  occ. eigenvalues --   -0.88812  -0.88553  -0.88163  -0.88061  -0.87904
 Alpha  occ. eigenvalues --   -0.87622  -0.87432  -0.87319  -0.86823  -0.85428
 Alpha  occ. eigenvalues --   -0.84664  -0.84184  -0.83547  -0.83286  -0.83044
 Alpha  occ. eigenvalues --   -0.82659  -0.82303  -0.81950  -0.81057  -0.80949
 Alpha  occ. eigenvalues --   -0.79980  -0.79134  -0.78312  -0.77578  -0.77303
 Alpha  occ. eigenvalues --   -0.76831  -0.76515  -0.76287  -0.75476  -0.75168
 Alpha  occ. eigenvalues --   -0.74458  -0.73093  -0.72348  -0.72007  -0.71239
 Alpha  occ. eigenvalues --   -0.70133  -0.69491  -0.69282  -0.68519  -0.67988
 Alpha  occ. eigenvalues --   -0.67717  -0.67209  -0.66860  -0.65728  -0.65207
 Alpha  occ. eigenvalues --   -0.64994  -0.64814  -0.64545  -0.64398  -0.64165
 Alpha  occ. eigenvalues --   -0.63847  -0.62653  -0.61587  -0.60760  -0.60223
 Alpha  occ. eigenvalues --   -0.60022  -0.59414  -0.59310  -0.58834  -0.58584
 Alpha  occ. eigenvalues --   -0.58033  -0.57882  -0.57611  -0.56995  -0.56713
 Alpha  occ. eigenvalues --   -0.56606  -0.56379  -0.55866  -0.55852  -0.55634
 Alpha  occ. eigenvalues --   -0.55296  -0.55033  -0.54891  -0.54744  -0.54423
 Alpha  occ. eigenvalues --   -0.53976  -0.53654  -0.53625  -0.53551  -0.53239
 Alpha  occ. eigenvalues --   -0.53158  -0.52885  -0.52774  -0.52653  -0.52415
 Alpha  occ. eigenvalues --   -0.52402  -0.52163  -0.52055  -0.52027  -0.51523
 Alpha  occ. eigenvalues --   -0.51508  -0.51328  -0.50933  -0.50767  -0.50368
 Alpha  occ. eigenvalues --   -0.50241  -0.50223  -0.49929  -0.49735  -0.49598
 Alpha  occ. eigenvalues --   -0.49559  -0.49460  -0.49205  -0.48978  -0.48820
 Alpha  occ. eigenvalues --   -0.48762  -0.48717  -0.48690  -0.48143  -0.48071
 Alpha  occ. eigenvalues --   -0.48021  -0.47944  -0.47621  -0.47267  -0.47120
 Alpha  occ. eigenvalues --   -0.46990  -0.46811  -0.46634  -0.46514  -0.46375
 Alpha  occ. eigenvalues --   -0.46181  -0.46115  -0.45927  -0.45642  -0.45461
 Alpha  occ. eigenvalues --   -0.45377  -0.44926  -0.44872  -0.44866  -0.44502
 Alpha  occ. eigenvalues --   -0.44438  -0.44360  -0.44174  -0.44074  -0.44010
 Alpha  occ. eigenvalues --   -0.43834  -0.43771  -0.43703  -0.43507  -0.43387
 Alpha  occ. eigenvalues --   -0.43285  -0.43092  -0.42917  -0.42650  -0.42538
 Alpha  occ. eigenvalues --   -0.42310  -0.42255  -0.42012  -0.41910  -0.41680
 Alpha  occ. eigenvalues --   -0.41584  -0.41459  -0.41266  -0.41239  -0.41189
 Alpha  occ. eigenvalues --   -0.41102  -0.40844  -0.40810  -0.40603  -0.40386
 Alpha  occ. eigenvalues --   -0.40366  -0.40130  -0.39695  -0.39571  -0.39147
 Alpha  occ. eigenvalues --   -0.38749  -0.38259  -0.38022  -0.37679  -0.37619
 Alpha  occ. eigenvalues --   -0.37301  -0.37045  -0.36922  -0.36831  -0.36517
 Alpha  occ. eigenvalues --   -0.36125  -0.35566  -0.34619  -0.34173  -0.33875
 Alpha  occ. eigenvalues --   -0.33545  -0.33072  -0.32722  -0.31653  -0.31388
 Alpha  occ. eigenvalues --   -0.30972  -0.30566  -0.30283  -0.29771  -0.29634
 Alpha  occ. eigenvalues --   -0.29317  -0.28978  -0.28809  -0.24423  -0.23635
 Alpha  occ. eigenvalues --   -0.21479  -0.20766
 Alpha virt. eigenvalues --   -0.09115  -0.08417  -0.02080  -0.01333  -0.00415
 Alpha virt. eigenvalues --    0.00309   0.01920   0.02671   0.03363   0.03875
 Alpha virt. eigenvalues --    0.04148   0.04557   0.04767   0.05488   0.06050

 Mulliken charges:
               1
     1  Mg   0.791412
     2  C   -0.005544
     3  C   -0.094652
     4  C   -0.043673
     5  C   -0.062920
     6  N   -0.252966
     7  C   -0.059875
     8  C    0.015888
     9  C   -0.086447
    10  C    0.040716
    11  C    0.104989
    12  C   -0.009845
    13  C   -0.075396
    14  H    0.043841
    15  N   -0.427541
    16  C    0.161482
    17  C   -0.180310
    18  C   -0.004543
    19  C    0.149152
    20  C    0.110667
    21  C    0.011976
    22  O   -0.248015
    23  C    0.063170
    24  N   -0.336814
    25  C    0.040152
    26  C   -0.027926
    27  C   -0.024397
    28  C    0.075987
    29  C    0.075889
    30  C    0.034783
    31  C   -0.005112
    32  N   -0.308467
    33  C    0.082036
    34  C   -0.168248
    35  C    0.010414
    36  C    0.077602
    37  C    0.126416
    38  C    0.047607
    39  O   -0.184191
    40  C   -0.007777
    41  C    0.214471
    42  O   -0.248591
    43  O   -0.304638
    44  C    0.164319
    45  H   -0.018296
    46  H   -0.016376
    47  H   -0.040437
    48  H    0.000219
    49  H   -0.005126
    50  H    0.026405
    51  H    0.018345
    52  H    0.017265
    53  H    0.012103
    54  H    0.080959
    55  H    0.020418
    56  H    0.018546
    57  H    0.005603
    58  H    0.028036
    59  H    0.036542
    60  H    0.037941
    61  H    0.036861
    62  H    0.028126
    63  H    0.017419
    64  H    0.010119
    65  H    0.023911
    66  H    0.012567
    67  H    0.005273
    68  H    0.007002
    69  H    0.005242
    70  H    0.009402
    71  H    0.019012
    72  H    0.029796
    73  H    0.050894
    74  H    0.009879
    75  H    0.046627
    76  H    0.035902
    77  H    0.042770
    78  H    0.045576
    79  H    0.035805
    80  Mg   0.836137
    81  C   -0.019525
    82  C   -0.087866
    83  C   -0.045865
    84  C   -0.066744
    85  N   -0.254055
    86  C   -0.050974
    87  C   -0.020004
    88  C   -0.073790
    89  C    0.042531
    90  C    0.028336
    91  C    0.066911
    92  C   -0.070138
    93  H    0.027989
    94  N   -0.423337
    95  C    0.162335
    96  C   -0.175051
    97  C   -0.008488
    98  C    0.151895
    99  C    0.100168
   100  C    0.015185
   101  O   -0.254005
   102  C    0.061410
   103  N   -0.350416
   104  C    0.037102
   105  C   -0.019458
   106  C   -0.034750
   107  C    0.089616
   108  C    0.073933
   109  C    0.034966
   110  C   -0.007531
   111  N   -0.324370
   112  C    0.079345
   113  C   -0.164369
   114  C    0.003525
   115  C    0.095172
   116  C    0.131675
   117  C    0.041568
   118  O   -0.185012
   119  C    0.005397
   120  C    0.204303
   121  O   -0.257602
   122  O   -0.281641
   123  C    0.158548
   124  H   -0.021255
   125  H   -0.016540
   126  H   -0.041494
   127  H    0.017811
   128  H   -0.007071
   129  H    0.062247
   130  H    0.030995
   131  H    0.060361
   132  H    0.010202
   133  H    0.037527
   134  H    0.010696
   135  H    0.013762
   136  H    0.005479
   137  H    0.024224
   138  H    0.038369
   139  H    0.037468
   140  H    0.035516
   141  H    0.033093
   142  H    0.013746
   143  H    0.011420
   144  H    0.024401
   145  H    0.012098
   146  H    0.004403
   147  H    0.005543
   148  H    0.003204
   149  H    0.010654
   150  H    0.017333
   151  H    0.030626
   152  H    0.046149
   153  H    0.007382
   154  H    0.046576
   155  H    0.052654
   156  H    0.048860
   157  H    0.042726
   158  H    0.048364
 Sum of Mulliken charges =  -0.00000

 Dipole moment (field-independent basis, Debye):
    X=              4.1922    Y=              5.8561    Z=             -3.8860  Tot=              8.1835
 Quadrupole moment (field-independent basis, Debye-Ang):
   XX=           -506.0673   YY=           -560.3997   ZZ=           -456.7801
   XY=             19.4530   XZ=            -38.9676   YZ=              1.2481

 Normal termination of Gaussian 16 at Thu Sep  9 05:15:18 2021.
