 Gaussian 16, Revision A.03,
 Gaussian 16:  ES64L-G16RevA.03 25-Dec-2016

 -----------------------------------
 #p cam-b3lyp/Def2SVP td=(nstates=5)
 -----------------------------------

 --------------------------------
 TDDFT excited states in gaussian
 --------------------------------
 Symbolic Z-matrix:
 Charge =  0 Multiplicity = 1

                         Standard orientation:
 ---------------------------------------------------------------------
 Center     Atomic      Atomic             Coordinates (Angstroms)
 Number     Number       Type             X           Y           Z
 ---------------------------------------------------------------------
      1         12           0       15.962070   -0.639077   -0.014591
      2          6           0       16.133105    2.795120   -1.009203
      3          6           0       16.845027    0.379379    3.120086
      4          6           0       16.260974   -3.695489    0.776372
      5          6           0       16.212934   -1.475462   -3.388489
      6          7           0       16.403991    1.360945    0.825209
      7          6           0       16.375722    2.603187    0.352760
      8          6           0       16.553539    3.688195    1.456623
      9          6           0       17.318649    2.813630    2.548291
     10          6           0       16.798858    1.438984    2.166074
     11          6           0       18.835264    2.827737    2.386477
     12          6           0       15.182342    4.212673    2.001117
     13          6           0       15.258174    5.493360    2.837445
     14          1           0       14.174519    6.459427    2.738683
     15          7           0       15.997459   -1.505559    1.760460
     16          6           0       16.368245   -0.936038    2.932403
     17          6           0       16.221873   -1.988153    3.961146
     18          6           0       15.917833   -3.268066    3.262951
     19          6           0       16.074494   -2.874503    1.886018
     20          6           0       16.321608   -1.720694    5.431611
     21          6           0       15.555484   -4.632355    3.758482
     22          8           0       15.560186   -5.657119    2.994015
     23          6           0       15.277021   -4.754865    5.200873
     24          7           0       16.423031   -2.352112   -1.114890
     25          6           0       16.429825   -3.560052   -0.540591
     26          6           0       16.504703   -4.651905   -1.566354
     27          6           0       16.302112   -3.942623   -2.982556
     28          6           0       16.223179   -2.472811   -2.501212
     29          6           0       17.806408   -5.465078   -1.584420
     30          6           0       15.165414   -4.485375   -3.884640
     31          6           0       13.823380   -4.186634   -3.254722
     32          7           0       15.964245    0.437315   -1.899378
     33          6           0       16.102715   -0.110370   -3.182943
     34          6           0       16.153491    1.017881   -4.130856
     35          6           0       16.057071    2.151434   -3.326116
     36          6           0       15.979098    1.757093   -1.959841
     37          6           0       16.332597    0.916106   -5.538690
     38          6           0       16.026576    3.604804   -3.300748
     39          8           0       15.966126    4.486004   -4.159425
     40          6           0       16.197291    4.083292   -1.791532
     41          6           0       15.143525    5.122718   -1.522313
     42          8           0       13.933446    4.818001   -1.507352
     43          8           0       15.730788    6.250424   -1.093427
     44          6           0       14.738699    7.313289   -0.780010
     45          1           0       17.343233    0.551324    4.076207
     46          1           0       16.258253   -4.765261    0.995501
     47          1           0       16.205295   -1.661919   -4.463955
     48          1           0       17.168983    4.538731    1.162955
     49          1           0       17.009738    3.067117    3.562214
     50          1           0       19.133242    3.333202    1.467981
     51          1           0       19.134773    1.779874    2.358730
     52          1           0       19.314961    3.253233    3.268305
     53          1           0       14.806610    3.520812    2.754917
     54          1           0       14.472804    4.356209    1.185471
     55          1           0       16.222841    5.988310    2.721899
     56          1           0       15.220457    5.216040    3.890949
     57          1           0       16.715734   -0.725131    5.631767
     58          1           0       17.078679   -2.397229    5.827659
     59          1           0       15.374356   -1.888335    5.944390
     60          1           0       16.153816   -4.436221    5.765004
     61          1           0       14.948855   -5.781797    5.357612
     62          1           0       14.474963   -4.065195    5.465462
     63          1           0       15.712113   -5.383941   -1.416850
     64          1           0       17.193378   -4.013130   -3.606534
     65          1           0       17.655077   -6.536757   -1.452862
     66          1           0       18.464163   -5.065421   -0.813107
     67          1           0       18.415442   -5.333079   -2.478328
     68          1           0       15.241146   -5.568028   -3.979891
     69          1           0       15.174297   -4.062620   -4.889354
     70          1           0       13.696398   -5.008544   -2.551038
     71          1           0       13.037805   -4.195306   -4.011034
     72          1           0       13.852087   -3.263404   -2.675664
     73          1           0       15.626460    1.614736   -5.987306
     74          1           0       16.158684   -0.101606   -5.887431
     75          1           0       17.376035    1.216823   -5.631760
     76          1           0       17.204588    4.489133   -1.703394
     77          1           0       15.009197    8.188958   -1.370154
     78          1           0       14.728847    7.417749    0.305069
     79          1           0       13.719447    7.138569   -1.126329
     80         12           0      -15.789863   -0.881897    0.153245
     81          6           0      -17.376146    2.297090   -0.353575
     82          6           0      -13.560677    0.721095    2.177040
     83          6           0      -14.107504   -3.569861    0.262445
     84          6           0      -17.393443   -1.986649   -2.737041
     85          7           0      -15.597624    1.237324    0.756751
     86          6           0      -16.294711    2.344552    0.550693
     87          6           0      -15.854939    3.552698    1.420482
     88          6           0      -14.342010    3.100518    1.712763
     89          6           0      -14.508307    1.588368    1.577109
     90          6           0      -13.358374    3.569769    0.653704
     91          6           0      -16.686092    3.668730    2.746271
     92          6           0      -16.523956    4.994588    3.492988
     93          1           0      -17.681860    5.546442    4.190963
     94          7           0      -14.398376   -1.474745    1.438105
     95          6           0      -13.601195   -0.690442    2.193524
     96          6           0      -12.737106   -1.607621    2.952661
     97          6           0      -12.976391   -2.991913    2.461547
     98          6           0      -13.840365   -2.724256    1.329294
     99          6           0      -11.858153   -1.151052    4.080672
    100          6           0      -12.495553   -4.333483    2.925437
    101          8           0      -12.636800   -5.385002    2.206288
    102          6           0      -11.771414   -4.364022    4.204573
    103          7           0      -15.584473   -2.471492   -1.170893
    104          6           0      -14.831660   -3.540299   -0.856495
    105          6           0      -15.053517   -4.670186   -1.833492
    106          6           0      -16.297579   -4.222250   -2.733070
    107          6           0      -16.533526   -2.810205   -2.153538
    108          6           0      -13.868665   -5.010467   -2.737226
    109          6           0      -17.501121   -5.201355   -2.807324
    110          6           0      -18.181226   -5.286306   -1.459876
    111          7           0      -17.281426   -0.093027   -1.196189
    112          6           0      -17.791983   -0.710928   -2.358776
    113          6           0      -18.697139    0.260514   -3.006401
    114          6           0      -18.632055    1.393559   -2.181490
    115          6           0      -17.733167    1.152982   -1.107432
    116          6           0      -19.403844    0.054863   -4.224767
    117          6           0      -19.111232    2.742213   -1.980957
    118          8           0      -19.956098    3.453539   -2.523115
    119          6           0      -18.222553    3.432567   -0.858433
    120          6           0      -19.147928    4.104840    0.118419
    121          8           0      -19.920017    3.431599    0.823563
    122          8           0      -18.817168    5.405460    0.215162
    123          6           0      -19.699897    6.112550    1.180889
    124          1           0      -12.678738    1.159941    2.644460
    125          1           0      -13.636380   -4.554290    0.311640
    126          1           0      -18.006768   -2.290197   -3.588143
    127          1           0      -15.865380    4.507995    0.909525
    128          1           0      -14.039977    3.361735    2.723662
    129          1           0      -13.858756    4.030732   -0.184911
    130          1           0      -12.824170    2.684147    0.335351
    131          1           0      -12.609078    4.229232    1.100932
    132          1           0      -16.268115    2.980620    3.492288
    133          1           0      -17.726253    3.483008    2.561368
    134          1           0      -16.048288    5.762512    2.870902
    135          1           0      -15.822446    4.845052    4.317323
    136          1           0      -11.766365   -0.058117    4.102082
    137          1           0      -10.845118   -1.504428    3.859857
    138          1           0      -12.169954   -1.553226    5.046948
    139          1           0      -10.900140   -3.716398    4.141866
    140          1           0      -11.586986   -5.420102    4.410838
    141          1           0      -12.418993   -3.945828    4.983264
    142          1           0      -15.307084   -5.586250   -1.314238
    143          1           0      -16.010770   -4.085837   -3.786150
    144          1           0      -13.547600   -6.066196   -2.657002
    145          1           0      -13.051283   -4.344873   -2.493513
    146          1           0      -14.022662   -4.809206   -3.795983
    147          1           0      -17.154499   -6.210265   -3.044199
    148          1           0      -18.234499   -4.928108   -3.558650
    149          1           0      -17.571749   -6.018301   -0.921541
    150          1           0      -19.207298   -5.631480   -1.569746
    151          1           0      -18.106533   -4.334830   -0.920638
    152          1           0      -20.405815    0.432933   -4.071129
    153          1           0      -19.413441   -0.996045   -4.506302
    154          1           0      -18.796913    0.656884   -4.906283
    155          1           0      -17.563295    4.145593   -1.354996
    156          1           0      -20.144733    6.958117    0.647202
    157          1           0      -19.061123    6.347144    2.053057
    158          1           0      -20.584976    5.590840    1.525714
 ---------------------------------------------------------------------

 SCF Done:  E(RCAM-B3LYP) =  -4069.81178033     A.U. after   19 cycles

 Excitation energies and oscillator strengths:

 Excited State   1:      Singlet-A      1.6754 eV  740.01 nm  f=0.2943  <S**2>=0.000
     310 -> 316       -0.17083
     311 -> 314       -0.12155
     312 -> 313        0.67520
     310 <- 316       -0.10297
 This state for optimization and/or second-order correction.
 Total Energy, E(TD-HF/TD-DFT) =  -4069.75020924
 Copying the excited state density for this state as the 1-particle RhoCI density.

 Excited State   2:      Singlet-A      1.6800 eV  738.01 nm  f=0.4852  <S**2>=0.000
     309 -> 315        0.17282
     311 -> 314        0.67484
     312 -> 313        0.12151
     309 <- 315        0.10348

 Excited State   3:      Singlet-A      2.1861 eV  567.15 nm  f=0.0951  <S**2>=0.000
     310 -> 313        0.64211
     312 -> 316        0.27294

 Excited State   4:      Singlet-A      2.1926 eV  565.48 nm  f=0.1050  <S**2>=0.000
     309 -> 314        0.64032
     311 -> 315       -0.27816

 Excited State   5:      Singlet-A      3.0624 eV  404.86 nm  f=0.0000  <S**2>=0.000
     312 -> 314        0.70710

 The electronic state is 1-A.
 Alpha  occ. eigenvalues --  -46.87814 -46.87660 -19.26351 -19.26305 -19.19162
 Alpha  occ. eigenvalues --  -19.19041 -19.18831 -19.18714 -19.18187 -19.18052
 Alpha  occ. eigenvalues --  -14.42497 -14.42467 -14.41466 -14.41359 -14.39420
 Alpha  occ. eigenvalues --  -14.39352 -14.38604 -14.38600 -10.39100 -10.39092
 Alpha  occ. eigenvalues --  -10.35465 -10.35391 -10.34407 -10.34229 -10.31758
 Alpha  occ. eigenvalues --  -10.31701 -10.31423 -10.31309 -10.31023 -10.30927
 Alpha  occ. eigenvalues --  -10.30587 -10.30524 -10.30398 -10.30361 -10.30223
 Alpha  occ. eigenvalues --  -10.30141 -10.29937 -10.29894 -10.29648 -10.29437
 Alpha  occ. eigenvalues --  -10.29401 -10.29271 -10.28768 -10.28718 -10.28655
 Alpha  occ. eigenvalues --  -10.28561 -10.28405 -10.28382 -10.28139 -10.28135
 Alpha  occ. eigenvalues --  -10.28001 -10.27810 -10.27744 -10.27669 -10.27601
 Alpha  occ. eigenvalues --  -10.27518 -10.27516 -10.27499 -10.27484 -10.27467
 Alpha  occ. eigenvalues --  -10.27464 -10.27464 -10.27421 -10.27375 -10.27176
 Alpha  occ. eigenvalues --  -10.27051 -10.26726 -10.26693 -10.26427 -10.26414
 Alpha  occ. eigenvalues --  -10.26251 -10.26198 -10.26139 -10.26036 -10.26022
 Alpha  occ. eigenvalues --  -10.25935 -10.25859 -10.25852 -10.25449 -10.25395
 Alpha  occ. eigenvalues --  -10.24873 -10.24850 -10.24804 -10.24733 -10.24702
 Alpha  occ. eigenvalues --  -10.24690  -3.16556  -3.16410  -1.91438  -1.91293
 Alpha  occ. eigenvalues --   -1.91025  -1.90881  -1.90867  -1.90718  -1.16653
 Alpha  occ. eigenvalues --   -1.16645  -1.08660  -1.08645  -1.07233  -1.06966
 Alpha  occ. eigenvalues --   -1.06947  -1.06663  -1.04598  -1.04495  -1.03777
 Alpha  occ. eigenvalues --   -1.03663  -1.03251  -1.03039  -1.02428  -1.02111
 Alpha  occ. eigenvalues --   -0.91990  -0.91987  -0.89536  -0.89495  -0.89206
 Alpha  occ. eigenvalues --   -0.89150  -0.88303  -0.88220  -0.87887  -0.87794
 Alpha  occ. eigenvalues --   -0.87690  -0.87684  -0.87291  -0.87120  -0.85000
 Alpha  occ. eigenvalues --   -0.84999  -0.83952  -0.83876  -0.82984  -0.82931
 Alpha  occ. eigenvalues --   -0.82667  -0.82652  -0.81604  -0.81597  -0.80614
 Alpha  occ. eigenvalues --   -0.80443  -0.78814  -0.78635  -0.77236  -0.77144
 Alpha  occ. eigenvalues --   -0.76952  -0.76898  -0.75941  -0.75838  -0.74914
 Alpha  occ. eigenvalues --   -0.74802  -0.72791  -0.72699  -0.71689  -0.71580
 Alpha  occ. eigenvalues --   -0.69922  -0.69758  -0.68891  -0.68827  -0.67658
 Alpha  occ. eigenvalues --   -0.67602  -0.67239  -0.67200  -0.65305  -0.65272
 Alpha  occ. eigenvalues --   -0.64871  -0.64770  -0.64654  -0.64638  -0.64286
 Alpha  occ. eigenvalues --   -0.64204  -0.62316  -0.62279  -0.60459  -0.60339
 Alpha  occ. eigenvalues --   -0.59822  -0.59796  -0.59004  -0.58993  -0.58521
 Alpha  occ. eigenvalues --   -0.58426  -0.57603  -0.57555  -0.57326  -0.57237
 Alpha  occ. eigenvalues --   -0.56327  -0.56204  -0.55998  -0.55887  -0.55537
 Alpha  occ. eigenvalues --   -0.55452  -0.55356  -0.55248  -0.54541  -0.54488
 Alpha  occ. eigenvalues --   -0.53913  -0.53912  -0.53316  -0.53240  -0.53228
 Alpha  occ. eigenvalues --   -0.53142  -0.52933  -0.52903  -0.52774  -0.52667
 Alpha  occ. eigenvalues --   -0.52454  -0.52402  -0.51931  -0.51886  -0.51658
 Alpha  occ. eigenvalues --   -0.51635  -0.51213  -0.51202  -0.50589  -0.50475
 Alpha  occ. eigenvalues --   -0.50047  -0.49979  -0.49936  -0.49867  -0.49532
 Alpha  occ. eigenvalues --   -0.49487  -0.49232  -0.49202  -0.49114  -0.49104
 Alpha  occ. eigenvalues --   -0.48611  -0.48559  -0.48477  -0.48463  -0.48376
 Alpha  occ. eigenvalues --   -0.48338  -0.47712  -0.47594  -0.47314  -0.47118
 Alpha  occ. eigenvalues --   -0.46814  -0.46709  -0.46574  -0.46553  -0.46376
 Alpha  occ. eigenvalues --   -0.46271  -0.46179  -0.46086  -0.45840  -0.45823
 Alpha  occ. eigenvalues --   -0.45217  -0.45208  -0.44595  -0.44524  -0.44515
 Alpha  occ. eigenvalues --   -0.44476  -0.44161  -0.44127  -0.44106  -0.44078
 Alpha  occ. eigenvalues --   -0.44037  -0.43939  -0.43554  -0.43513  -0.43403
 Alpha  occ. eigenvalues --   -0.43386  -0.43044  -0.42931  -0.42902  -0.42717
 Alpha  occ. eigenvalues --   -0.42672  -0.42554  -0.42026  -0.41965  -0.41721
 Alpha  occ. eigenvalues --   -0.41670  -0.41552  -0.41459  -0.41158  -0.40989
 Alpha  occ. eigenvalues --   -0.40887  -0.40840  -0.40722  -0.40698  -0.40587
 Alpha  occ. eigenvalues --   -0.40493  -0.40254  -0.40227  -0.39456  -0.39426
 Alpha  occ. eigenvalues --   -0.38485  -0.38350  -0.37768  -0.37654  -0.37337
 Alpha  occ. eigenvalues --   -0.37282  -0.37266  -0.37200  -0.36772  -0.36732
 Alpha  occ. eigenvalues --   -0.36217  -0.36210  -0.34303  -0.34254  -0.33863
 Alpha  occ. eigenvalues --   -0.33790  -0.33204  -0.33176  -0.31361  -0.31273
 Alpha  occ. eigenvalues --   -0.31053  -0.30973  -0.30047  -0.29956  -0.29466
 Alpha  occ. eigenvalues --   -0.29339  -0.29327  -0.29212  -0.24098  -0.24036
 Alpha  occ. eigenvalues --   -0.21145  -0.21117
 Alpha virt. eigenvalues --   -0.08792  -0.08791  -0.01767  -0.01684  -0.00075
 Alpha virt. eigenvalues --   -0.00028   0.02183   0.02207   0.03103   0.03225
 Alpha virt. eigenvalues --    0.04700   0.04730   0.05078   0.05164   0.06157

 Mulliken charges:
               1
     1  Mg   0.838645
     2  C   -0.002964
     3  C   -0.094130
     4  C   -0.045845
     5  C   -0.063935
     6  N   -0.256753
     7  C   -0.052493
     8  C   -0.014001
     9  C   -0.087001
    10  C    0.046297
    11  C    0.104808
    12  C    0.053474
    13  C   -0.071784
    14  H    0.036056
    15  N   -0.433124
    16  C    0.168423
    17  C   -0.177149
    18  C   -0.003998
    19  C    0.148699
    20  C    0.110175
    21  C    0.012281
    22  O   -0.249594
    23  C    0.062479
    24  N   -0.341124
    25  C    0.041227
    26  C   -0.028161
    27  C   -0.023989
    28  C    0.074846
    29  C    0.076154
    30  C    0.035115
    31  C   -0.004503
    32  N   -0.310462
    33  C    0.080405
    34  C   -0.169716
    35  C    0.008350
    36  C    0.082983
    37  C    0.127315
    38  C    0.046119
    39  O   -0.188446
    40  C   -0.005355
    41  C    0.212891
    42  O   -0.257143
    43  O   -0.304781
    44  C    0.157701
    45  H   -0.017598
    46  H   -0.016813
    47  H   -0.041473
    48  H    0.000944
    49  H   -0.004050
    50  H    0.025485
    51  H    0.016469
    52  H    0.016667
    53  H    0.011184
    54  H    0.044095
    55  H    0.017898
    56  H    0.017943
    57  H    0.005868
    58  H    0.026850
    59  H    0.039525
    60  H    0.037361
    61  H    0.035671
    62  H    0.031467
    63  H    0.016564
    64  H    0.009484
    65  H    0.023239
    66  H    0.012552
    67  H    0.004776
    68  H    0.006399
    69  H    0.004741
    70  H    0.008790
    71  H    0.018147
    72  H    0.028952
    73  H    0.047558
    74  H    0.009127
    75  H    0.046029
    76  H    0.035167
    77  H    0.042954
    78  H    0.046390
    79  H    0.053647
    80  Mg   0.837810
    81  C   -0.016815
    82  C   -0.087791
    83  C   -0.045488
    84  C   -0.064875
    85  N   -0.254578
    86  C   -0.049850
    87  C   -0.015076
    88  C   -0.090513
    89  C    0.045774
    90  C    0.114357
    91  C    0.062527
    92  C   -0.077902
    93  H    0.034877
    94  N   -0.423471
    95  C    0.162914
    96  C   -0.174582
    97  C   -0.007805
    98  C    0.152122
    99  C    0.099353
   100  C    0.015588
   101  O   -0.253156
   102  C    0.061201
   103  N   -0.350029
   104  C    0.037527
   105  C   -0.019842
   106  C   -0.034811
   107  C    0.088906
   108  C    0.073634
   109  C    0.034726
   110  C   -0.007675
   111  N   -0.324105
   112  C    0.078443
   113  C   -0.163142
   114  C    0.002234
   115  C    0.096190
   116  C    0.131501
   117  C    0.042386
   118  O   -0.187876
   119  C    0.000893
   120  C    0.211253
   121  O   -0.251026
   122  O   -0.305621
   123  C    0.152031
   124  H   -0.019611
   125  H   -0.015542
   126  H   -0.040455
   127  H   -0.000633
   128  H   -0.004323
   129  H    0.022477
   130  H    0.014472
   131  H    0.016336
   132  H    0.013908
   133  H    0.037663
   134  H    0.020812
   135  H    0.019591
   136  H    0.008778
   137  H    0.026211
   138  H    0.039775
   139  H    0.038292
   140  H    0.036404
   141  H    0.033865
   142  H    0.014396
   143  H    0.012443
   144  H    0.025164
   145  H    0.011689
   146  H    0.005703
   147  H    0.006277
   148  H    0.003645
   149  H    0.010934
   150  H    0.017919
   151  H    0.030098
   152  H    0.045988
   153  H    0.008508
   154  H    0.046961
   155  H    0.035057
   156  H    0.043915
   157  H    0.049497
   158  H    0.053566
 Sum of Mulliken charges =  -0.00000

 Dipole moment (field-independent basis, Debye):
    X=              6.0265    Y=              0.4493    Z=              5.9922  Tot=              8.5104
 Quadrupole moment (field-independent basis, Debye-Ang):
   XX=           -586.7696   YY=           -516.3619   ZZ=           -476.0460
   XY=              5.1017   XZ=             40.7047   YZ=             58.3172

 Normal termination of Gaussian 16 at Sun Sep 12 20:38:28 2021.
