 Gaussian 16, Revision A.03,
 Gaussian 16:  ES64L-G16RevA.03 25-Dec-2016

 -----------------------------------
 #p cam-b3lyp/Def2SVP td=(nstates=5)
 -----------------------------------

 --------------------------------
 TDDFT excited states in gaussian
 --------------------------------
 Symbolic Z-matrix:
 Charge =  0 Multiplicity = 1

                         Standard orientation:
 ---------------------------------------------------------------------
 Center     Atomic      Atomic             Coordinates (Angstroms)
 Number     Number       Type             X           Y           Z
 ---------------------------------------------------------------------
      1         12           0        8.062267    0.406692    0.047004
      2          6           0        8.112391   -3.158929   -0.262908
      3          6           0        8.894745    0.556846   -3.258673
      4          6           0        8.468865    3.531510    0.403111
      5          6           0        8.357211   -0.036128    3.491213
      6          7           0        8.427723   -1.170154   -1.463177
      7          6           0        8.356239   -2.497569   -1.468639
      8          6           0        8.489958   -3.117633   -2.891669
      9          6           0        9.281881   -1.934043   -3.608588
     10          6           0        8.813990   -0.773050   -2.748881
     11          6           0       10.797630   -2.054660   -3.488346
     12          6           0        7.098376   -3.366154   -3.565069
     13          6           0        7.124159   -4.261665   -4.807143
     14          1           0        6.006506   -5.162811   -5.044075
     15          7           0        8.121860    1.852426   -1.298044
     16          6           0        8.466884    1.731247   -2.602483
     17          6           0        8.354648    3.087308   -3.181432
     18          6           0        8.100216    4.039227   -2.064647
     19          6           0        8.248107    3.171524   -0.924210
     20          6           0        8.438561    3.364027   -4.651172
     21          6           0        7.785686    5.501424   -2.030224
     22          8           0        7.830782    6.181568   -0.948585
     23          6           0        7.505949    6.143915   -3.327142
     24          7           0        8.589721    1.592882    1.681746
     25          6           0        8.638079    2.925675    1.580216
     26          6           0        8.756815    3.572035    2.928570
     27          6           0        8.534376    2.407476    3.998186
     28          6           0        8.400077    1.212862    3.021902
     29          6           0       10.087291    4.281491    3.215828
     30          6           0        7.421874    2.625694    5.054187
     31          6           0        6.067293    2.617453    4.381773
     32          7           0        8.033030   -1.275481    1.418310
     33          6           0        8.196585   -1.231368    2.810423
     34          6           0        8.210188   -2.626220    3.288199
     35          6           0        8.069314   -3.390325    2.131418
     36          6           0        8.000130   -2.528286    0.999873
     37          6           0        8.398648   -3.043925    4.635211
     38          6           0        7.985889   -4.735321    1.585632
     39          8           0        7.896957   -5.864091    2.070877
     40          6           0        8.132901   -4.643719    0.002652
     41          6           0        7.040941   -5.481770   -0.604474
     42          8           0        5.842692   -5.153001   -0.488389
     43          8           0        7.585046   -6.397907   -1.420063
     44          6           0        6.553689   -7.243904   -2.077895
     45          1           0        9.382445    0.724539   -4.220946
     46          1           0        8.504147    4.607932    0.583413
     47          1           0        8.360767   -0.249171    4.561752
     48          1           0        9.075267   -4.036354   -2.933954
     49          1           0        8.959801   -1.795382   -4.640460
     50          1           0       11.080795   -2.866260   -2.818239
     51          1           0       11.135155   -1.097342   -3.090711
     52          1           0       11.257918   -2.149520   -4.472172
     53          1           0        6.744961   -2.437523   -4.013178
     54          1           0        6.387437   -3.770576   -2.843726
     55          1           0        8.070656   -4.796052   -4.893645
     56          1           0        7.092231   -3.622632   -5.689649
     57          1           0        8.795402    2.495029   -5.202581
     58          1           0        9.218102    4.112827   -4.790186
     59          1           0        7.495937    3.735661   -5.053265
     60          1           0        8.368258    6.021434   -3.982863
     61          1           0        7.214702    7.168494   -3.098534
     62          1           0        6.678266    5.622141   -3.808433
     63          1           0        7.990761    4.334120    3.065736
     64          1           0        9.430167    2.219678    4.590608
     65          1           0        9.974491    5.332990    3.481028
     66          1           0       10.726910    4.165163    2.341388
     67          1           0       10.694783    3.816867    3.992034
     68          1           0        7.537314    3.598410    5.531096
     69          1           0        7.419499    1.869557    5.839364
     70          1           0        5.967396    3.641229    4.022978
     71          1           0        5.285661    2.378775    5.103781
     72          1           0        6.060036    1.964151    3.509059
     73          1           0        7.669420   -3.833902    4.814462
     74          1           0        8.263288   -2.214908    5.329482
     75          1           0        9.430834   -3.391674    4.596255
     76          1           0        9.124405   -5.023082   -0.242554
     77          1           0        6.794584   -8.281590   -1.846787
     78          1           0        6.535596   -6.950379   -3.127619
     79          1           0        5.542893   -7.172588   -1.674728
     80         12           0       -7.807367    1.066512    0.282350
     81          6           0       -9.165337   -2.254710    0.215791
     82          6           0       -8.392067    1.212076   -3.074965
     83          6           0       -6.211170    3.808072    0.223732
     84          6           0       -6.311149    0.244343    3.320615
     85          7           0       -8.672099   -0.396082   -1.133741
     86          6           0       -9.209949   -1.602360   -1.033960
     87          6           0       -9.902242   -2.106990   -2.328434
     88          6           0       -9.099089   -1.213993   -3.394443
     89          6           0       -8.723277   -0.038421   -2.494735
     90          6           0       -7.818359   -1.868794   -3.884652
     91          6           0      -11.437666   -1.784472   -2.349759
     92          6           0      -12.233270   -2.515127   -3.433699
     93          1           0      -13.597520   -2.938151   -3.129846
     94          7           0       -7.795304    2.516855   -1.072248
     95          6           0       -8.080535    2.405133   -2.386578
     96          6           0       -7.908126    3.752417   -2.951617
     97          6           0       -7.338436    4.634115   -1.896736
     98          6           0       -7.067542    3.660899   -0.857713
     99          6           0       -8.345572    4.114047   -4.341329
    100          6           0       -7.068725    6.107212   -1.838200
    101          8           0       -6.349139    6.623704   -0.911777
    102          6           0       -7.593918    6.914507   -2.949030
    103          7           0       -6.287054    1.838602    1.471829
    104          6           0       -5.807196    3.077151    1.262893
    105          6           0       -4.921414    3.518560    2.403492
    106          6           0       -5.100828    2.408902    3.541058
    107          6           0       -6.031216    1.428481    2.793714
    108          6           0       -3.437145    3.672026    2.072168
    109          6           0       -5.529174    2.906844    4.948619
    110          6           0       -6.940239    3.446933    4.897678
    111          7           0       -7.879261   -0.604899    1.649560
    112          6           0       -7.153425   -0.755586    2.851453
    113          6           0       -7.448558   -2.106324    3.371852
    114          6           0       -8.314411   -2.660708    2.417166
    115          6           0       -8.526808   -1.729276    1.365108
    116          6           0       -6.900600   -2.680662    4.553378
    117          6           0       -9.088622   -3.826043    2.054822
    118          8           0       -9.363108   -4.891955    2.604578
    119          6           0       -9.573747   -3.662579    0.550058
    120          6           0      -11.038829   -3.998821    0.495238
    121          8           0      -11.873204   -3.286144    1.080491
    122          8           0      -11.233651   -4.973165   -0.412001
    123          6           0      -12.673149   -5.333650   -0.510565
    124          1           0       -8.322508    1.277900   -4.161107
    125          1           0       -5.721076    4.780784    0.308097
    126          1           0       -5.961102   -0.050923    4.312060
    127          1           0       -9.757015   -3.159461   -2.540535
    128          1           0       -9.747713   -0.884121   -4.201805
    129          1           0       -7.598371   -2.777752   -3.344694
    130          1           0       -7.035943   -1.137574   -3.729155
    131          1           0       -7.868011   -2.031935   -4.965048
    132          1           0      -11.581115   -0.747116   -2.678480
    133          1           0      -11.879396   -1.970343   -1.390101
    134          1           0      -11.664141   -3.341739   -3.876150
    135          1           0      -12.397943   -1.827137   -4.266498
    136          1           0       -8.576245    3.221248   -4.935548
    137          1           0       -7.479519    4.558390   -4.843707
    138          1           0       -9.167056    4.833596   -4.350479
    139          1           0       -7.180424    6.550905   -3.886729
    140          1           0       -7.378249    7.951428   -2.684188
    141          1           0       -8.678376    6.768294   -3.005588
    142          1           0       -5.241967    4.476769    2.793598
    143          1           0       -4.163009    1.867318    3.733479
    144          1           0       -3.043557    4.682822    2.289969
    145          1           0       -3.292928    3.424458    1.028880
    146          1           0       -2.777068    2.964383    2.570909
    147          1           0       -4.891312    3.734747    5.267781
    148          1           0       -5.469638    2.140693    5.714421
    149          1           0       -6.799828    4.470619    4.537909
    150          1           0       -7.390992    3.434943    5.887999
    151          1           0       -7.538897    2.913934    4.149892
    152          1           0       -7.715152   -3.174885    5.065986
    153          1           0       -6.433479   -1.925916    5.182604
    154          1           0       -6.166229   -3.362524    4.116314
    155          1           0       -8.975441   -4.338324   -0.062289
    156          1           0      -12.745766   -6.410811   -0.331271
    157          1           0      -13.006779   -4.963801   -1.498316
    158          1           0      -13.339946   -4.947018    0.251240
 ---------------------------------------------------------------------

 SCF Done:  E(RCAM-B3LYP) =  -4069.81172403     A.U. after   19 cycles

 Excitation energies and oscillator strengths:

 Excited State   1:      Singlet-A      1.6698 eV  742.52 nm  f=0.0174  <S**2>=0.000
     309 -> 315       -0.10289
     310 -> 316        0.13839
     311 -> 313       -0.40816
     312 -> 314        0.55181
 This state for optimization and/or second-order correction.
 Total Energy, E(TD-HF/TD-DFT) =  -4069.75036119
 Copying the excited state density for this state as the 1-particle RhoCI density.

 Excited State   2:      Singlet-A      1.6853 eV  735.66 nm  f=0.7392  <S**2>=0.000
     309 -> 315        0.14230
     310 -> 316        0.10471
     311 -> 313        0.55099
     312 -> 314        0.40763

 Excited State   3:      Singlet-A      2.1854 eV  567.32 nm  f=0.0698  <S**2>=0.000
     309 -> 313       -0.12268
     310 -> 314        0.63091
     312 -> 316       -0.26771

 Excited State   4:      Singlet-A      2.1930 eV  565.37 nm  f=0.1257  <S**2>=0.000
     309 -> 313        0.62894
     310 -> 314        0.12165
     311 -> 315       -0.27344

 Excited State   5:      Singlet-A      2.7712 eV  447.40 nm  f=0.0000  <S**2>=0.000
     312 -> 313        0.70707

 The electronic state is 1-A.
 Alpha  occ. eigenvalues --  -46.87812 -46.87588 -19.26293 -19.26289 -19.19099
 Alpha  occ. eigenvalues --  -19.19030 -19.18822 -19.18656 -19.18179 -19.17976
 Alpha  occ. eigenvalues --  -14.42466 -14.42427 -14.41465 -14.41284 -14.39417
 Alpha  occ. eigenvalues --  -14.39281 -14.38602 -14.38525 -10.39090 -10.39027
 Alpha  occ. eigenvalues --  -10.35455 -10.35335 -10.34399 -10.34153 -10.31702
 Alpha  occ. eigenvalues --  -10.31686 -10.31421 -10.31237 -10.30958 -10.30924
 Alpha  occ. eigenvalues --  -10.30585 -10.30522 -10.30323 -10.30287 -10.30223
 Alpha  occ. eigenvalues --  -10.30067 -10.29936 -10.29814 -10.29644 -10.29366
 Alpha  occ. eigenvalues --  -10.29330 -10.29268 -10.28766 -10.28660 -10.28610
 Alpha  occ. eigenvalues --  -10.28562 -10.28379 -10.28335 -10.28133 -10.28080
 Alpha  occ. eigenvalues --  -10.27927 -10.27806 -10.27743 -10.27600 -10.27597
 Alpha  occ. eigenvalues --  -10.27520 -10.27496 -10.27465 -10.27433 -10.27419
 Alpha  occ. eigenvalues --  -10.27418 -10.27412 -10.27398 -10.27290 -10.27169
 Alpha  occ. eigenvalues --  -10.26978 -10.26726 -10.26641 -10.26413 -10.26373
 Alpha  occ. eigenvalues --  -10.26249 -10.26211 -10.26061 -10.26036 -10.25963
 Alpha  occ. eigenvalues --  -10.25857 -10.25855 -10.25751 -10.25447 -10.25298
 Alpha  occ. eigenvalues --  -10.24846 -10.24802 -10.24798 -10.24724 -10.24662
 Alpha  occ. eigenvalues --  -10.24616  -3.16555  -3.16338  -1.91437  -1.91220
 Alpha  occ. eigenvalues --   -1.91023  -1.90865  -1.90808  -1.90645  -1.16642
 Alpha  occ. eigenvalues --   -1.16583  -1.08636  -1.08583  -1.07223  -1.06909
 Alpha  occ. eigenvalues --   -1.06883  -1.06652  -1.04596  -1.04425  -1.03776
 Alpha  occ. eigenvalues --   -1.03591  -1.03249  -1.02964  -1.02426  -1.02037
 Alpha  occ. eigenvalues --   -0.91986  -0.91915  -0.89538  -0.89419  -0.89205
 Alpha  occ. eigenvalues --   -0.89089  -0.88304  -0.88142  -0.87883  -0.87712
 Alpha  occ. eigenvalues --   -0.87689  -0.87614  -0.87286  -0.87060  -0.84998
 Alpha  occ. eigenvalues --   -0.84936  -0.83955  -0.83798  -0.82978  -0.82872
 Alpha  occ. eigenvalues --   -0.82663  -0.82591  -0.81598  -0.81529  -0.80609
 Alpha  occ. eigenvalues --   -0.80376  -0.78810  -0.78568  -0.77235  -0.77077
 Alpha  occ. eigenvalues --   -0.76950  -0.76831  -0.75937  -0.75773  -0.74914
 Alpha  occ. eigenvalues --   -0.74724  -0.72789  -0.72624  -0.71686  -0.71508
 Alpha  occ. eigenvalues --   -0.69930  -0.69681  -0.68888  -0.68764  -0.67654
 Alpha  occ. eigenvalues --   -0.67532  -0.67236  -0.67143  -0.65303  -0.65208
 Alpha  occ. eigenvalues --   -0.64868  -0.64699  -0.64636  -0.64587  -0.64287
 Alpha  occ. eigenvalues --   -0.64128  -0.62310  -0.62211  -0.60455  -0.60273
 Alpha  occ. eigenvalues --   -0.59820  -0.59731  -0.59002  -0.58920  -0.58518
 Alpha  occ. eigenvalues --   -0.58354  -0.57596  -0.57483  -0.57323  -0.57164
 Alpha  occ. eigenvalues --   -0.56323  -0.56134  -0.55990  -0.55824  -0.55532
 Alpha  occ. eigenvalues --   -0.55389  -0.55355  -0.55172  -0.54538  -0.54416
 Alpha  occ. eigenvalues --   -0.53911  -0.53851  -0.53312  -0.53235  -0.53158
 Alpha  occ. eigenvalues --   -0.53078  -0.52929  -0.52837  -0.52768  -0.52614
 Alpha  occ. eigenvalues --   -0.52462  -0.52327  -0.51927  -0.51796  -0.51631
 Alpha  occ. eigenvalues --   -0.51600  -0.51211  -0.51129  -0.50584  -0.50421
 Alpha  occ. eigenvalues --   -0.50050  -0.49931  -0.49917  -0.49792  -0.49528
 Alpha  occ. eigenvalues --   -0.49427  -0.49227  -0.49137  -0.49111  -0.49036
 Alpha  occ. eigenvalues --   -0.48606  -0.48490  -0.48475  -0.48455  -0.48296
 Alpha  occ. eigenvalues --   -0.48278  -0.47709  -0.47530  -0.47310  -0.47051
 Alpha  occ. eigenvalues --   -0.46814  -0.46638  -0.46571  -0.46492  -0.46374
 Alpha  occ. eigenvalues --   -0.46199  -0.46176  -0.46007  -0.45834  -0.45747
 Alpha  occ. eigenvalues --   -0.45217  -0.45129  -0.44590  -0.44522  -0.44446
 Alpha  occ. eigenvalues --   -0.44410  -0.44161  -0.44103  -0.44061  -0.44031
 Alpha  occ. eigenvalues --   -0.44009  -0.43877  -0.43507  -0.43486  -0.43402
 Alpha  occ. eigenvalues --   -0.43317  -0.43041  -0.42865  -0.42828  -0.42712
 Alpha  occ. eigenvalues --   -0.42672  -0.42481  -0.42029  -0.41895  -0.41718
 Alpha  occ. eigenvalues --   -0.41597  -0.41551  -0.41395  -0.41155  -0.40919
 Alpha  occ. eigenvalues --   -0.40887  -0.40834  -0.40664  -0.40637  -0.40589
 Alpha  occ. eigenvalues --   -0.40418  -0.40252  -0.40173  -0.39466  -0.39350
 Alpha  occ. eigenvalues --   -0.38487  -0.38274  -0.37766  -0.37595  -0.37337
 Alpha  occ. eigenvalues --   -0.37280  -0.37192  -0.37134  -0.36725  -0.36706
 Alpha  occ. eigenvalues --   -0.36207  -0.36145  -0.34301  -0.34181  -0.33798
 Alpha  occ. eigenvalues --   -0.33781  -0.33201  -0.33103  -0.31352  -0.31214
 Alpha  occ. eigenvalues --   -0.31050  -0.30902  -0.30038  -0.29880  -0.29462
 Alpha  occ. eigenvalues --   -0.29335  -0.29259  -0.29136  -0.24096  -0.23963
 Alpha  occ. eigenvalues --   -0.21143  -0.21044
 Alpha virt. eigenvalues --   -0.08788  -0.08720  -0.01764  -0.01611  -0.00069
 Alpha virt. eigenvalues --    0.00035   0.02188   0.02283   0.03099   0.03291
 Alpha virt. eigenvalues --    0.04701   0.04798   0.05088   0.05229   0.06157

 Mulliken charges:
               1
     1  Mg   0.838606
     2  C   -0.002964
     3  C   -0.094159
     4  C   -0.045853
     5  C   -0.063979
     6  N   -0.256773
     7  C   -0.052484
     8  C   -0.013999
     9  C   -0.086990
    10  C    0.046314
    11  C    0.104799
    12  C    0.053489
    13  C   -0.071762
    14  H    0.036030
    15  N   -0.433158
    16  C    0.168432
    17  C   -0.177159
    18  C   -0.003946
    19  C    0.148693
    20  C    0.110194
    21  C    0.012361
    22  O   -0.249507
    23  C    0.062440
    24  N   -0.341129
    25  C    0.041227
    26  C   -0.028225
    27  C   -0.023938
    28  C    0.074739
    29  C    0.076147
    30  C    0.035156
    31  C   -0.004493
    32  N   -0.310475
    33  C    0.080346
    34  C   -0.169763
    35  C    0.008407
    36  C    0.082934
    37  C    0.127320
    38  C    0.046112
    39  O   -0.188295
    40  C   -0.005349
    41  C    0.212937
    42  O   -0.257157
    43  O   -0.304793
    44  C    0.157645
    45  H   -0.017609
    46  H   -0.016764
    47  H   -0.041517
    48  H    0.000987
    49  H   -0.004102
    50  H    0.025522
    51  H    0.016482
    52  H    0.016654
    53  H    0.011105
    54  H    0.044120
    55  H    0.017946
    56  H    0.017847
    57  H    0.005808
    58  H    0.026870
    59  H    0.039516
    60  H    0.037292
    61  H    0.035854
    62  H    0.031511
    63  H    0.016567
    64  H    0.009527
    65  H    0.023286
    66  H    0.012591
    67  H    0.004785
    68  H    0.006420
    69  H    0.004710
    70  H    0.008868
    71  H    0.017704
    72  H    0.028963
    73  H    0.047611
    74  H    0.009045
    75  H    0.046086
    76  H    0.035197
    77  H    0.043076
    78  H    0.046310
    79  H    0.053758
    80  Mg   0.837944
    81  C   -0.016882
    82  C   -0.087907
    83  C   -0.045535
    84  C   -0.064438
    85  N   -0.254563
    86  C   -0.049739
    87  C   -0.015084
    88  C   -0.090528
    89  C    0.045790
    90  C    0.114406
    91  C    0.062565
    92  C   -0.077792
    93  H    0.034746
    94  N   -0.423460
    95  C    0.162885
    96  C   -0.174843
    97  C   -0.007915
    98  C    0.152075
    99  C    0.099471
   100  C    0.015433
   101  O   -0.253209
   102  C    0.061257
   103  N   -0.350022
   104  C    0.037608
   105  C   -0.019933
   106  C   -0.034848
   107  C    0.088932
   108  C    0.073531
   109  C    0.034691
   110  C   -0.007645
   111  N   -0.324179
   112  C    0.078473
   113  C   -0.162826
   114  C    0.002346
   115  C    0.096276
   116  C    0.131464
   117  C    0.042575
   118  O   -0.187722
   119  C    0.000847
   120  C    0.211249
   121  O   -0.251116
   122  O   -0.305590
   123  C    0.152062
   124  H   -0.019973
   125  H   -0.015593
   126  H   -0.040156
   127  H   -0.000636
   128  H   -0.004563
   129  H    0.022694
   130  H    0.014520
   131  H    0.015942
   132  H    0.013847
   133  H    0.037670
   134  H    0.020756
   135  H    0.019442
   136  H    0.008572
   137  H    0.025797
   138  H    0.039583
   139  H    0.038023
   140  H    0.036237
   141  H    0.033817
   142  H    0.014235
   143  H    0.012976
   144  H    0.025083
   145  H    0.011732
   146  H    0.006236
   147  H    0.006211
   148  H    0.003746
   149  H    0.010838
   150  H    0.017801
   151  H    0.030049
   152  H    0.045904
   153  H    0.008577
   154  H    0.047764
   155  H    0.035229
   156  H    0.043906
   157  H    0.049369
   158  H    0.053514
 Sum of Mulliken charges =  -0.00000

 Dipole moment (field-independent basis, Debye):
    X=              2.8658    Y=              2.8627    Z=             -7.9071  Tot=              8.8842
 Quadrupole moment (field-independent basis, Debye-Ang):
   XX=           -491.1591   YY=           -560.4591   ZZ=           -445.7798
   XY=             -4.7075   XZ=             26.3139   YZ=             27.9167

 Normal termination of Gaussian 16 at Sun Sep 12 04:55:53 2021.
