 Gaussian 16, Revision A.03,
 Gaussian 16:  ES64L-G16RevA.03 25-Dec-2016

 -----------------------------------
 #p cam-b3lyp/Def2SVP td=(nstates=5)
 -----------------------------------

 --------------------------------
 TDDFT excited states in gaussian
 --------------------------------
 Symbolic Z-matrix:
 Charge =  0 Multiplicity = 1

                         Standard orientation:
 ---------------------------------------------------------------------
 Center     Atomic      Atomic             Coordinates (Angstroms)
 Number     Number       Type             X           Y           Z
 ---------------------------------------------------------------------
      1         12           0       16.146419    0.500979    0.605203
      2          6           0       16.399454   -2.493320   -1.339625
      3          6           0       17.094869    2.217499   -2.187120
      4          6           0       16.371000    3.098458    2.410553
      5          6           0       16.333374   -1.505700    3.448432
      6          7           0       16.653133   -0.165227   -1.444201
      7          6           0       16.653201   -1.334458   -2.076712
      8          6           0       16.874049   -1.205480   -3.613580
      9          6           0       17.628071    0.199016   -3.642546
     10          6           0       17.066205    0.802691   -2.367474
     11          6           0       19.142430    0.080500   -3.504089
     12          6           0       15.524440   -1.147595   -4.405373
     13          6           0       15.645471   -1.349891   -5.918575
     14          1           0       14.587583   -2.064995   -6.616321
     15          7           0       16.179547    2.411352    0.102979
     16          6           0       16.579974    2.930191   -1.082664
     17          6           0       16.417293    4.395021   -0.962294
     18          6           0       16.069852    4.699427    0.453586
     19          6           0       16.220548    3.401047    1.059290
     20          6           0       16.542128    5.334816   -2.122015
     21          6           0       15.676276    5.962428    1.152199
     22          8           0       15.643628    6.052726    2.427093
     23          6           0       15.412053    7.132315    0.295116
     24          7           0       16.546893    0.790385    2.633380
     25          6           0       16.527533    2.014159    3.172811
     26          6           0       16.560025    1.951001    4.671108
     27          6           0       16.359809    0.413578    5.053202
     28          6           0       16.327028   -0.182398    3.624213
     29          6           0       17.838639    2.479693    5.335671
     30          6           0       15.197817    0.074937    6.020422
     31          6           0       13.872205    0.345177    5.344537
     32          7           0       16.155263   -1.629242    1.021287
     33          6           0       16.263109   -2.242427    2.277889
     34          6           0       16.333302   -3.696598    2.044375
     35          6           0       16.277743   -3.828238    0.658219
     36          6           0       16.205549   -2.536733    0.062318
     37          6           0       16.492483   -4.694721    3.045796
     38          6           0       16.287405   -4.758363   -0.459203
     39          8           0       16.240731   -5.984598   -0.567192
     40          6           0       16.489440   -3.926408   -1.801909
     41          6           0       15.467898   -4.410485   -2.794597
     42          8           0       14.250192   -4.210733   -2.608430
     43          8           0       16.091002   -4.816973   -3.911312
     44          6           0       15.132287   -5.282347   -4.948831
     45          1           0       17.609147    2.833631   -2.927282
     46          1           0       16.341614    3.962956    3.077050
     47          1           0       16.307599   -2.198455    4.291568
     48          1           0       17.508971   -1.977913   -4.047912
     49          1           0       17.338529    0.798630   -4.505304
     50          1           0       19.443001   -0.942549   -3.278367
     51          1           0       19.412748    0.746370   -2.684309
     52          1           0       19.644257    0.474637   -4.388172
     53          1           0       15.139045   -0.128230   -4.384709
     54          1           0       14.809272   -1.865204   -4.001765
     55          1           0       16.621870   -1.752183   -6.190078
     56          1           0       15.612932   -0.371311   -6.397661
     57          1           0       16.965789    4.839717   -2.994903
     58          1           0       17.285115    6.083134   -1.846879
     59          1           0       15.596919    5.824345   -2.357114
     60          1           0       16.304023    7.359103   -0.289269
     61          1           0       15.057787    7.918749    0.960599
     62          1           0       14.632464    6.875324   -0.422620
     63          1           0       15.749538    2.535331    5.104808
     64          1           0       17.241182   -0.005138    5.539547
     65          1           0       17.659596    3.277822    6.056531
     66          1           0       18.516396    2.808565    4.548411
     67          1           0       18.440188    1.721859    5.836912
     68          1           0       15.242688    0.710451    6.904195
     69          1           0       15.206112   -0.961917    6.356752
     70          1           0       13.731277    1.413684    5.503483
     71          1           0       13.077583   -0.228770    5.822421
     72          1           0       13.933218    0.181064    4.268512
     73          1           0       15.800377   -5.496834    2.789723
     74          1           0       16.286530   -4.295760    4.038779
     75          1           0       17.542568   -4.952468    2.908882
     76          1           0       17.508476   -4.115889   -2.137745
     77          1           0       15.419514   -6.298723   -5.218487
     78          1           0       15.138447   -4.528920   -5.736685
     79          1           0       14.104508   -5.439415   -4.619681
     80         12           0      -15.598774    0.509036   -0.215038
     81          6           0      -18.182122   -1.849140    0.587707
     82          6           0      -18.067459    2.667207   -1.154447
     83          6           0      -13.346864    2.434129   -1.350982
     84          6           0      -13.372617   -2.170858   -0.304916
     85          7           0      -17.802331    0.318728   -0.233969
     86          6           0      -18.673806   -0.601044    0.151876
     87          6           0      -20.152885   -0.130095    0.141788
     88          6           0      -20.022546    1.048612   -0.941049
     89          6           0      -18.548409    1.397452   -0.746375
     90          6           0      -20.216440    0.575366   -2.372048
     91          6           0      -20.614550    0.420000    1.536873
     92          6           0      -22.125865    0.608494    1.685710
     93          1           0      -22.735247    0.346076    2.986586
     94          7           0      -15.665102    2.442709   -0.656718
     95          6           0      -16.755185    3.163537   -0.993491
     96          6           0      -16.272330    4.530673   -1.242407
     97          6           0      -14.785249    4.520553   -1.185608
     98          6           0      -14.535160    3.096995   -1.080548
     99          6           0      -17.196456    5.699787   -1.422914
    100          6           0      -13.757770    5.610626   -1.232606
    101          8           0      -12.513748    5.356277   -1.407369
    102          6           0      -14.261638    6.989969   -1.161574
    103          7           0      -13.688773    0.160091   -0.958331
    104          6           0      -12.897405    1.179103   -1.336858
    105          6           0      -11.481379    0.711090   -1.574003
    106          6           0      -11.431736   -0.795536   -1.039968
    107          6           0      -12.915678   -0.975317   -0.651398
    108          6           0      -11.001121    0.752713   -3.024516
    109          6           0      -10.344802   -1.131969    0.017411
    110          6           0      -10.645914   -0.414299    1.313431
    111          7           0      -15.679948   -1.597021    0.260348
    112          6           0      -14.639923   -2.542642    0.125317
    113          6           0      -15.206609   -3.864347    0.463538
    114          6           0      -16.553430   -3.597115    0.751863
    115          6           0      -16.812994   -2.210025    0.584210
    116          6           0      -14.506230   -5.103078    0.429826
    117          6           0      -17.817130   -4.174657    1.149634
    118          8           0      -18.185836   -5.290214    1.514758
    119          6           0      -18.958026   -3.088316    0.938461
    120          6           0      -19.804802   -3.056427    2.181234
    121          8           0      -19.325439   -2.673547    3.263004
    122          8           0      -21.089326   -3.273784    1.844903
    123          6           0      -21.969975   -3.240667    3.042898
    124          1           0      -18.747394    3.332992   -1.686705
    125          1           0      -12.507167    3.070481   -1.639836
    126          1           0      -12.719674   -3.041556   -0.214199
    127          1           0      -20.863709   -0.872581   -0.200573
    128          1           0      -20.652333    1.895395   -0.680875
    129          1           0      -20.293026   -0.500019   -2.433883
    130          1           0      -19.349633    0.924921   -2.917490
    131          1           0      -21.077999    1.077301   -2.821627
    132          1           0      -20.284404    1.461879    1.638026
    133          1           0      -20.247800   -0.200382    2.331389
    134          1           0      -22.684866    0.101092    0.890096
    135          1           0      -22.359193    1.666601    1.544315
    136          1           0      -18.231903    5.373506   -1.580337
    137          1           0      -16.918305    6.184778   -2.364870
    138          1           0      -17.116997    6.428420   -0.613315
    139          1           0      -14.951381    7.165261   -1.983763
    140          1           0      -13.373643    7.623647   -1.119277
    141          1           0      -14.838431    7.104562   -0.237024
    142          1           0      -10.776878    1.307989   -1.007873
    143          1           0      -11.230916   -1.509371   -1.852342
    144          1           0      -10.087035    1.360144   -3.164381
    145          1           0      -11.806645    1.130551   -3.640074
    146          1           0      -10.803488   -0.219118   -3.473617
    147          1           0       -9.367982   -0.773308   -0.316279
    148          1           0      -10.247768   -2.194460    0.214106
    149          1           0      -10.227205    0.582654    1.146503
    150          1           0      -10.158515   -0.912214    2.149230
    151          1           0      -11.726420   -0.298191    1.457172
    152          1           0      -14.785536   -5.643111    1.324731
    153          1           0      -13.430348   -4.950168    0.376328
    154          1           0      -14.906820   -5.528539   -0.494170
    155          1           0      -19.532275   -3.382979    0.059271
    156          1           0      -22.516522   -4.188577    3.063957
    157          1           0      -22.569254   -2.315706    2.947664
    158          1           0      -21.493018   -3.249883    4.015965
 ---------------------------------------------------------------------

 SCF Done:  E(RCAM-B3LYP) =  -4069.81176956     A.U. after   19 cycles

 Excitation energies and oscillator strengths:

 Excited State   1:      Singlet-A      1.6753 eV  740.08 nm  f=0.2132  <S**2>=0.000
     310 -> 316        0.16864
     311 -> 313        0.66667
     312 -> 314       -0.16195
     310 <- 316        0.10167
 This state for optimization and/or second-order correction.
 Total Energy, E(TD-HF/TD-DFT) =  -4069.75020412
 Copying the excited state density for this state as the 1-particle RhoCI density.

 Excited State   2:      Singlet-A      1.6801 eV  737.95 nm  f=0.5642  <S**2>=0.000
     309 -> 315        0.17066
     311 -> 313        0.16190
     312 -> 314        0.66630
     309 <- 315        0.10218

 Excited State   3:      Singlet-A      2.1861 eV  567.15 nm  f=0.1029  <S**2>=0.000
     310 -> 313        0.64248
     311 -> 316       -0.27312

 Excited State   4:      Singlet-A      2.1925 eV  565.48 nm  f=0.0986  <S**2>=0.000
     309 -> 314        0.64070
     312 -> 315       -0.27831

 Excited State   5:      Singlet-A      3.0614 eV  404.99 nm  f=0.0000  <S**2>=0.000
     312 -> 313        0.70710

 The electronic state is 1-A.
 Alpha  occ. eigenvalues --  -46.87769 -46.87660 -19.26350 -19.26258 -19.19161
 Alpha  occ. eigenvalues --  -19.18994 -19.18787 -19.18714 -19.18143 -19.18051
 Alpha  occ. eigenvalues --  -14.42498 -14.42423 -14.41422 -14.41358 -14.39375
 Alpha  occ. eigenvalues --  -14.39352 -14.38599 -14.38559 -10.39091 -10.39053
 Alpha  occ. eigenvalues --  -10.35420 -10.35392 -10.34363 -10.34228 -10.31757
 Alpha  occ. eigenvalues --  -10.31654 -10.31378 -10.31309 -10.31024 -10.30882
 Alpha  occ. eigenvalues --  -10.30543 -10.30480 -10.30397 -10.30360 -10.30179
 Alpha  occ. eigenvalues --  -10.30139 -10.29893 -10.29893 -10.29603 -10.29436
 Alpha  occ. eigenvalues --  -10.29400 -10.29227 -10.28722 -10.28721 -10.28656
 Alpha  occ. eigenvalues --  -10.28512 -10.28405 -10.28337 -10.28142 -10.28090
 Alpha  occ. eigenvalues --  -10.28001 -10.27766 -10.27700 -10.27669 -10.27557
 Alpha  occ. eigenvalues --  -10.27513 -10.27484 -10.27473 -10.27468 -10.27465
 Alpha  occ. eigenvalues --  -10.27454 -10.27422 -10.27376 -10.27372 -10.27132
 Alpha  occ. eigenvalues --  -10.27051 -10.26694 -10.26678 -10.26416 -10.26381
 Alpha  occ. eigenvalues --  -10.26209 -10.26155 -10.26128 -10.26028 -10.25992
 Alpha  occ. eigenvalues --  -10.25932 -10.25848 -10.25816 -10.25408 -10.25394
 Alpha  occ. eigenvalues --  -10.24872 -10.24805 -10.24760 -10.24720 -10.24689
 Alpha  occ. eigenvalues --  -10.24657  -3.16512  -3.16410  -1.91393  -1.91292
 Alpha  occ. eigenvalues --   -1.90980  -1.90881  -1.90822  -1.90718  -1.16644
 Alpha  occ. eigenvalues --   -1.16607  -1.08658  -1.08601  -1.07188  -1.06967
 Alpha  occ. eigenvalues --   -1.06946  -1.06616  -1.04554  -1.04495  -1.03733
 Alpha  occ. eigenvalues --   -1.03663  -1.03206  -1.03038  -1.02384  -1.02111
 Alpha  occ. eigenvalues --   -0.91987  -0.91945  -0.89492  -0.89491  -0.89161
 Alpha  occ. eigenvalues --   -0.89152  -0.88259  -0.88217  -0.87843  -0.87793
 Alpha  occ. eigenvalues --   -0.87684  -0.87646  -0.87246  -0.87120  -0.85000
 Alpha  occ. eigenvalues --   -0.84955  -0.83908  -0.83872  -0.82939  -0.82931
 Alpha  occ. eigenvalues --   -0.82653  -0.82621  -0.81596  -0.81559  -0.80569
 Alpha  occ. eigenvalues --   -0.80442  -0.78770  -0.78635  -0.77191  -0.77144
 Alpha  occ. eigenvalues --   -0.76907  -0.76898  -0.75897  -0.75839  -0.74871
 Alpha  occ. eigenvalues --   -0.74801  -0.72747  -0.72698  -0.71645  -0.71580
 Alpha  occ. eigenvalues --   -0.69879  -0.69752  -0.68846  -0.68828  -0.67614
 Alpha  occ. eigenvalues --   -0.67601  -0.67201  -0.67192  -0.65272  -0.65259
 Alpha  occ. eigenvalues --   -0.64826  -0.64769  -0.64653  -0.64593  -0.64242
 Alpha  occ. eigenvalues --   -0.64200  -0.62278  -0.62271  -0.60414  -0.60339
 Alpha  occ. eigenvalues --   -0.59797  -0.59777  -0.58992  -0.58960  -0.58476
 Alpha  occ. eigenvalues --   -0.58425  -0.57558  -0.57554  -0.57281  -0.57235
 Alpha  occ. eigenvalues --   -0.56283  -0.56204  -0.55952  -0.55887  -0.55493
 Alpha  occ. eigenvalues --   -0.55452  -0.55312  -0.55245  -0.54496  -0.54485
 Alpha  occ. eigenvalues --   -0.53914  -0.53868  -0.53271  -0.53227  -0.53195
 Alpha  occ. eigenvalues --   -0.53142  -0.52902  -0.52887  -0.52728  -0.52669
 Alpha  occ. eigenvalues --   -0.52410  -0.52394  -0.51888  -0.51883  -0.51659
 Alpha  occ. eigenvalues --   -0.51589  -0.51200  -0.51169  -0.50544  -0.50475
 Alpha  occ. eigenvalues --   -0.50003  -0.49980  -0.49891  -0.49865  -0.49488
 Alpha  occ. eigenvalues --   -0.49487  -0.49203  -0.49187  -0.49105  -0.49069
 Alpha  occ. eigenvalues --   -0.48566  -0.48559  -0.48434  -0.48418  -0.48374
 Alpha  occ. eigenvalues --   -0.48339  -0.47667  -0.47594  -0.47270  -0.47118
 Alpha  occ. eigenvalues --   -0.46770  -0.46708  -0.46555  -0.46528  -0.46332
 Alpha  occ. eigenvalues --   -0.46269  -0.46135  -0.46084  -0.45822  -0.45795
 Alpha  occ. eigenvalues --   -0.45207  -0.45174  -0.44551  -0.44514  -0.44479
 Alpha  occ. eigenvalues --   -0.44476  -0.44127  -0.44117  -0.44076  -0.44061
 Alpha  occ. eigenvalues --   -0.43992  -0.43940  -0.43552  -0.43468  -0.43386
 Alpha  occ. eigenvalues --   -0.43358  -0.43000  -0.42930  -0.42901  -0.42672
 Alpha  occ. eigenvalues --   -0.42627  -0.42550  -0.41982  -0.41961  -0.41677
 Alpha  occ. eigenvalues --   -0.41669  -0.41507  -0.41458  -0.41114  -0.40989
 Alpha  occ. eigenvalues --   -0.40842  -0.40795  -0.40722  -0.40698  -0.40544
 Alpha  occ. eigenvalues --   -0.40490  -0.40228  -0.40207  -0.39419  -0.39412
 Alpha  occ. eigenvalues --   -0.38441  -0.38348  -0.37721  -0.37654  -0.37293
 Alpha  occ. eigenvalues --   -0.37264  -0.37236  -0.37200  -0.36771  -0.36686
 Alpha  occ. eigenvalues --   -0.36216  -0.36165  -0.34259  -0.34253  -0.33862
 Alpha  occ. eigenvalues --   -0.33744  -0.33175  -0.33159  -0.31316  -0.31273
 Alpha  occ. eigenvalues --   -0.31008  -0.30972  -0.30002  -0.29956  -0.29422
 Alpha  occ. eigenvalues --   -0.29327  -0.29294  -0.29211  -0.24053  -0.24036
 Alpha  occ. eigenvalues --   -0.21116  -0.21100
 Alpha virt. eigenvalues --   -0.08792  -0.08747  -0.01722  -0.01683  -0.00030
 Alpha virt. eigenvalues --   -0.00029   0.02208   0.02227   0.03149   0.03229
 Alpha virt. eigenvalues --    0.04729   0.04745   0.05124   0.05165   0.06181

 Mulliken charges:
               1
     1  Mg   0.838700
     2  C   -0.002959
     3  C   -0.094112
     4  C   -0.045863
     5  C   -0.063957
     6  N   -0.256776
     7  C   -0.052468
     8  C   -0.014035
     9  C   -0.086983
    10  C    0.046318
    11  C    0.104814
    12  C    0.053467
    13  C   -0.071801
    14  H    0.036132
    15  N   -0.433127
    16  C    0.168423
    17  C   -0.177147
    18  C   -0.003997
    19  C    0.148728
    20  C    0.110178
    21  C    0.012302
    22  O   -0.249615
    23  C    0.062466
    24  N   -0.341116
    25  C    0.041241
    26  C   -0.028193
    27  C   -0.023942
    28  C    0.074828
    29  C    0.076178
    30  C    0.035111
    31  C   -0.004498
    32  N   -0.310461
    33  C    0.080417
    34  C   -0.169717
    35  C    0.008347
    36  C    0.082990
    37  C    0.127312
    38  C    0.046116
    39  O   -0.188459
    40  C   -0.005333
    41  C    0.212868
    42  O   -0.257090
    43  O   -0.304805
    44  C    0.157698
    45  H   -0.017617
    46  H   -0.016833
    47  H   -0.041492
    48  H    0.000921
    49  H   -0.004030
    50  H    0.025462
    51  H    0.016441
    52  H    0.016640
    53  H    0.011226
    54  H    0.044130
    55  H    0.017849
    56  H    0.017955
    57  H    0.005866
    58  H    0.026810
    59  H    0.039584
    60  H    0.037325
    61  H    0.035669
    62  H    0.031537
    63  H    0.016577
    64  H    0.009443
    65  H    0.023215
    66  H    0.012529
    67  H    0.004738
    68  H    0.006370
    69  H    0.004729
    70  H    0.008796
    71  H    0.018171
    72  H    0.028981
    73  H    0.047571
    74  H    0.009119
    75  H    0.045987
    76  H    0.035131
    77  H    0.042927
    78  H    0.046399
    79  H    0.053692
    80  Mg   0.837863
    81  C   -0.016828
    82  C   -0.087819
    83  C   -0.045491
    84  C   -0.064863
    85  N   -0.254576
    86  C   -0.049842
    87  C   -0.015108
    88  C   -0.090488
    89  C    0.045772
    90  C    0.114374
    91  C    0.062524
    92  C   -0.077905
    93  H    0.034916
    94  N   -0.423490
    95  C    0.162918
    96  C   -0.174636
    97  C   -0.007795
    98  C    0.152101
    99  C    0.099373
   100  C    0.015550
   101  O   -0.253157
   102  C    0.061199
   103  N   -0.350068
   104  C    0.037516
   105  C   -0.019841
   106  C   -0.034829
   107  C    0.088907
   108  C    0.073649
   109  C    0.034710
   110  C   -0.007692
   111  N   -0.324100
   112  C    0.078455
   113  C   -0.163101
   114  C    0.002232
   115  C    0.096200
   116  C    0.131483
   117  C    0.042412
   118  O   -0.187846
   119  C    0.000916
   120  C    0.211251
   121  O   -0.250997
   122  O   -0.305640
   123  C    0.152027
   124  H   -0.019688
   125  H   -0.015556
   126  H   -0.040374
   127  H   -0.000662
   128  H   -0.004329
   129  H    0.022450
   130  H    0.014417
   131  H    0.016264
   132  H    0.013927
   133  H    0.037695
   134  H    0.020774
   135  H    0.019591
   136  H    0.008747
   137  H    0.026119
   138  H    0.039799
   139  H    0.038224
   140  H    0.036395
   141  H    0.033908
   142  H    0.014450
   143  H    0.012455
   144  H    0.025178
   145  H    0.011580
   146  H    0.005705
   147  H    0.006365
   148  H    0.003730
   149  H    0.010946
   150  H    0.018037
   151  H    0.030036
   152  H    0.046048
   153  H    0.008594
   154  H    0.046937
   155  H    0.035003
   156  H    0.043913
   157  H    0.049485
   158  H    0.053599
 Sum of Mulliken charges =  -0.00000

 Dipole moment (field-independent basis, Debye):
    X=              0.1694    Y=              6.6053    Z=             -4.7458  Tot=              8.1352
 Quadrupole moment (field-independent basis, Debye-Ang):
   XX=           -359.0210   YY=           -546.3663   ZZ=           -481.4194
   XY=            -28.4213   XZ=              2.1385   YZ=             -8.9517

 Normal termination of Gaussian 16 at Sun Sep 12 09:36:52 2021.
