 Gaussian 16, Revision A.03,
 Gaussian 16:  ES64L-G16RevA.03 25-Dec-2016

 -----------------------------------
 #p cam-b3lyp/Def2SVP td=(nstates=5)
 -----------------------------------

 --------------------------------
 TDDFT excited states in gaussian
 --------------------------------
 Symbolic Z-matrix:
 Charge =  0 Multiplicity = 1

                         Standard orientation:
 ---------------------------------------------------------------------
 Center     Atomic      Atomic             Coordinates (Angstroms)
 Number     Number       Type             X           Y           Z
 ---------------------------------------------------------------------
      1         12           0        7.680834   -1.066451    0.254210
      2          6           0        8.056992    2.397596   -0.564996
      3          6           0        8.482538   -0.240623    3.466428
      4          6           0        7.800141   -4.167530    0.906662
      5          6           0        8.029223   -1.756015   -3.144141
      6          7           0        8.183430    0.867692    1.206646
      7          6           0        8.234152    2.130482    0.794382
      8          6           0        8.418465    3.152600    1.955709
      9          6           0        9.095401    2.191000    3.032315
     10          6           0        8.526352    0.863312    2.563964
     11          6           0       10.616298    2.136992    2.930058
     12          6           0        7.052863    3.718833    2.471695
     13          6           0        7.155735    4.953738    3.371574
     14          1           0        6.124623    5.976195    3.278106
     15          7           0        7.601907   -2.015474    1.985098
     16          6           0        7.951290   -1.520440    3.196774
     17          6           0        7.712616   -2.610786    4.166754
     18          6           0        7.376373   -3.839982    3.395968
     19          6           0        7.607980   -3.390922    2.046864
     20          6           0        7.764774   -2.417517    5.651233
     21          6           0        6.929010   -5.206132    3.810255
     22          8           0        6.915846   -6.193080    2.997645
     23          6           0        6.586165   -5.381752    5.233159
     24          7           0        8.103756   -2.747150   -0.909414
     25          6           0        8.029076   -3.979398   -0.394661
     26          6           0        8.093429   -5.024589   -1.468613
     27          6           0        7.983253   -4.240799   -2.855439
     28          6           0        7.955275   -2.792934   -2.306646
     29          6           0        9.354274   -5.899933   -1.475899
     30          6           0        6.859718   -4.683522   -3.826050
     31          6           0        5.508894   -4.347938   -3.234648
     32          7           0        7.811813    0.095238   -1.574552
     33          6           0        7.976290   -0.398201   -2.876911
     34          6           0        8.119900    0.769102   -3.766208
     35          6           0        8.045098    1.867279   -2.911657
     36          6           0        7.892422    1.414016   -1.570190
     37          6           0        8.351412    0.724303   -5.169357
     38          6           0        8.083344    3.317594   -2.816889
     39          8           0        8.100444    4.239806   -3.633422
     40          6           0        8.214876    3.716053   -1.280739
     41          6           0        7.202046    4.793044   -1.002217
     42          8           0        5.979147    4.548683   -1.048816
     43          8           0        7.824675    5.868826   -0.496681
     44          6           0        6.872714    6.964064   -0.170525
     45          1           0        8.948852   -0.138523    4.448297
     46          1           0        7.737136   -5.244891    1.073278
     47          1           0        8.056690   -1.891489   -4.226890
     48          1           0        9.085509    3.984158    1.727702
     49          1           0        8.757749    2.412004    4.044674
     50          1           0       10.975539    2.669263    2.049402
     51          1           0       10.866081    1.077934    2.863009
     52          1           0       11.079345    2.496440    3.849385
     53          1           0        6.613826    3.012161    3.175913
     54          1           0        6.385019    3.935463    1.637200
     55          1           0        8.146955    5.404817    3.317551
     56          1           0        7.061654    4.629803    4.408114
     57          1           0        8.197677   -1.453268    5.914600
     58          1           0        8.471668   -3.148700    6.042872
     59          1           0        6.790370   -2.561449    6.118300
     60          1           0        7.453402   -5.133890    5.845542
     61          1           0        6.202973   -6.397234    5.327021
     62          1           0        5.807954   -4.666037    5.499784
     63          1           0        7.261180   -5.722366   -1.385574
     64          1           0        8.894911   -4.326480   -3.447227
     65          1           0        9.146449   -6.967701   -1.402516
     66          1           0        9.998310   -5.569989   -0.661254
     67          1           0       10.005029   -5.756917   -2.338152
     68          1           0        6.887265   -5.762982   -3.970805
     69          1           0        6.930002   -4.215331   -4.807940
     70          1           0        5.313925   -5.194422   -2.577164
     71          1           0        4.755435   -4.282136   -4.020256
     72          1           0        5.558122   -3.455305   -2.610734
     73          1           0        7.698563    1.477441   -5.610424
     74          1           0        8.143305   -0.266094   -5.573597
     75          1           0        9.411009    0.976625   -5.207345
     76          1           0        9.236027    4.066604   -1.134155
     77          1           0        7.208843    7.851728   -0.706533
     78          1           0        6.823464    7.018156    0.917158
     79          1           0        5.861290    6.856734   -0.564022
     80         12           0       -8.178944   -0.393718   -0.284342
     81          6           0       -6.293931    2.656248   -0.437772
     82          6           0       -9.066455    0.489509    2.888488
     83          6           0       -9.475190   -3.270690    0.047573
     84          6           0       -6.260732   -1.550744   -2.954077
     85          7           0       -7.681495    1.369757    0.954592
     86          6           0       -7.006650    2.494180    0.768543
     87          6           0       -7.166307    3.536165    1.907987
     88          6           0       -7.559872    2.532534    3.098235
     89          6           0       -8.174749    1.403949    2.273058
     90          6           0       -6.355617    1.979153    3.841784
     91          6           0       -8.315637    4.564946    1.620440
     92          6           0       -8.325580    5.790711    2.536502
     93          1           0       -8.733101    7.075775    1.975265
     94          7           0       -9.515817   -1.056801    1.023959
     95          6           0       -9.759765   -0.566642    2.257458
     96          6           0      -10.819245   -1.414826    2.825137
     97          6           0      -11.065248   -2.546581    1.890615
     98          6           0       -9.990339   -2.342246    0.940410
     99          6           0      -11.542425   -1.072670    4.095316
    100          6           0      -12.089635   -3.640266    1.864465
    101          8           0      -11.971206   -4.655409    1.090966
    102          6           0      -13.186866   -3.534201    2.837259
    103          7           0       -7.770359   -2.233975   -1.161181
    104          6           0       -8.518766   -3.315089   -0.880101
    105          6           0       -8.216247   -4.449767   -1.829516
    106          6           0       -7.278636   -3.822875   -2.963314
    107          6           0       -7.121674   -2.393363   -2.400065
    108          6           0       -7.525643   -5.666351   -1.213587
    109          6           0       -7.746078   -3.990238   -4.435095
    110          6           0       -9.002822   -3.184182   -4.672297
    111          7           0       -6.696761    0.445603   -1.613526
    112          6           0       -6.001338   -0.221438   -2.645761
    113          6           0       -5.015682    0.732738   -3.193913
    114          6           0       -5.191662    1.890424   -2.421073
    115          6           0       -6.200794    1.666419   -1.445900
    116          6           0       -4.084022    0.460219   -4.235002
    117          6           0       -4.745839    3.247530   -2.201517
    118          8           0       -3.974129    4.012475   -2.778630
    119          6           0       -5.351618    3.761999   -0.825019
    120          6           0       -5.933517    5.129692   -1.055941
    121          8           0       -6.914468    5.280929   -1.805258
    122          8           0       -5.377353    5.997025   -0.190624
    123          6           0       -5.930578    7.365386   -0.373244
    124          1           0       -9.219304    0.559218    3.965822
    125          1           0       -9.965574   -4.246911    0.047181
    126          1           0       -5.692832   -1.802875   -3.852183
    127          1           0       -6.261246    4.075541    2.160406
    128          1           0       -8.304364    2.972962    3.756351
    129          1           0       -5.426196    2.261037    3.369700
    130          1           0       -6.473351    0.903463    3.833113
    131          1           0       -6.391950    2.277837    4.893359
    132          1           0       -9.277162    4.114634    1.898699
    133          1           0       -8.297191    4.880113    0.595284
    134          1           0       -7.387534    5.895437    3.095110
    135          1           0       -9.082652    5.639813    3.309875
    136          1           0      -11.032372   -0.272355    4.645534
    137          1           0      -11.465335   -1.945777    4.752300
    138          1           0      -12.598059   -0.846104    3.931055
    139          1           0      -12.775780   -3.505364    3.843559
    140          1           0      -13.864224   -4.358216    2.604758
    141          1           0      -13.702445   -2.580151    2.680460
    142          1           0       -9.123617   -4.821340   -2.289647
    143          1           0       -6.275702   -4.274482   -2.958342
    144          1           0       -8.085256   -6.608763   -1.364417
    145          1           0       -7.377186   -5.476906   -0.158783
    146          1           0       -6.509730   -5.845910   -1.561277
    147          1           0       -8.004135   -5.033270   -4.634214
    148          1           0       -6.995332   -3.699733   -5.162417
    149          1           0       -9.793421   -3.846601   -4.307282
    150          1           0       -9.125833   -2.969331   -5.731892
    151          1           0       -9.015106   -2.282009   -4.049734
    152          1           0       -4.089845    1.320479   -4.891071
    153          1           0       -4.341744   -0.451035   -4.770700
    154          1           0       -3.166567    0.347632   -3.651163
    155          1           0       -4.540239    3.780000   -0.096391
    156          1           0       -5.080970    8.032918   -0.547164
    157          1           0       -6.548668    7.559851    0.523370
    158          1           0       -6.529158    7.550092   -1.257573
 ---------------------------------------------------------------------

 SCF Done:  E(RCAM-B3LYP) =  -4069.81143291     A.U. after   19 cycles

 Excitation energies and oscillator strengths:

 Excited State   1:      Singlet-A      1.6703 eV  742.30 nm  f=0.1079  <S**2>=0.000
     309 -> 315       -0.10481
     310 -> 316       -0.13712
     311 -> 313       -0.41548
     312 -> 314        0.54626
 This state for optimization and/or second-order correction.
 Total Energy, E(TD-HF/TD-DFT) =  -4069.75005130
 Copying the excited state density for this state as the 1-particle RhoCI density.

 Excited State   2:      Singlet-A      1.6851 eV  735.75 nm  f=0.6577  <S**2>=0.000
     309 -> 315        0.14066
     310 -> 316       -0.10645
     311 -> 313        0.54548
     312 -> 314        0.41502

 Excited State   3:      Singlet-A      2.1858 eV  567.24 nm  f=0.0476  <S**2>=0.000
     309 -> 313        0.17497
     310 -> 314        0.61835
     312 -> 316        0.26274

 Excited State   4:      Singlet-A      2.1926 eV  565.47 nm  f=0.1448  <S**2>=0.000
     309 -> 313        0.61647
     310 -> 314       -0.17385
     311 -> 315       -0.26801

 Excited State   5:      Singlet-A      2.7822 eV  445.64 nm  f=0.0000  <S**2>=0.000
     312 -> 313        0.70706

 The electronic state is 1-A.
 Alpha  occ. eigenvalues --  -46.87726 -46.87574 -19.26239 -19.26153 -19.19052
 Alpha  occ. eigenvalues --  -19.18882 -19.18764 -19.18640 -19.18072 -19.17919
 Alpha  occ. eigenvalues --  -14.42414 -14.42380 -14.41382 -14.41273 -14.39334
 Alpha  occ. eigenvalues --  -14.39266 -14.38511 -14.38507 -10.38981 -10.38948
 Alpha  occ. eigenvalues --  -10.35399 -10.35320 -10.34291 -10.34098 -10.31652
 Alpha  occ. eigenvalues --  -10.31540 -10.31329 -10.31219 -10.30944 -10.30839
 Alpha  occ. eigenvalues --  -10.30494 -10.30435 -10.30305 -10.30265 -10.30148
 Alpha  occ. eigenvalues --  -10.30064 -10.29850 -10.29803 -10.29559 -10.29353
 Alpha  occ. eigenvalues --  -10.29308 -10.29189 -10.28674 -10.28645 -10.28595
 Alpha  occ. eigenvalues --  -10.28462 -10.28314 -10.28291 -10.28070 -10.28047
 Alpha  occ. eigenvalues --  -10.27902 -10.27718 -10.27659 -10.27587 -10.27517
 Alpha  occ. eigenvalues --  -10.27448 -10.27442 -10.27434 -10.27401 -10.27396
 Alpha  occ. eigenvalues --  -10.27394 -10.27378 -10.27328 -10.27299 -10.27059
 Alpha  occ. eigenvalues --  -10.26934 -10.26624 -10.26623 -10.26376 -10.26357
 Alpha  occ. eigenvalues --  -10.26171 -10.26137 -10.26067 -10.25964 -10.25952
 Alpha  occ. eigenvalues --  -10.25848 -10.25754 -10.25708 -10.25387 -10.25326
 Alpha  occ. eigenvalues --  -10.24771 -10.24754 -10.24720 -10.24662 -10.24644
 Alpha  occ. eigenvalues --  -10.24603  -3.16468  -3.16324  -1.91350  -1.91206
 Alpha  occ. eigenvalues --   -1.90937  -1.90795  -1.90779  -1.90632  -1.16533
 Alpha  occ. eigenvalues --   -1.16501  -1.08525  -1.08523  -1.07167  -1.06894
 Alpha  occ. eigenvalues --   -1.06835  -1.06507  -1.04509  -1.04410  -1.03692
 Alpha  occ. eigenvalues --   -1.03577  -1.03163  -1.02951  -1.02340  -1.02022
 Alpha  occ. eigenvalues --   -0.91891  -0.91890  -0.89457  -0.89410  -0.89116
 Alpha  occ. eigenvalues --   -0.89077  -0.88227  -0.88140  -0.87791  -0.87684
 Alpha  occ. eigenvalues --   -0.87603  -0.87600  -0.87215  -0.87042  -0.84922
 Alpha  occ. eigenvalues --   -0.84910  -0.83875  -0.83795  -0.82917  -0.82859
 Alpha  occ. eigenvalues --   -0.82576  -0.82575  -0.81498  -0.81490  -0.80516
 Alpha  occ. eigenvalues --   -0.80352  -0.78732  -0.78548  -0.77151  -0.77063
 Alpha  occ. eigenvalues --   -0.76856  -0.76815  -0.75842  -0.75752  -0.74833
 Alpha  occ. eigenvalues --   -0.74721  -0.72703  -0.72606  -0.71601  -0.71497
 Alpha  occ. eigenvalues --   -0.69852  -0.69682  -0.68802  -0.68748  -0.67568
 Alpha  occ. eigenvalues --   -0.67512  -0.67150  -0.67126  -0.65210  -0.65189
 Alpha  occ. eigenvalues --   -0.64775  -0.64682  -0.64567  -0.64543  -0.64205
 Alpha  occ. eigenvalues --   -0.64121  -0.62196  -0.62180  -0.60382  -0.60259
 Alpha  occ. eigenvalues --   -0.59732  -0.59715  -0.58914  -0.58903  -0.58428
 Alpha  occ. eigenvalues --   -0.58333  -0.57486  -0.57444  -0.57235  -0.57148
 Alpha  occ. eigenvalues --   -0.56236  -0.56111  -0.55874  -0.55792  -0.55453
 Alpha  occ. eigenvalues --   -0.55365  -0.55263  -0.55158  -0.54435  -0.54397
 Alpha  occ. eigenvalues --   -0.53838  -0.53821  -0.53232  -0.53150  -0.53141
 Alpha  occ. eigenvalues --   -0.53057  -0.52828  -0.52814  -0.52696  -0.52598
 Alpha  occ. eigenvalues --   -0.52380  -0.52323  -0.51829  -0.51760  -0.51581
 Alpha  occ. eigenvalues --   -0.51543  -0.51116  -0.51102  -0.50525  -0.50407
 Alpha  occ. eigenvalues --   -0.49976  -0.49905  -0.49859  -0.49788  -0.49446
 Alpha  occ. eigenvalues --   -0.49409  -0.49136  -0.49113  -0.49021  -0.49012
 Alpha  occ. eigenvalues --   -0.48507  -0.48464  -0.48402  -0.48369  -0.48289
 Alpha  occ. eigenvalues --   -0.48253  -0.47626  -0.47513  -0.47229  -0.47037
 Alpha  occ. eigenvalues --   -0.46728  -0.46625  -0.46481  -0.46478  -0.46288
 Alpha  occ. eigenvalues --   -0.46183  -0.46082  -0.45990  -0.45729  -0.45717
 Alpha  occ. eigenvalues --   -0.45140  -0.45128  -0.44491  -0.44447  -0.44424
 Alpha  occ. eigenvalues --   -0.44390  -0.44080  -0.44041  -0.44019  -0.43995
 Alpha  occ. eigenvalues --   -0.43939  -0.43849  -0.43459  -0.43401  -0.43318
 Alpha  occ. eigenvalues --   -0.43299  -0.42952  -0.42835  -0.42798  -0.42622
 Alpha  occ. eigenvalues --   -0.42554  -0.42475  -0.41941  -0.41884  -0.41626
 Alpha  occ. eigenvalues --   -0.41569  -0.41463  -0.41382  -0.41071  -0.40906
 Alpha  occ. eigenvalues --   -0.40803  -0.40768  -0.40650  -0.40626  -0.40508
 Alpha  occ. eigenvalues --   -0.40413  -0.40161  -0.40158  -0.39389  -0.39351
 Alpha  occ. eigenvalues --   -0.38409  -0.38274  -0.37673  -0.37580  -0.37257
 Alpha  occ. eigenvalues --   -0.37188  -0.37185  -0.37118  -0.36670  -0.36607
 Alpha  occ. eigenvalues --   -0.36130  -0.36103  -0.34213  -0.34164  -0.33757
 Alpha  occ. eigenvalues --   -0.33644  -0.33109  -0.33087  -0.31293  -0.31199
 Alpha  occ. eigenvalues --   -0.30963  -0.30886  -0.29930  -0.29822  -0.29381
 Alpha  occ. eigenvalues --   -0.29243  -0.29239  -0.29108  -0.24008  -0.23948
 Alpha  occ. eigenvalues --   -0.21057  -0.21029
 Alpha virt. eigenvalues --   -0.08704  -0.08701  -0.01683  -0.01600   0.00007
 Alpha virt. eigenvalues --    0.00055   0.02283   0.02316   0.03199   0.03309
 Alpha virt. eigenvalues --    0.04789   0.04808   0.05223   0.05275   0.06251

 Mulliken charges:
               1
     1  Mg   0.838843
     2  C   -0.002694
     3  C   -0.094218
     4  C   -0.045978
     5  C   -0.064050
     6  N   -0.256726
     7  C   -0.052402
     8  C   -0.014009
     9  C   -0.086973
    10  C    0.046276
    11  C    0.104866
    12  C    0.053512
    13  C   -0.071757
    14  H    0.036385
    15  N   -0.433064
    16  C    0.168299
    17  C   -0.177340
    18  C   -0.004185
    19  C    0.148630
    20  C    0.110251
    21  C    0.012122
    22  O   -0.249865
    23  C    0.062561
    24  N   -0.341126
    25  C    0.041140
    26  C   -0.028077
    27  C   -0.024020
    28  C    0.074928
    29  C    0.076220
    30  C    0.035170
    31  C   -0.004472
    32  N   -0.310602
    33  C    0.080632
    34  C   -0.169398
    35  C    0.008615
    36  C    0.083251
    37  C    0.127184
    38  C    0.046589
    39  O   -0.187795
    40  C   -0.005513
    41  C    0.212877
    42  O   -0.256146
    43  O   -0.305098
    44  C    0.157408
    45  H   -0.017827
    46  H   -0.017078
    47  H   -0.041467
    48  H    0.000978
    49  H   -0.004234
    50  H    0.025488
    51  H    0.016356
    52  H    0.016453
    53  H    0.011000
    54  H    0.044707
    55  H    0.017762
    56  H    0.017554
    57  H    0.005742
    58  H    0.026616
    59  H    0.039174
    60  H    0.037279
    61  H    0.035384
    62  H    0.031296
    63  H    0.016332
    64  H    0.009431
    65  H    0.023012
    66  H    0.012530
    67  H    0.004682
    68  H    0.006138
    69  H    0.004834
    70  H    0.008503
    71  H    0.017964
    72  H    0.029286
    73  H    0.048227
    74  H    0.009049
    75  H    0.045919
    76  H    0.034999
    77  H    0.042950
    78  H    0.045999
    79  H    0.054710
    80  Mg   0.837717
    81  C   -0.016776
    82  C   -0.087897
    83  C   -0.045587
    84  C   -0.064858
    85  N   -0.254508
    86  C   -0.049782
    87  C   -0.015068
    88  C   -0.090496
    89  C    0.045644
    90  C    0.114411
    91  C    0.062585
    92  C   -0.077746
    93  H    0.034824
    94  N   -0.423450
    95  C    0.162766
    96  C   -0.174865
    97  C   -0.007988
    98  C    0.151978
    99  C    0.099462
   100  C    0.015424
   101  O   -0.253398
   102  C    0.061264
   103  N   -0.350053
   104  C    0.037398
   105  C   -0.019782
   106  C   -0.034853
   107  C    0.089016
   108  C    0.073711
   109  C    0.034734
   110  C   -0.007639
   111  N   -0.324233
   112  C    0.078565
   113  C   -0.162955
   114  C    0.002725
   115  C    0.096136
   116  C    0.131550
   117  C    0.042888
   118  O   -0.186315
   119  C    0.000709
   120  C    0.211432
   121  O   -0.251187
   122  O   -0.305506
   123  C    0.152026
   124  H   -0.020043
   125  H   -0.015771
   126  H   -0.040291
   127  H   -0.000570
   128  H   -0.004585
   129  H    0.022645
   130  H    0.014338
   131  H    0.015768
   132  H    0.013828
   133  H    0.037795
   134  H    0.020648
   135  H    0.019355
   136  H    0.008519
   137  H    0.025820
   138  H    0.039555
   139  H    0.038090
   140  H    0.036179
   141  H    0.033818
   142  H    0.014252
   143  H    0.012497
   144  H    0.024939
   145  H    0.011583
   146  H    0.005689
   147  H    0.006106
   148  H    0.003727
   149  H    0.010818
   150  H    0.017886
   151  H    0.030172
   152  H    0.046471
   153  H    0.008211
   154  H    0.048097
   155  H    0.035586
   156  H    0.044210
   157  H    0.049070
   158  H    0.053566
 Sum of Mulliken charges =  -0.00000

 Dipole moment (field-independent basis, Debye):
    X=              0.9494    Y=             -1.1273    Z=              8.2532  Tot=              8.3838
 Quadrupole moment (field-independent basis, Debye-Ang):
   XX=           -478.6277   YY=           -525.4233   ZZ=           -470.6080
   XY=            -17.8058   XZ=             -5.0993   YZ=             59.2940

 Normal termination of Gaussian 16 at Sun Sep 12 04:22:44 2021.
