 Gaussian 16, Revision A.03,
 Gaussian 16:  ES64L-G16RevA.03 25-Dec-2016

 -----------------------------------
 #p cam-b3lyp/Def2SVP td=(nstates=5)
 -----------------------------------

 --------------------------------
 TDDFT excited states in gaussian
 --------------------------------
 Symbolic Z-matrix:
 Charge =  0 Multiplicity = 1

                         Standard orientation:
 ---------------------------------------------------------------------
 Center     Atomic      Atomic             Coordinates (Angstroms)
 Number     Number       Type             X           Y           Z
 ---------------------------------------------------------------------
      1         12           0        3.708186    0.605673    1.587041
      2          6           0        4.842892   -2.295699   -0.175542
      3          6           0        5.558429    2.469679   -0.591295
      4          6           0        3.088476    3.135941    3.395444
      5          6           0        2.901561   -1.503707    4.241383
      6          7           0        4.993491    0.043126   -0.125320
      7          6           0        5.297013   -1.098919   -0.734235
      8          6           0        6.080713   -0.899728   -2.065967
      9          6           0        6.713082    0.534412   -1.773817
     10          6           0        5.675831    1.063217   -0.798934
     11          6           0        8.063849    0.472370   -1.068067
     12          6           0        5.134614   -0.865389   -3.313144
     13          6           0        5.834733   -1.001950   -4.668333
     14          1           0        5.162883   -1.731189   -5.733310
     15          7           0        3.829233    2.534346    1.176655
     16          6           0        4.623878    3.116059    0.246367
     17          6           0        4.350167    4.567047    0.326343
     18          6           0        3.472875    4.800199    1.507060
     19          6           0        3.449501    3.485888    2.096481
     20          6           0        4.858304    5.556742   -0.676677
     21          6           0        2.776043    6.017157    2.028185
     22          8           0        2.254396    6.055033    3.194815
     23          6           0        2.797447    7.208596    1.160397
     24          7           0        3.288048    0.829912    3.619487
     25          6           0        2.999370    2.029344    4.136220
     26          6           0        2.460671    1.907747    5.530837
     27          6           0        2.211542    0.349394    5.774193
     28          6           0        2.758450   -0.189848    4.429433
     29          6           0        3.358742    2.461213    6.645805
     30          6           0        0.788017   -0.074773    6.214736
     31          6           0       -0.191447    0.167922    5.088305
     32          7           0        3.670407   -1.537335    1.929293
     33          6           0        3.322672   -2.195327    3.117906
     34          6           0        3.553674   -3.634928    2.898233
     35          6           0        4.038599   -3.713233    1.594177
     36          6           0        4.131031   -2.402974    1.043751
     37          6           0        3.371135   -4.664938    3.862697
     38          6           0        4.523431   -4.596796    0.546269
     39          8           0        4.586591   -5.818620    0.402563
     40          6           0        5.178381   -3.704302   -0.598424
     41          6           0        4.640426   -4.189622   -1.916899
     42          8           0        3.435148   -4.047340   -2.207464
     43          8           0        5.663273   -4.525390   -2.717888
     44          6           0        5.199415   -4.987682   -4.053282
     45          1           0        6.282892    3.135372   -1.064524
     46          1           0        2.761078    3.971196    4.018017
     47          1           0        2.592601   -2.230072    4.995300
     48          1           0        6.873340   -1.627628   -2.240113
     49          1           0        6.743518    1.155701   -2.668689
     50          1           0        8.309246   -0.545758   -0.766213
     51          1           0        7.965005    1.115431   -0.193312
     52          1           0        8.843537    0.921674   -1.683689
     53          1           0        4.717076    0.135755   -3.420079
     54          1           0        4.358654   -1.627146   -3.229841
     55          1           0        6.860666   -1.352881   -4.553364
     56          1           0        5.935746   -0.007154   -5.102356
     57          1           0        5.608727    5.114623   -1.330849
     58          1           0        5.399172    6.323173   -0.121921
     59          1           0        4.049940    6.016284   -1.245625
     60          1           0        3.831583    7.494773    0.967484
     61          1           0        2.174798    7.952694    1.655851
     62          1           0        2.365740    6.948881    0.193378
     63          1           0        1.516258    2.440711    5.633105
     64          1           0        2.861327   -0.052094    6.552178
     65          1           0        2.876016    3.221927    7.259804
     66          1           0        4.267262    2.848671    6.185630
     67          1           0        3.762614    1.709143    7.323075
     68          1           0        0.458323    0.526222    7.061526
     69          1           0        0.722225   -1.123034    6.506408
     70          1           0       -0.438806    1.222581    5.203802
     71          1           0       -1.076694   -0.456617    5.212797
     72          1           0        0.284362    0.049563    4.114609
     73          1           0        2.872790   -5.483760    3.343899
     74          1           0        2.780842   -4.314712    4.709160
     75          1           0        4.406013   -4.873930    4.133262
     76          1           0        6.256937   -3.838459   -0.521988
     77          1           0        5.621274   -5.979900   -4.213825
     78          1           0        5.465954   -4.203753   -4.762378
     79          1           0        4.133714   -5.199598   -4.146618
     80         12           0       -3.533459    0.295999   -1.636189
     81          6           0       -5.453354   -1.752545    0.599101
     82          6           0       -5.643635    2.860770   -0.859213
     83          6           0       -2.147911    1.998468   -3.927328
     84          6           0       -2.327739   -2.642169   -3.071152
     85          7           0       -5.284329    0.415429   -0.289932
     86          6           0       -5.883478   -0.409982    0.555108
     87          6           0       -6.953556    0.259571    1.458537
     88          6           0       -7.307752    1.514935    0.521791
     89          6           0       -5.987355    1.634324   -0.236484
     90          6           0       -8.410652    1.224282   -0.482427
     91          6           0       -6.366886    0.720349    2.838936
     92          6           0       -7.414072    1.099652    3.888364
     93          1           0       -7.139677    0.790392    5.288908
     94          7           0       -3.519158    2.255567   -1.949989
     95          6           0       -4.443595    3.151329   -1.544643
     96          6           0       -3.984688    4.456894   -2.043720
     97          6           0       -2.800280    4.235269   -2.917079
     98          6           0       -2.788890    2.787666   -2.983473
     99          6           0       -4.607970    5.754990   -1.619589
    100          6           0       -1.844646    5.171621   -3.592513
    101          8           0       -1.031626    4.767132   -4.497059
    102          6           0       -1.953031    6.592503   -3.230767
    103          7           0       -2.567061   -0.234757   -3.398780
    104          6           0       -2.008337    0.698708   -4.188969
    105          6           0       -1.137035    0.066458   -5.247973
    106          6           0       -1.034183   -1.479782   -4.852840
    107          6           0       -1.977961   -1.491892   -3.630333
    108          6           0       -1.640690    0.191658   -6.685691
    109          6           0        0.392866   -2.071353   -4.690817
    110          6           0        1.072563   -1.457458   -3.488110
    111          7           0       -3.671274   -1.816440   -1.204162
    112          6           0       -3.111623   -2.877675   -1.948897
    113          6           0       -3.573238   -4.136173   -1.327983
    114          6           0       -4.394532   -3.716565   -0.270678
    115          6           0       -4.457642   -2.297069   -0.247556
    116          6           0       -3.265636   -5.449628   -1.782230
    117          6           0       -5.230962   -4.151864    0.824578
    118          8           0       -5.487228   -5.237510    1.343663
    119          6           0       -6.055090   -2.902111    1.358729
    120          6           0       -5.948978   -2.882625    2.859024
    121          8           0       -4.853183   -2.684197    3.412620
    122          8           0       -7.186002   -2.884033    3.388307
    123          6           0       -7.133172   -2.853988    4.874282
    124          1           0       -6.378944    3.665882   -0.860664
    125          1           0       -1.563373    2.539046   -4.675367
    126          1           0       -1.917492   -3.599505   -3.399608
    127          1           0       -7.840807   -0.337813    1.630859
    128          1           0       -7.490656    2.409073    1.112074
    129          1           0       -8.693591    0.182130   -0.479721
    130          1           0       -8.010882    1.505281   -1.447964
    131          1           0       -9.264635    1.884553   -0.306069
    132          1           0       -5.869452    1.690328    2.710748
    133          1           0       -5.706651   -0.023946    3.239859
    134          1           0       -8.418937    0.759883    3.609518
    135          1           0       -7.497793    2.188767    3.917188
    136          1           0       -5.562065    5.593250   -1.102935
    137          1           0       -4.881946    6.292018   -2.534142
    138          1           0       -3.927688    6.377560   -1.034519
    139          1           0       -2.957224    6.945986   -3.452379
    140          1           0       -1.130010    7.089365   -3.748117
    141          1           0       -1.817212    6.689148   -2.147798
    142          1           0       -0.143684    0.498080   -5.239819
    143          1           0       -1.496535   -2.126265   -5.613187
    144          1           0       -0.912874    0.677972   -7.362343
    145          1           0       -2.573756    0.739187   -6.674036
    146          1           0       -1.929050   -0.746220   -7.157328
    147          1           0        1.008270   -1.818608   -5.557739
    148          1           0        0.403938   -3.151678   -4.591981
    149          1           0        1.467659   -0.516137   -3.881678
    150          1           0        1.872538   -2.102115   -3.129641
    151          1           0        0.343371   -1.208523   -2.708384
    152          1           0       -3.030723   -6.035824   -0.903771
    153          1           0       -2.438585   -5.442342   -2.489122
    154          1           0       -4.211784   -5.717284   -2.260179
    155          1           0       -7.085823   -3.021554    1.022744
    156          1           0       -7.707557   -3.714168    5.231848
    157          1           0       -7.495216   -1.850173    5.165853
    158          1           0       -6.173201   -3.030124    5.345331
 ---------------------------------------------------------------------

 SCF Done:  E(RCAM-B3LYP) =  -4069.81490512     A.U. after   19 cycles

 Excitation energies and oscillator strengths:

 Excited State   1:      Singlet-A      1.6353 eV  758.16 nm  f=0.0035  <S**2>=0.000
     309 -> 315       -0.11242
     310 -> 316        0.11888
     311 -> 313       -0.47087
     312 -> 314        0.50203
 This state for optimization and/or second-order correction.
 Total Energy, E(TD-HF/TD-DFT) =  -4069.75480783
 Copying the excited state density for this state as the 1-particle RhoCI density.

 Excited State   2:      Singlet-A      1.7079 eV  725.95 nm  f=0.6824  <S**2>=0.000
     309 -> 315        0.13338
     310 -> 316        0.12405
     311 -> 313        0.49881
     312 -> 314        0.46788

 Excited State   3:      Singlet-A      2.1786 eV  569.10 nm  f=0.0246  <S**2>=0.000
     309 -> 313        0.30044
     310 -> 314        0.57127
     311 -> 315       -0.12292
     312 -> 316       -0.23633

 Excited State   4:      Singlet-A      2.1960 eV  564.59 nm  f=0.1511  <S**2>=0.000
     309 -> 313        0.56613
     310 -> 314       -0.29558
     311 -> 315       -0.24911
     312 -> 316        0.13227

 Excited State   5:      Singlet-A      2.3555 eV  526.35 nm  f=0.0000  <S**2>=0.000
     312 -> 313        0.70698

 The electronic state is 1-A.
 Alpha  occ. eigenvalues --  -46.87629 -46.87369 -19.26579 -19.26230 -19.19444
 Alpha  occ. eigenvalues --  -19.19031 -19.18708 -19.18570 -19.18098 -19.17813
 Alpha  occ. eigenvalues --  -14.42291 -14.42217 -14.41275 -14.41036 -14.39238
 Alpha  occ. eigenvalues --  -14.39074 -14.38420 -14.38299 -10.39422 -10.38949
 Alpha  occ. eigenvalues --  -10.35344 -10.35257 -10.34333 -10.33991 -10.31941
 Alpha  occ. eigenvalues --  -10.31677 -10.31258 -10.31016 -10.30798 -10.30791
 Alpha  occ. eigenvalues --  -10.30402 -10.30342 -10.30095 -10.30046 -10.30005
 Alpha  occ. eigenvalues --  -10.29799 -10.29741 -10.29554 -10.29466 -10.29151
 Alpha  occ. eigenvalues --  -10.29108 -10.29073 -10.28691 -10.28595 -10.28530
 Alpha  occ. eigenvalues --  -10.28521 -10.28232 -10.28150 -10.28017 -10.27921
 Alpha  occ. eigenvalues --  -10.27722 -10.27629 -10.27557 -10.27424 -10.27383
 Alpha  occ. eigenvalues --  -10.27290 -10.27274 -10.27248 -10.27237 -10.27235
 Alpha  occ. eigenvalues --  -10.27213 -10.27196 -10.27190 -10.27011 -10.26989
 Alpha  occ. eigenvalues --  -10.26840 -10.26707 -10.26530 -10.26378 -10.26341
 Alpha  occ. eigenvalues --  -10.26137 -10.25825 -10.25810 -10.25797 -10.25585
 Alpha  occ. eigenvalues --  -10.25548 -10.25420 -10.25325 -10.25263 -10.25126
 Alpha  occ. eigenvalues --  -10.24683 -10.24630 -10.24594 -10.24401 -10.24162
 Alpha  occ. eigenvalues --  -10.23487  -3.16371  -3.16119  -1.91253  -1.91002
 Alpha  occ. eigenvalues --   -1.90839  -1.90681  -1.90589  -1.90427  -1.16935
 Alpha  occ. eigenvalues --   -1.16519  -1.08585  -1.08427  -1.07114  -1.07010
 Alpha  occ. eigenvalues --   -1.06834  -1.06810  -1.04435  -1.04223  -1.03591
 Alpha  occ. eigenvalues --   -1.03369  -1.03065  -1.02724  -1.02244  -1.01810
 Alpha  occ. eigenvalues --   -0.91880  -0.91721  -0.89301  -0.89098  -0.89084
 Alpha  occ. eigenvalues --   -0.88907  -0.88067  -0.87770  -0.87682  -0.87522
 Alpha  occ. eigenvalues --   -0.87471  -0.87389  -0.87116  -0.86898  -0.84896
 Alpha  occ. eigenvalues --   -0.84766  -0.83723  -0.83397  -0.82815  -0.82701
 Alpha  occ. eigenvalues --   -0.82574  -0.82373  -0.81587  -0.81354  -0.80508
 Alpha  occ. eigenvalues --   -0.80193  -0.78629  -0.78365  -0.77059  -0.76864
 Alpha  occ. eigenvalues --   -0.76861  -0.76565  -0.75847  -0.75588  -0.74726
 Alpha  occ. eigenvalues --   -0.74432  -0.72599  -0.72374  -0.71544  -0.71307
 Alpha  occ. eigenvalues --   -0.69611  -0.69158  -0.68771  -0.68568  -0.67523
 Alpha  occ. eigenvalues --   -0.67339  -0.67149  -0.67008  -0.65209  -0.65037
 Alpha  occ. eigenvalues --   -0.64779  -0.64505  -0.64480  -0.64372  -0.64059
 Alpha  occ. eigenvalues --   -0.63748  -0.62334  -0.62031  -0.60278  -0.60076
 Alpha  occ. eigenvalues --   -0.59692  -0.59553  -0.58856  -0.58694  -0.58398
 Alpha  occ. eigenvalues --   -0.58136  -0.57639  -0.57333  -0.57160  -0.56915
 Alpha  occ. eigenvalues --   -0.56255  -0.56016  -0.55927  -0.55684  -0.55434
 Alpha  occ. eigenvalues --   -0.55258  -0.55250  -0.54908  -0.54491  -0.54087
 Alpha  occ. eigenvalues --   -0.53827  -0.53697  -0.53171  -0.53144  -0.52991
 Alpha  occ. eigenvalues --   -0.52943  -0.52838  -0.52662  -0.52642  -0.52503
 Alpha  occ. eigenvalues --   -0.52117  -0.51763  -0.51662  -0.51542  -0.51512
 Alpha  occ. eigenvalues --   -0.51453  -0.51073  -0.50856  -0.50413  -0.50272
 Alpha  occ. eigenvalues --   -0.49876  -0.49751  -0.49738  -0.49525  -0.49343
 Alpha  occ. eigenvalues --   -0.49234  -0.49136  -0.49006  -0.48983  -0.48830
 Alpha  occ. eigenvalues --   -0.48558  -0.48373  -0.48334  -0.48292  -0.48160
 Alpha  occ. eigenvalues --   -0.48021  -0.47582  -0.47326  -0.47174  -0.46865
 Alpha  occ. eigenvalues --   -0.46641  -0.46491  -0.46406  -0.46287  -0.46229
 Alpha  occ. eigenvalues --   -0.46030  -0.45936  -0.45767  -0.45763  -0.45543
 Alpha  occ. eigenvalues --   -0.45017  -0.44818  -0.44512  -0.44371  -0.44305
 Alpha  occ. eigenvalues --   -0.44172  -0.44047  -0.43958  -0.43915  -0.43880
 Alpha  occ. eigenvalues --   -0.43739  -0.43644  -0.43484  -0.43286  -0.43210
 Alpha  occ. eigenvalues --   -0.43102  -0.42908  -0.42819  -0.42703  -0.42613
 Alpha  occ. eigenvalues --   -0.42413  -0.42121  -0.41806  -0.41588  -0.41469
 Alpha  occ. eigenvalues --   -0.41426  -0.41379  -0.41049  -0.41016  -0.40759
 Alpha  occ. eigenvalues --   -0.40727  -0.40714  -0.40568  -0.40413  -0.40348
 Alpha  occ. eigenvalues --   -0.40207  -0.40057  -0.39967  -0.39119  -0.38744
 Alpha  occ. eigenvalues --   -0.38271  -0.37950  -0.37690  -0.37439  -0.37171
 Alpha  occ. eigenvalues --   -0.37126  -0.36964  -0.36896  -0.36848  -0.36574
 Alpha  occ. eigenvalues --   -0.36101  -0.35848  -0.34183  -0.34045  -0.33962
 Alpha  occ. eigenvalues --   -0.33700  -0.33042  -0.32875  -0.31239  -0.31129
 Alpha  occ. eigenvalues --   -0.30904  -0.30691  -0.29968  -0.29716  -0.29289
 Alpha  occ. eigenvalues --   -0.29160  -0.29071  -0.28921  -0.23929  -0.23738
 Alpha  occ. eigenvalues --   -0.20954  -0.20815
 Alpha virt. eigenvalues --   -0.08615  -0.08509  -0.01586  -0.01391   0.00068
 Alpha virt. eigenvalues --    0.00182   0.02300   0.02415   0.02501   0.04458
 Alpha virt. eigenvalues --    0.04676   0.04810   0.04997   0.05318   0.06018

 Mulliken charges:
               1
     1  Mg   0.838847
     2  C   -0.006132
     3  C   -0.093092
     4  C   -0.045871
     5  C   -0.061812
     6  N   -0.256742
     7  C   -0.052865
     8  C   -0.012268
     9  C   -0.087291
    10  C    0.046735
    11  C    0.104920
    12  C    0.047215
    13  C   -0.071464
    14  H    0.032459
    15  N   -0.433209
    16  C    0.169239
    17  C   -0.176184
    18  C   -0.004124
    19  C    0.148739
    20  C    0.110016
    21  C    0.011709
    22  O   -0.250518
    23  C    0.062219
    24  N   -0.341210
    25  C    0.041473
    26  C   -0.027803
    27  C   -0.024187
    28  C    0.075047
    29  C    0.076423
    30  C    0.034770
    31  C   -0.005853
    32  N   -0.310984
    33  C    0.081192
    34  C   -0.167495
    35  C    0.007691
    36  C    0.084411
    37  C    0.127087
    38  C    0.046121
    39  O   -0.188978
    40  C   -0.005943
    41  C    0.215896
    42  O   -0.252727
    43  O   -0.303660
    44  C    0.157014
    45  H   -0.017887
    46  H   -0.017323
    47  H   -0.039843
    48  H   -0.000189
    49  H   -0.003591
    50  H    0.025116
    51  H    0.016717
    52  H    0.016512
    53  H    0.015595
    54  H    0.045142
    55  H    0.018162
    56  H    0.019411
    57  H    0.006173
    58  H    0.025833
    59  H    0.041863
    60  H    0.037775
    61  H    0.033822
    62  H    0.031861
    63  H    0.016306
    64  H    0.008938
    65  H    0.022472
    66  H    0.011988
    67  H    0.004650
    68  H    0.004805
    69  H    0.006530
    70  H    0.005366
    71  H    0.028335
    72  H    0.028239
    73  H    0.048821
    74  H    0.011287
    75  H    0.045123
    76  H    0.035582
    77  H    0.044570
    78  H    0.047485
    79  H    0.051496
    80  Mg   0.837076
    81  C   -0.017873
    82  C   -0.088060
    83  C   -0.046132
    84  C   -0.061102
    85  N   -0.254675
    86  C   -0.049787
    87  C   -0.015165
    88  C   -0.090423
    89  C    0.045427
    90  C    0.114582
    91  C    0.062558
    92  C   -0.077334
    93  H    0.033268
    94  N   -0.423271
    95  C    0.162640
    96  C   -0.175000
    97  C   -0.008661
    98  C    0.151746
    99  C    0.099409
   100  C    0.014064
   101  O   -0.255370
   102  C    0.061366
   103  N   -0.350662
   104  C    0.037994
   105  C   -0.018788
   106  C   -0.033064
   107  C    0.089706
   108  C    0.074508
   109  C    0.033820
   110  C   -0.028696
   111  N   -0.324673
   112  C    0.079627
   113  C   -0.160109
   114  C    0.001551
   115  C    0.096982
   116  C    0.131021
   117  C    0.042500
   118  O   -0.188230
   119  C    0.000788
   120  C    0.211457
   121  O   -0.252233
   122  O   -0.305379
   123  C    0.152483
   124  H   -0.020652
   125  H   -0.017129
   126  H   -0.036613
   127  H   -0.001158
   128  H   -0.004763
   129  H    0.022070
   130  H    0.014397
   131  H    0.015561
   132  H    0.014553
   133  H    0.036824
   134  H    0.020657
   135  H    0.019751
   136  H    0.008549
   137  H    0.024856
   138  H    0.039464
   139  H    0.038811
   140  H    0.033128
   141  H    0.033466
   142  H    0.013404
   143  H    0.010339
   144  H    0.022743
   145  H    0.010555
   146  H    0.005067
   147  H   -0.000682
   148  H    0.009021
   149  H    0.000497
   150  H    0.052520
   151  H    0.023384
   152  H    0.047398
   153  H    0.012957
   154  H    0.045372
   155  H    0.034521
   156  H    0.043724
   157  H    0.049347
   158  H    0.052225
 Sum of Mulliken charges =  -0.00000

 Dipole moment (field-independent basis, Debye):
    X=              0.5770    Y=              6.4266    Z=             -1.6720  Tot=              6.6656
 Quadrupole moment (field-independent basis, Debye-Ang):
   XX=           -458.5175   YY=           -538.2609   ZZ=           -484.2132
   XY=            -13.6828   XZ=            -21.8175   YZ=              8.5701

 Normal termination of Gaussian 16 at Wed Sep  8 17:24:39 2021.
