 Gaussian 16, Revision A.03,
 Gaussian 16:  ES64L-G16RevA.03 25-Dec-2016

 -----------------------------------
 #p cam-b3lyp/Def2SVP td=(nstates=5)
 -----------------------------------

 --------------------------------
 TDDFT excited states in gaussian
 --------------------------------
 Symbolic Z-matrix:
 Charge =  0 Multiplicity = 1

                         Standard orientation:
 ---------------------------------------------------------------------
 Center     Atomic      Atomic             Coordinates (Angstroms)
 Number     Number       Type             X           Y           Z
 ---------------------------------------------------------------------
      1         12           0       -7.619136   -1.061634    0.432429
      2          6           0       -8.004361    2.474323    0.031403
      3          6           0       -8.602059   -1.387342   -2.818854
      4          6           0       -7.725358   -4.197527    0.892334
      5          6           0       -7.776807   -0.539581    3.874559
      6          7           0       -8.200882    0.429119   -1.097236
      7          6           0       -8.249033    1.756854   -1.141635
      8          6           0       -8.510081    2.318145   -2.571384
      9          6           0       -9.228209    1.047644   -3.213347
     10          6           0       -8.614971   -0.040289   -2.349480
     11          6           0      -10.740570    1.037902   -3.015435
     12          6           0       -7.182480    2.667257   -3.324595
     13          6           0       -7.351641    3.517931   -4.586772
     14          1           0       -6.332777    4.506251   -4.906909
     15          7           0       -7.617327   -2.548141   -0.868779
     16          6           0       -8.037800   -2.498483   -2.155645
     17          6           0       -7.834102   -3.856732   -2.703684
     18          6           0       -7.438833   -4.747317   -1.577311
     19          6           0       -7.605633   -3.860960   -0.453955
     20          6           0       -7.967610   -4.185364   -4.158993
     21          6           0       -6.993170   -6.174326   -1.521083
     22          8           0       -6.921984   -6.821814   -0.420962
     23          6           0       -6.723381   -6.829706   -2.813652
     24          7           0       -7.954215   -2.238250    2.123858
     25          6           0       -7.888028   -3.572631    2.060362
     26          6           0       -7.879535   -4.184673    3.429767
     27          6           0       -7.708191   -2.972330    4.454763
     28          6           0       -7.731396   -1.801485    3.441426
     29          6           0       -9.124706   -4.999332    3.806452
     30          6           0       -6.528281   -3.058700    5.455149
     31          6           0       -5.215898   -2.952047    4.711260
     32          7           0       -7.670995    0.658420    1.755217
     33          6           0       -7.758833    0.643401    3.154764
     34          6           0       -7.873054    2.045815    3.595508
     35          6           0       -7.860325    2.782999    2.413035
     36          6           0       -7.771868    1.895622    1.302616
     37          6           0       -8.029354    2.486995    4.939147
     38          6           0       -7.925689    4.112479    1.828170
     39          8           0       -7.913692    5.259243    2.277926
     40          6           0       -8.144320    3.959070    0.258299
     41          6           0       -7.164208    4.870790   -0.428329
     42          8           0       -5.936964    4.652664   -0.367845
     43          8           0       -7.829061    5.709593   -1.237601
     44          6           0       -6.912524    6.622306   -1.971814
     45          1           0       -9.121133   -1.627219   -3.748888
     46          1           0       -7.654790   -5.266738    1.102684
     47          1           0       -7.744922   -0.294475    4.937743
     48          1           0       -9.176770    3.179951   -2.606596
     49          1           0       -8.947964    0.905866   -4.256939
     50          1           0      -11.060846    1.841846   -2.352851
     51          1           0      -10.970244    0.067402   -2.575123
     52          1           0      -11.257008    1.061174   -3.975397
     53          1           0       -6.770535    1.759891   -3.766238
     54          1           0       -6.474844    3.155002   -2.653267
     55          1           0       -8.345398    3.963881   -4.636633
     56          1           0       -7.307548    2.857050   -5.452504
     57          1           0       -8.428518   -3.368771   -4.713327
     58          1           0       -8.682962   -5.003907   -4.236249
     59          1           0       -7.017174   -4.484816   -4.600957
     60          1           0       -7.625466   -6.804152   -3.425321
     61          1           0       -6.330211   -7.817023   -2.573920
     62          1           0       -5.971383   -6.252253   -3.352164
     63          1           0       -7.042272   -4.871649    3.545878
     64          1           0       -8.585874   -2.845861    5.089076
     65          1           0       -8.904756   -6.028037    4.092969
     66          1           0       -9.815874   -4.967085    2.964705
     67          1           0       -9.731079   -4.566125    4.601475
     68          1           0       -6.531636   -4.022494    5.963121
     69          1           0       -6.553708   -2.281233    6.218792
     70          1           0       -5.043044   -3.973704    4.374850
     71          1           0       -4.423055   -2.623070    5.383856
     72          1           0       -5.311677   -2.328119    3.822426
     73          1           0       -7.365688    3.343353    5.058170
     74          1           0       -7.785056    1.695136    5.646877
     75          1           0       -9.089194    2.741051    4.946271
     76          1           0       -9.177030    4.241770    0.056527
     77          1           0       -7.233374    7.641414   -1.755689
     78          1           0       -6.921674    6.298999   -3.012868
     79          1           0       -5.880190    6.652920   -1.621545
     80         12           0        8.228591   -0.308118   -0.169919
     81          6           0        6.392749    2.772599   -0.036039
     82          6           0        6.073548   -1.312714   -2.615555
     83          6           0        9.537259   -3.193580    0.000167
     84          6           0        9.477254    0.459770    2.991874
     85          7           0        6.497750    0.690208   -1.118474
     86          6           0        5.931487    1.884297   -1.029813
     87          6           0        4.861384    2.171002   -2.117113
     88          6           0        4.463378    0.655386   -2.468361
     89          6           0        5.768099   -0.036475   -2.078878
     90          6           0        3.351075    0.106367   -1.590460
     91          6           0        5.459941    2.911471   -3.364291
     92          6           0        4.421720    3.496322   -4.324404
     93          1           0        4.726009    4.757607   -4.994503
     94          7           0        8.193098   -1.812673   -1.463603
     95          6           0        7.255264   -2.056149   -2.403002
     96          6           0        7.676068   -3.292185   -3.080711
     97          6           0        8.850750   -3.848127   -2.355620
     98          6           0        8.894015   -2.964905   -1.207516
     99          6           0        7.030406   -3.789180   -4.341486
    100          6           0        9.773608   -4.994045   -2.640943
    101          8           0       10.580694   -5.445669   -1.753553
    102          6           0        9.638817   -5.631910   -3.958691
    103          7           0        9.177818   -1.337458    1.366892
    104          6           0        9.702105   -2.558307    1.160584
    105          6           0       10.570116   -2.982442    2.321213
    106          6           0       10.714629   -1.685731    3.245991
    107          6           0        9.791519   -0.718965    2.472276
    108          6           0       10.040252   -4.147088    3.157415
    109          6           0       12.157249   -1.219117    3.583332
    110          6           0       12.842401   -0.715655    2.333345
    111          7           0        8.146024    1.388719    1.164995
    112          6           0        8.717439    1.489825    2.452376
    113          6           0        8.294849    2.788568    3.015506
    114          6           0        7.481645    3.347276    2.017981
    115          6           0        7.386595    2.450567    0.919638
    116          6           0        8.624807    3.281074    4.309599
    117          6           0        6.673414    4.487095    1.648824
    118          8           0        6.450485    5.590955    2.144326
    119          6           0        5.829891    4.110758    0.355285
    120          6           0        5.960100    5.240618   -0.629086
    121          8           0        7.060019    5.505346   -1.145520
    122          8           0        4.732273    5.679253   -0.961345
    123          6           0        4.808747    6.792824   -1.944169
    124          1           0        5.320158   -1.813382   -3.224345
    125          1           0       10.097001   -4.129405    0.066450
    126          1           0        9.903769    0.815680    3.932135
    127          1           0        3.990908    2.712227   -1.766208
    128          1           0        4.269847    0.533956   -3.530979
    129          1           0        3.092030    0.788688   -0.794550
    130          1           0        3.728464   -0.822950   -1.184271
    131          1           0        2.485279   -0.161869   -2.202662
    132          1           0        5.932983    2.174089   -4.025537
    133          1           0        6.143444    3.679886   -3.059373
    134          1           0        3.420424    3.530074   -3.878069
    135          1           0        4.313694    2.817736   -5.174031
    136          1           0        6.088840   -3.264406   -4.545103
    137          1           0        6.729315   -4.826456   -4.159123
    138          1           0        7.705825   -3.762830   -5.199270
    139          1           0        8.623343   -6.001876   -4.078649
    140          1           0       10.441718   -6.369907   -4.009618
    141          1           0        9.790135   -4.871244   -4.732705
    142          1           0       11.553375   -3.281813    1.979615
    143          1           0       10.254721   -1.836388    4.233730
    144          1           0       10.745603   -4.997304    3.218055
    145          1           0        9.095269   -4.466139    2.738189
    146          1           0        9.765641   -3.894012    4.180037
    147          1           0       12.752451   -2.060781    3.945945
    148          1           0       12.194549   -0.446776    4.344311
    149          1           0       13.209447   -1.634356    1.866053
    150          1           0       13.662622   -0.047758    2.588655
    151          1           0       12.120596   -0.261215    1.644763
    152          1           0        8.887384    4.323587    4.188341
    153          1           0        9.439783    2.714206    4.754846
    154          1           0        7.677297    3.114693    4.829035
    155          1           0        4.796780    3.959417    0.670473
    156          1           0        4.260042    7.636545   -1.514351
    157          1           0        4.428751    6.377447   -2.896431
    158          1           0        5.780071    7.239952   -2.120385
 ---------------------------------------------------------------------

 SCF Done:  E(RCAM-B3LYP) =  -4069.81168343     A.U. after   19 cycles

 Excitation energies and oscillator strengths:

 Excited State   1:      Singlet-A      1.6694 eV  742.68 nm  f=0.0134  <S**2>=0.000
     309 -> 315        0.10590
     310 -> 316       -0.13586
     311 -> 313        0.42024
     312 -> 314        0.54270
 This state for optimization and/or second-order correction.
 Total Energy, E(TD-HF/TD-DFT) =  -4069.75033378
 Copying the excited state density for this state as the 1-particle RhoCI density.

 Excited State   2:      Singlet-A      1.6854 eV  735.63 nm  f=0.7414  <S**2>=0.000
     309 -> 315        0.13996
     310 -> 316        0.10769
     311 -> 313        0.54183
     312 -> 314       -0.41967

 Excited State   3:      Singlet-A      2.1853 eV  567.35 nm  f=0.0738  <S**2>=0.000
     309 -> 313        0.11542
     310 -> 314        0.63228
     312 -> 316        0.26808

 Excited State   4:      Singlet-A      2.1927 eV  565.44 nm  f=0.1229  <S**2>=0.000
     309 -> 313        0.63030
     310 -> 314       -0.11456
     311 -> 315       -0.27395

 Excited State   5:      Singlet-A      2.7390 eV  452.66 nm  f=0.0000  <S**2>=0.000
     312 -> 313        0.70703

 The electronic state is 1-A.
 Alpha  occ. eigenvalues --  -46.87897 -46.87576 -19.26369 -19.26212 -19.19109
 Alpha  occ. eigenvalues --  -19.19039 -19.18923 -19.18649 -19.18249 -19.17944
 Alpha  occ. eigenvalues --  -14.42550 -14.42410 -14.41545 -14.41276 -14.39504
 Alpha  occ. eigenvalues --  -14.39269 -14.38683 -14.38513 -10.39168 -10.38967
 Alpha  occ. eigenvalues --  -10.35558 -10.35329 -10.34470 -10.34119 -10.31761
 Alpha  occ. eigenvalues --  -10.31617 -10.31500 -10.31214 -10.31014 -10.30933
 Alpha  occ. eigenvalues --  -10.30664 -10.30602 -10.30314 -10.30304 -10.30272
 Alpha  occ. eigenvalues --  -10.30067 -10.30009 -10.29811 -10.29726 -10.29358
 Alpha  occ. eigenvalues --  -10.29354 -10.29319 -10.28858 -10.28669 -10.28608
 Alpha  occ. eigenvalues --  -10.28559 -10.28464 -10.28316 -10.28219 -10.28032
 Alpha  occ. eigenvalues --  -10.27915 -10.27886 -10.27826 -10.27684 -10.27598
 Alpha  occ. eigenvalues --  -10.27584 -10.27582 -10.27531 -10.27501 -10.27451
 Alpha  occ. eigenvalues --  -10.27411 -10.27392 -10.27387 -10.27308 -10.27245
 Alpha  occ. eigenvalues --  -10.26929 -10.26834 -10.26597 -10.26535 -10.26367
 Alpha  occ. eigenvalues --  -10.26325 -10.26259 -10.26112 -10.26078 -10.25905
 Alpha  occ. eigenvalues --  -10.25889 -10.25854 -10.25762 -10.25509 -10.25334
 Alpha  occ. eigenvalues --  -10.24924 -10.24883 -10.24784 -10.24769 -10.24674
 Alpha  occ. eigenvalues --  -10.24607  -3.16640  -3.16326  -1.91522  -1.91208
 Alpha  occ. eigenvalues --   -1.91108  -1.90950  -1.90797  -1.90634  -1.16719
 Alpha  occ. eigenvalues --   -1.16510  -1.08706  -1.08547  -1.07325  -1.06903
 Alpha  occ. eigenvalues --   -1.06822  -1.06730  -1.04681  -1.04406  -1.03857
 Alpha  occ. eigenvalues --   -1.03578  -1.03330  -1.02956  -1.02507  -1.02027
 Alpha  occ. eigenvalues --   -0.92065  -0.91890  -0.89608  -0.89416  -0.89293
 Alpha  occ. eigenvalues --   -0.89047  -0.88374  -0.88147  -0.87955  -0.87773
 Alpha  occ. eigenvalues --   -0.87706  -0.87598  -0.87380  -0.87051  -0.85087
 Alpha  occ. eigenvalues --   -0.84905  -0.84021  -0.83802  -0.83074  -0.82868
 Alpha  occ. eigenvalues --   -0.82750  -0.82561  -0.81676  -0.81490  -0.80693
 Alpha  occ. eigenvalues --   -0.80348  -0.78897  -0.78558  -0.77314  -0.77058
 Alpha  occ. eigenvalues --   -0.77030  -0.76801  -0.76017  -0.75735  -0.74984
 Alpha  occ. eigenvalues --   -0.74722  -0.72866  -0.72614  -0.71765  -0.71489
 Alpha  occ. eigenvalues --   -0.69991  -0.69689  -0.68976  -0.68735  -0.67737
 Alpha  occ. eigenvalues --   -0.67516  -0.67333  -0.67114  -0.65389  -0.65172
 Alpha  occ. eigenvalues --   -0.64947  -0.64716  -0.64681  -0.64557  -0.64358
 Alpha  occ. eigenvalues --   -0.64125  -0.62386  -0.62169  -0.60543  -0.60267
 Alpha  occ. eigenvalues --   -0.59906  -0.59698  -0.59080  -0.58905  -0.58596
 Alpha  occ. eigenvalues --   -0.58335  -0.57672  -0.57444  -0.57400  -0.57154
 Alpha  occ. eigenvalues --   -0.56403  -0.56118  -0.56071  -0.55777  -0.55619
 Alpha  occ. eigenvalues --   -0.55424  -0.55364  -0.55159  -0.54609  -0.54393
 Alpha  occ. eigenvalues --   -0.54001  -0.53811  -0.53396  -0.53324  -0.53146
 Alpha  occ. eigenvalues --   -0.53050  -0.53009  -0.52865  -0.52806  -0.52593
 Alpha  occ. eigenvalues --   -0.52521  -0.52333  -0.51991  -0.51795  -0.51723
 Alpha  occ. eigenvalues --   -0.51568  -0.51285  -0.51107  -0.50686  -0.50413
 Alpha  occ. eigenvalues --   -0.50121  -0.50022  -0.49896  -0.49794  -0.49617
 Alpha  occ. eigenvalues --   -0.49403  -0.49309  -0.49192  -0.49108  -0.49001
 Alpha  occ. eigenvalues --   -0.48682  -0.48557  -0.48536  -0.48458  -0.48298
 Alpha  occ. eigenvalues --   -0.48260  -0.47793  -0.47507  -0.47393  -0.47039
 Alpha  occ. eigenvalues --   -0.46890  -0.46661  -0.46624  -0.46460  -0.46452
 Alpha  occ. eigenvalues --   -0.46249  -0.46189  -0.45997  -0.45905  -0.45720
 Alpha  occ. eigenvalues --   -0.45288  -0.45132  -0.44666  -0.44610  -0.44418
 Alpha  occ. eigenvalues --   -0.44386  -0.44238  -0.44189  -0.44113  -0.44032
 Alpha  occ. eigenvalues --   -0.44000  -0.43853  -0.43582  -0.43484  -0.43449
 Alpha  occ. eigenvalues --   -0.43292  -0.43118  -0.42829  -0.42793  -0.42787
 Alpha  occ. eigenvalues --   -0.42740  -0.42481  -0.42101  -0.41882  -0.41795
 Alpha  occ. eigenvalues --   -0.41638  -0.41573  -0.41368  -0.41235  -0.40971
 Alpha  occ. eigenvalues --   -0.40933  -0.40897  -0.40659  -0.40646  -0.40613
 Alpha  occ. eigenvalues --   -0.40413  -0.40354  -0.40133  -0.39526  -0.39359
 Alpha  occ. eigenvalues --   -0.38560  -0.38274  -0.37861  -0.37563  -0.37412
 Alpha  occ. eigenvalues --   -0.37369  -0.37186  -0.37107  -0.36800  -0.36657
 Alpha  occ. eigenvalues --   -0.36283  -0.36126  -0.34382  -0.34166  -0.33861
 Alpha  occ. eigenvalues --   -0.33748  -0.33282  -0.33089  -0.31452  -0.31208
 Alpha  occ. eigenvalues --   -0.31132  -0.30886  -0.30108  -0.29845  -0.29549
 Alpha  occ. eigenvalues --   -0.29413  -0.29248  -0.29123  -0.24177  -0.23949
 Alpha  occ. eigenvalues --   -0.21224  -0.21033
 Alpha virt. eigenvalues --   -0.08871  -0.08708  -0.01848  -0.01602  -0.00161
 Alpha virt. eigenvalues --    0.00051   0.02113   0.02301   0.02991   0.03302
 Alpha virt. eigenvalues --    0.04615   0.04820   0.05010   0.05286   0.06062

 Mulliken charges:
               1
     1  Mg   0.838147
     2  C   -0.003130
     3  C   -0.094419
     4  C   -0.045898
     5  C   -0.063818
     6  N   -0.256765
     7  C   -0.052533
     8  C   -0.013928
     9  C   -0.086924
    10  C    0.046112
    11  C    0.104785
    12  C    0.053563
    13  C   -0.071666
    14  H    0.035714
    15  N   -0.433125
    16  C    0.168147
    17  C   -0.177407
    18  C   -0.004175
    19  C    0.148548
    20  C    0.110202
    21  C    0.012031
    22  O   -0.249531
    23  C    0.062641
    24  N   -0.341097
    25  C    0.041208
    26  C   -0.028173
    27  C   -0.024068
    28  C    0.074867
    29  C    0.076105
    30  C    0.035096
    31  C   -0.004540
    32  N   -0.310558
    33  C    0.080463
    34  C   -0.169407
    35  C    0.008564
    36  C    0.082999
    37  C    0.127231
    38  C    0.046325
    39  O   -0.187824
    40  C   -0.005423
    41  C    0.213051
    42  O   -0.257324
    43  O   -0.304718
    44  C    0.157595
    45  H   -0.017606
    46  H   -0.016773
    47  H   -0.041132
    48  H    0.001177
    49  H   -0.004264
    50  H    0.025636
    51  H    0.016560
    52  H    0.016731
    53  H    0.010607
    54  H    0.043900
    55  H    0.018284
    56  H    0.017729
    57  H    0.005824
    58  H    0.026984
    59  H    0.038863
    60  H    0.037533
    61  H    0.035621
    62  H    0.030795
    63  H    0.016510
    64  H    0.009705
    65  H    0.023314
    66  H    0.012576
    67  H    0.004948
    68  H    0.006563
    69  H    0.005041
    70  H    0.008649
    71  H    0.018424
    72  H    0.028661
    73  H    0.048059
    74  H    0.009335
    75  H    0.046225
    76  H    0.035351
    77  H    0.043366
    78  H    0.046149
    79  H    0.053709
    80  Mg   0.837769
    81  C   -0.016784
    82  C   -0.087803
    83  C   -0.045615
    84  C   -0.064985
    85  N   -0.254582
    86  C   -0.049621
    87  C   -0.015238
    88  C   -0.090552
    89  C    0.045805
    90  C    0.114400
    91  C    0.062568
    92  C   -0.077806
    93  H    0.034451
    94  N   -0.423459
    95  C    0.162851
    96  C   -0.174751
    97  C   -0.007972
    98  C    0.152074
    99  C    0.099472
   100  C    0.015450
   101  O   -0.253357
   102  C    0.061254
   103  N   -0.350064
   104  C    0.037500
   105  C   -0.019813
   106  C   -0.034803
   107  C    0.088982
   108  C    0.073700
   109  C    0.034776
   110  C   -0.007649
   111  N   -0.324187
   112  C    0.078568
   113  C   -0.163147
   114  C    0.002489
   115  C    0.096135
   116  C    0.131480
   117  C    0.042524
   118  O   -0.187311
   119  C    0.000879
   120  C    0.211187
   121  O   -0.251437
   122  O   -0.305029
   123  C    0.152177
   124  H   -0.019902
   125  H   -0.015780
   126  H   -0.040542
   127  H    0.000509
   128  H   -0.004791
   129  H    0.023621
   130  H    0.014182
   131  H    0.016263
   132  H    0.013531
   133  H    0.037614
   134  H    0.021652
   135  H    0.019014
   136  H    0.008504
   137  H    0.025898
   138  H    0.039448
   139  H    0.038122
   140  H    0.036172
   141  H    0.033749
   142  H    0.014236
   143  H    0.012389
   144  H    0.024942
   145  H    0.011698
   146  H    0.005601
   147  H    0.006108
   148  H    0.003623
   149  H    0.010836
   150  H    0.017812
   151  H    0.030190
   152  H    0.046025
   153  H    0.008317
   154  H    0.047268
   155  H    0.036247
   156  H    0.044451
   157  H    0.049317
   158  H    0.053148
 Sum of Mulliken charges =  -0.00000

 Dipole moment (field-independent basis, Debye):
    X=             -4.6961    Y=             -4.7480    Z=             -5.7434  Tot=              8.8082
 Quadrupole moment (field-independent basis, Debye-Ang):
   XX=           -511.5137   YY=           -566.1163   ZZ=           -447.8175
   XY=             -4.0207   XZ=             34.3139   YZ=            -20.9577

 Normal termination of Gaussian 16 at Sun Sep 12 04:47:31 2021.
