 Gaussian 16, Revision A.03,
 Gaussian 16:  ES64L-G16RevA.03 25-Dec-2016

 -----------------------------------
 #p cam-b3lyp/Def2SVP td=(nstates=5)
 -----------------------------------

 --------------------------------
 TDDFT excited states in gaussian
 --------------------------------
 Symbolic Z-matrix:
 Charge =  0 Multiplicity = 1

                         Standard orientation:
 ---------------------------------------------------------------------
 Center     Atomic      Atomic             Coordinates (Angstroms)
 Number     Number       Type             X           Y           Z
 ---------------------------------------------------------------------
      1         12           0       -6.538068   -0.721928   -0.052948
      2          6           0       -6.735355    2.742464    0.825277
      3          6           0       -7.343646    0.193300   -3.239869
      4          6           0       -6.815802   -3.802744   -0.751561
      5          6           0       -6.871975   -1.448897    3.339054
      6          7           0       -6.960041    1.249265   -0.967815
      7          6           0       -6.944085    2.506196   -0.535331
      8          6           0       -7.095050    3.554643   -1.677846
      9          6           0       -7.832471    2.644183   -2.759175
     10          6           0       -7.321628    1.283314   -2.319860
     11          6           0       -9.352633    2.661567   -2.635457
     12          6           0       -5.711050    4.062977   -2.204983
     13          6           0       -5.766780    5.315799   -3.084008
     14          1           0       -4.686375    6.285957   -2.989849
     15          7           0       -6.529076   -1.645505   -1.799309
     16          6           0       -6.871013   -1.114730   -2.997909
     17          6           0       -6.698702   -2.199429   -3.988069
     18          6           0       -6.411414   -3.455658   -3.241443
     19          6           0       -6.602309   -3.017897   -1.882288
     20          6           0       -6.762132   -1.979877   -5.468448
     21          6           0       -6.036241   -4.834815   -3.683374
     22          8           0       -6.059366   -5.834281   -2.886439
     23          6           0       -5.722093   -5.003629   -5.113708
     24          7           0       -7.025290   -2.399013    1.090570
     25          6           0       -7.017273   -3.624932    0.555741
     26          6           0       -7.116988   -4.683077    1.614194
     27          6           0       -6.949868   -3.928026    3.011235
     28          6           0       -6.859762   -2.474479    2.484595
     29          6           0       -8.418343   -5.496918    1.626418
     30          6           0       -5.835586   -4.439801    3.958273
     31          6           0       -4.478515   -4.159891    3.352380
     32          7           0       -6.587432    0.414955    1.795323
     33          6           0       -6.757368   -0.091039    3.092152
     34          6           0       -6.832149    1.067262    4.001445
     35          6           0       -6.716390    2.174273    3.163011
     36          6           0       -6.604423    1.735979    1.812584
     37          6           0       -7.046005    1.010918    5.406978
     38          6           0       -6.685988    3.626096    3.091303
     39          8           0       -6.647246    4.534729    3.922193
     40          6           0       -6.819520    4.055219    1.563608
     41          6           0       -5.759921    5.086739    1.286975
     42          8           0       -4.549694    4.783260    1.311829
     43          8           0       -6.336938    6.199199    0.807365
     44          6           0       -5.337914    7.252634    0.484286
     45          1           0       -7.818112    0.333537   -4.213089
     46          1           0       -6.807133   -4.879049   -0.935761
     47          1           0       -6.890872   -1.600405    4.419860
     48          1           0       -7.717992    4.413450   -1.427215
     49          1           0       -7.498676    2.865090   -3.772834
     50          1           0       -9.673507    3.196137   -1.741479
     51          1           0       -9.652224    1.614766   -2.581170
     52          1           0       -9.810560    3.057652   -3.542208
     53          1           0       -5.316432    3.347545   -2.926436
     54          1           0       -5.021992    4.233778   -1.377123
     55          1           0       -6.734254    5.812986   -3.008459
     56          1           0       -5.702857    5.004543   -4.126713
     57          1           0       -7.151669   -0.991830   -5.710459
     58          1           0       -7.508835   -2.669864   -5.860956
     59          1           0       -5.802393   -2.162818   -5.951942
     60          1           0       -6.584809   -4.704560   -5.709382
     61          1           0       -5.389644   -6.034675   -5.228911
     62          1           0       -4.914068   -4.321857   -5.380602
     63          1           0       -6.320582   -5.418547    1.508145
     64          1           0       -7.856274   -3.979433    3.614940
     65          1           0       -8.263277   -6.572100    1.533453
     66          1           0       -9.056997   -5.123309    0.826525
     67          1           0       -9.049386   -5.336816    2.500242
     68          1           0       -5.913124   -5.518897    4.086669
     69          1           0       -5.869548   -3.984731    4.948227
     70          1           0       -4.333748   -5.004002    2.679066
     71          1           0       -3.711901   -4.143042    4.127771
     72          1           0       -4.493329   -3.255942    2.743165
     73          1           0       -6.351533    1.724626    5.850035
     74          1           0       -6.880282    0.005263    5.792722
     75          1           0       -8.091574    1.313143    5.464420
     76          1           0       -7.824525    4.456691    1.437478
     77          1           0       -5.623368    8.146611    1.038862
     78          1           0       -5.301253    7.321898   -0.603034
     79          1           0       -4.327463    7.090541    0.861186
     80         12           0        6.695803   -0.807747    0.204311
     81          6           0        6.522542    2.745248   -0.270301
     82          6           0        5.882295   -1.137401   -3.091772
     83          6           0        6.398286   -3.928772    0.692280
     84          6           0        6.363858   -0.227283    3.624621
     85          7           0        6.281320    0.685433   -1.373940
     86          6           0        6.305489    2.007395   -1.452631
     87          6           0        6.164430    2.568664   -2.892988
     88          6           0        5.409732    1.320401   -3.564646
     89          6           0        5.911765    0.208204   -2.646144
     90          6           0        3.896870    1.394785   -3.441891
     91          6           0        7.554879    2.831699   -3.570825
     92          6           0        7.497866    3.665024   -4.853042
     93          1           0        8.591341    4.592577   -5.129527
     94          7           0        6.695564   -2.315151   -1.086539
     95          6           0        6.359131   -2.267959   -2.392630
     96          6           0        6.504828   -3.642740   -2.895535
     97          6           0        6.795702   -4.536062   -1.741385
     98          6           0        6.616638   -3.610994   -0.640348
     99          6           0        6.446026   -3.985493   -4.355846
    100          6           0        7.160525   -5.986444   -1.643952
    101          8           0        7.134931   -6.613597   -0.526428
    102          6           0        7.458167   -6.673992   -2.908929
    103          7           0        6.209378   -1.932169    1.884010
    104          6           0        6.201707   -3.275948    1.837921
    105          6           0        6.095705   -3.868652    3.222781
    106          6           0        6.278072   -2.640578    4.230822
    107          6           0        6.373034   -1.486376    3.208963
    108          6           0        4.788033   -4.594963    3.537221
    109          6           0        7.393017   -2.770901    5.304415
    110          6           0        8.751695   -2.757745    4.641693
    111          7           0        6.666023    0.927036    1.491824
    112          6           0        6.490421    0.946542    2.892846
    113          6           0        6.427322    2.364073    3.304016
    114          6           0        6.548473    3.076369    2.101335
    115          6           0        6.657651    2.166789    1.014943
    116          6           0        6.228697    2.837059    4.631780
    117          6           0        6.598143    4.390826    1.502654
    118          8           0        6.639027    5.541671    1.935801
    119          6           0        6.456486    4.234283   -0.072726
    120          6           0        7.522221    5.074996   -0.720733
    121          8           0        8.724913    4.795138   -0.572945
    122          8           0        6.944037    5.934307   -1.579603
    123          6           0        7.961568    6.782654   -2.255430
    124          1           0        5.411400   -1.356225   -4.050553
    125          1           0        6.398490   -4.995319    0.928823
    126          1           0        6.359978    0.037697    4.684086
    127          1           0        5.554371    3.460184   -2.975388
    128          1           0        5.749183    1.155467   -4.583922
    129          1           0        3.583313    2.218333   -2.817721
    130          1           0        3.590330    0.452438   -3.007097
    131          1           0        3.439472    1.431570   -4.434749
    132          1           0        7.939377    1.887440   -3.977365
    133          1           0        8.237787    3.282275   -2.877102
    134          1           0        6.529427    4.164667   -4.977194
    135          1           0        7.562510    2.989224   -5.709269
    136          1           0        6.055234   -3.150023   -4.949704
    137          1           0        5.694422   -4.774237   -4.469152
    138          1           0        7.400740   -4.348981   -4.741955
    139          1           0        6.596754   -6.604772   -3.568956
    140          1           0        7.783791   -7.677095   -2.626741
    141          1           0        8.279982   -6.148356   -3.407875
    142          1           0        6.887052   -4.587219    3.397509
    143          1           0        5.368989   -2.461513    4.823564
    144          1           0        4.936863   -5.644962    3.852536
    145          1           0        4.152188   -4.546892    2.663197
    146          1           0        4.169557   -4.123500    4.299067
    147          1           0        7.309676   -3.729427    5.822519
    148          1           0        7.358668   -1.992633    6.059467
    149          1           0        8.882644   -3.797294    4.326601
    150          1           0        9.521181   -2.460493    5.351328
    151          1           0        8.742617   -2.137912    3.737607
    152          1           0        6.922514    3.654167    4.778272
    153          1           0        6.384261    2.046469    5.362906
    154          1           0        5.180701    3.143254    4.575015
    155          1           0        5.453114    4.563347   -0.345731
    156          1           0        7.680952    7.824619   -2.073071
    157          1           0        7.981932    6.443326   -3.308142
    158          1           0        8.971225    6.763607   -1.862119
 ---------------------------------------------------------------------

 SCF Done:  E(RCAM-B3LYP) =  -4069.81160826     A.U. after   19 cycles

 Excitation energies and oscillator strengths:

 Excited State   1:      Singlet-A      1.6661 eV  744.16 nm  f=0.0358  <S**2>=0.000
     309 -> 315       -0.11021
     310 -> 316        0.13144
     311 -> 313       -0.43968
     312 -> 314        0.52729
 This state for optimization and/or second-order correction.
 Total Energy, E(TD-HF/TD-DFT) =  -4069.75038006
 Copying the excited state density for this state as the 1-particle RhoCI density.

 Excited State   2:      Singlet-A      1.6884 eV  734.31 nm  f=0.7051  <S**2>=0.000
     309 -> 315        0.13648
     310 -> 316        0.11334
     311 -> 313        0.52618
     312 -> 314        0.43886

 Excited State   3:      Singlet-A      2.1850 eV  567.43 nm  f=0.0459  <S**2>=0.000
     309 -> 313       -0.19827
     310 -> 314        0.61162
     312 -> 316       -0.25922

 Excited State   4:      Singlet-A      2.1928 eV  565.41 nm  f=0.1447  <S**2>=0.000
     309 -> 313        0.60943
     310 -> 314        0.19668
     311 -> 315       -0.26513

 Excited State   5:      Singlet-A      2.6499 eV  467.89 nm  f=0.0000  <S**2>=0.000
     312 -> 313        0.70710

 The electronic state is 1-A.
 Alpha  occ. eigenvalues --  -46.87850 -46.87552 -19.26292 -19.26264 -19.19070
 Alpha  occ. eigenvalues --  -19.19033 -19.18881 -19.18621 -19.18204 -19.17930
 Alpha  occ. eigenvalues --  -14.42504 -14.42393 -14.41501 -14.41251 -14.39458
 Alpha  occ. eigenvalues --  -14.39246 -14.38638 -14.38487 -10.39095 -10.38997
 Alpha  occ. eigenvalues --  -10.35517 -10.35301 -10.34423 -10.34107 -10.31688
 Alpha  occ. eigenvalues --  -10.31671 -10.31455 -10.31202 -10.30964 -10.30927
 Alpha  occ. eigenvalues --  -10.30620 -10.30558 -10.30285 -10.30263 -10.30248
 Alpha  occ. eigenvalues --  -10.30038 -10.29967 -10.29780 -10.29684 -10.29331
 Alpha  occ. eigenvalues --  -10.29312 -10.29291 -10.28802 -10.28635 -10.28609
 Alpha  occ. eigenvalues --  -10.28597 -10.28417 -10.28297 -10.28170 -10.28055
 Alpha  occ. eigenvalues --  -10.27888 -10.27844 -10.27782 -10.27642 -10.27568
 Alpha  occ. eigenvalues --  -10.27562 -10.27547 -10.27493 -10.27453 -10.27414
 Alpha  occ. eigenvalues --  -10.27392 -10.27377 -10.27361 -10.27273 -10.27190
 Alpha  occ. eigenvalues --  -10.26934 -10.26766 -10.26627 -10.26500 -10.26341
 Alpha  occ. eigenvalues --  -10.26282 -10.26229 -10.26071 -10.26044 -10.25933
 Alpha  occ. eigenvalues --  -10.25881 -10.25824 -10.25697 -10.25474 -10.25293
 Alpha  occ. eigenvalues --  -10.24881 -10.24838 -10.24756 -10.24735 -10.24644
 Alpha  occ. eigenvalues --  -10.24582  -3.16593  -3.16302  -1.91475  -1.91184
 Alpha  occ. eigenvalues --   -1.91061  -1.90903  -1.90773  -1.90610  -1.16642
 Alpha  occ. eigenvalues --   -1.16557  -1.08658  -1.08537  -1.07283  -1.06875
 Alpha  occ. eigenvalues --   -1.06854  -1.06655  -1.04634  -1.04391  -1.03813
 Alpha  occ. eigenvalues --   -1.03556  -1.03286  -1.02929  -1.02463  -1.02002
 Alpha  occ. eigenvalues --   -0.92017  -0.91877  -0.89568  -0.89390  -0.89241
 Alpha  occ. eigenvalues --   -0.89064  -0.88334  -0.88118  -0.87917  -0.87727
 Alpha  occ. eigenvalues --   -0.87670  -0.87583  -0.87340  -0.87026  -0.85036
 Alpha  occ. eigenvalues --   -0.84911  -0.83980  -0.83775  -0.83035  -0.82842
 Alpha  occ. eigenvalues --   -0.82700  -0.82563  -0.81617  -0.81499  -0.80641
 Alpha  occ. eigenvalues --   -0.80345  -0.78857  -0.78532  -0.77270  -0.77049
 Alpha  occ. eigenvalues --   -0.76977  -0.76807  -0.75965  -0.75743  -0.74941
 Alpha  occ. eigenvalues --   -0.74702  -0.72824  -0.72589  -0.71719  -0.71479
 Alpha  occ. eigenvalues --   -0.69954  -0.69660  -0.68926  -0.68737  -0.67691
 Alpha  occ. eigenvalues --   -0.67500  -0.67279  -0.67119  -0.65336  -0.65180
 Alpha  occ. eigenvalues --   -0.64897  -0.64668  -0.64665  -0.64558  -0.64317
 Alpha  occ. eigenvalues --   -0.64102  -0.62324  -0.62183  -0.60502  -0.60241
 Alpha  occ. eigenvalues --   -0.59857  -0.59701  -0.59035  -0.58888  -0.58550
 Alpha  occ. eigenvalues --   -0.58321  -0.57618  -0.57445  -0.57355  -0.57133
 Alpha  occ. eigenvalues --   -0.56361  -0.56099  -0.56005  -0.55798  -0.55575
 Alpha  occ. eigenvalues --   -0.55377  -0.55357  -0.55146  -0.54555  -0.54392
 Alpha  occ. eigenvalues --   -0.53948  -0.53827  -0.53353  -0.53276  -0.53126
 Alpha  occ. eigenvalues --   -0.53049  -0.52955  -0.52820  -0.52809  -0.52583
 Alpha  occ. eigenvalues --   -0.52484  -0.52305  -0.51956  -0.51748  -0.51672
 Alpha  occ. eigenvalues --   -0.51573  -0.51238  -0.51096  -0.50649  -0.50391
 Alpha  occ. eigenvalues --   -0.50082  -0.49980  -0.49888  -0.49768  -0.49570
 Alpha  occ. eigenvalues --   -0.49396  -0.49263  -0.49144  -0.49103  -0.49004
 Alpha  occ. eigenvalues --   -0.48632  -0.48517  -0.48489  -0.48459  -0.48272
 Alpha  occ. eigenvalues --   -0.48245  -0.47747  -0.47502  -0.47348  -0.47023
 Alpha  occ. eigenvalues --   -0.46846  -0.46610  -0.46608  -0.46468  -0.46408
 Alpha  occ. eigenvalues --   -0.46203  -0.46168  -0.45976  -0.45856  -0.45714
 Alpha  occ. eigenvalues --   -0.45247  -0.45107  -0.44618  -0.44566  -0.44416
 Alpha  occ. eigenvalues --   -0.44381  -0.44195  -0.44141  -0.44065  -0.44030
 Alpha  occ. eigenvalues --   -0.43982  -0.43843  -0.43527  -0.43459  -0.43437
 Alpha  occ. eigenvalues --   -0.43288  -0.43073  -0.42837  -0.42796  -0.42733
 Alpha  occ. eigenvalues --   -0.42683  -0.42455  -0.42056  -0.41871  -0.41749
 Alpha  occ. eigenvalues --   -0.41586  -0.41562  -0.41371  -0.41189  -0.40923
 Alpha  occ. eigenvalues --   -0.40890  -0.40888  -0.40637  -0.40618  -0.40612
 Alpha  occ. eigenvalues --   -0.40394  -0.40294  -0.40154  -0.39488  -0.39329
 Alpha  occ. eigenvalues --   -0.38517  -0.38253  -0.37802  -0.37576  -0.37369
 Alpha  occ. eigenvalues --   -0.37316  -0.37165  -0.37105  -0.36737  -0.36680
 Alpha  occ. eigenvalues --   -0.36229  -0.36119  -0.34336  -0.34146  -0.33791
 Alpha  occ. eigenvalues --   -0.33768  -0.33235  -0.33068  -0.31410  -0.31180
 Alpha  occ. eigenvalues --   -0.31086  -0.30867  -0.30062  -0.29834  -0.29506
 Alpha  occ. eigenvalues --   -0.29371  -0.29222  -0.29093  -0.24131  -0.23927
 Alpha  occ. eigenvalues --   -0.21180  -0.21009
 Alpha virt. eigenvalues --   -0.08828  -0.08683  -0.01803  -0.01578  -0.00117
 Alpha virt. eigenvalues --    0.00071   0.02157   0.02325   0.03056   0.03322
 Alpha virt. eigenvalues --    0.04665   0.04826   0.05079   0.05260   0.06127

 Mulliken charges:
               1
     1  Mg   0.838466
     2  C   -0.002932
     3  C   -0.094397
     4  C   -0.045823
     5  C   -0.063947
     6  N   -0.256735
     7  C   -0.052474
     8  C   -0.013955
     9  C   -0.086933
    10  C    0.046188
    11  C    0.104809
    12  C    0.053581
    13  C   -0.071815
    14  H    0.036287
    15  N   -0.433079
    16  C    0.168239
    17  C   -0.177432
    18  C   -0.004154
    19  C    0.148622
    20  C    0.110240
    21  C    0.012132
    22  O   -0.249472
    23  C    0.062621
    24  N   -0.341121
    25  C    0.041174
    26  C   -0.028172
    27  C   -0.024035
    28  C    0.074920
    29  C    0.076122
    30  C    0.035104
    31  C   -0.004482
    32  N   -0.310528
    33  C    0.080515
    34  C   -0.169605
    35  C    0.008537
    36  C    0.083036
    37  C    0.127274
    38  C    0.046301
    39  O   -0.187889
    40  C   -0.005391
    41  C    0.212989
    42  O   -0.256966
    43  O   -0.304885
    44  C    0.157433
    45  H   -0.017696
    46  H   -0.016787
    47  H   -0.041371
    48  H    0.001159
    49  H   -0.004281
    50  H    0.025612
    51  H    0.016472
    52  H    0.016650
    53  H    0.010627
    54  H    0.044265
    55  H    0.018122
    56  H    0.017545
    57  H    0.005786
    58  H    0.026880
    59  H    0.038768
    60  H    0.037423
    61  H    0.035568
    62  H    0.030772
    63  H    0.016618
    64  H    0.009583
    65  H    0.023309
    66  H    0.012544
    67  H    0.004839
    68  H    0.006525
    69  H    0.004741
    70  H    0.008957
    71  H    0.017969
    72  H    0.028889
    73  H    0.047825
    74  H    0.009110
    75  H    0.046177
    76  H    0.035257
    77  H    0.043326
    78  H    0.046175
    79  H    0.054272
    80  Mg   0.838038
    81  C   -0.016703
    82  C   -0.087907
    83  C   -0.045405
    84  C   -0.064408
    85  N   -0.254519
    86  C   -0.049546
    87  C   -0.015092
    88  C   -0.090606
    89  C    0.045859
    90  C    0.114409
    91  C    0.062595
    92  C   -0.077624
    93  H    0.034581
    94  N   -0.423446
    95  C    0.162855
    96  C   -0.174828
    97  C   -0.007894
    98  C    0.151985
    99  C    0.099480
   100  C    0.015495
   101  O   -0.253317
   102  C    0.061257
   103  N   -0.349925
   104  C    0.037517
   105  C   -0.019852
   106  C   -0.034876
   107  C    0.088969
   108  C    0.073659
   109  C    0.034731
   110  C   -0.007626
   111  N   -0.324265
   112  C    0.078624
   113  C   -0.162580
   114  C    0.002668
   115  C    0.096266
   116  C    0.131303
   117  C    0.042916
   118  O   -0.187529
   119  C    0.000664
   120  C    0.211170
   121  O   -0.251233
   122  O   -0.305519
   123  C    0.152128
   124  H   -0.020267
   125  H   -0.015706
   126  H   -0.040189
   127  H   -0.000604
   128  H   -0.004921
   129  H    0.023419
   130  H    0.014734
   131  H    0.015157
   132  H    0.013802
   133  H    0.037695
   134  H    0.020568
   135  H    0.019250
   136  H    0.008283
   137  H    0.025877
   138  H    0.039439
   139  H    0.038151
   140  H    0.036189
   141  H    0.033683
   142  H    0.014161
   143  H    0.012781
   144  H    0.024784
   145  H    0.011949
   146  H    0.005728
   147  H    0.006060
   148  H    0.003764
   149  H    0.010786
   150  H    0.017781
   151  H    0.030126
   152  H    0.045822
   153  H    0.008357
   154  H    0.048583
   155  H    0.035838
   156  H    0.043811
   157  H    0.049170
   158  H    0.053468
 Sum of Mulliken charges =  -0.00000

 Dipole moment (field-independent basis, Debye):
    X=             -3.9223    Y=             -2.2209    Z=             -7.5052  Tot=              8.7547
 Quadrupole moment (field-independent basis, Debye-Ang):
   XX=           -518.0021   YY=           -547.9044   ZZ=           -451.1761
   XY=            -13.7036   XZ=              1.8824   YZ=            -44.9580

 Normal termination of Gaussian 16 at Sat Sep 11 14:30:04 2021.
