 Gaussian 16, Revision A.03,
 Gaussian 16:  ES64L-G16RevA.03 25-Dec-2016

 -----------------------------------
 #p cam-b3lyp/Def2SVP td=(nstates=5)
 -----------------------------------

 --------------------------------
 TDDFT excited states in gaussian
 --------------------------------
 Symbolic Z-matrix:
 Charge =  0 Multiplicity = 1

                         Standard orientation:
 ---------------------------------------------------------------------
 Center     Atomic      Atomic             Coordinates (Angstroms)
 Number     Number       Type             X           Y           Z
 ---------------------------------------------------------------------
      1         12           0      -15.788191   -0.690759   -0.301236
      2          6           0      -16.047494    2.017436    2.024846
      3          6           0      -16.618478    1.531947   -2.753432
      4          6           0      -16.010492   -3.143763   -2.298727
      5          6           0      -16.100172   -2.856267    2.411494
      6          7           0      -16.248895    1.473821   -0.246547
      7          6           0      -16.255173    2.407306    0.699888
      8          6           0      -16.428374    3.851634    0.141952
      9          6           0      -17.151463    3.504210   -1.235886
     10          6           0      -16.614395    2.099239   -1.444542
     11          6           0      -18.671376    3.437839   -1.126514
     12          6           0      -15.055344    4.565784   -0.095765
     13          6           0      -15.136464    6.077622   -0.326241
     14          1           0      -14.074000    6.923626    0.196057
     15          7           0      -15.766399   -0.740938   -2.276041
     16          6           0      -16.121081    0.261390   -3.115580
     17          6           0      -15.931140   -0.266504   -4.483766
     18          6           0      -15.618768   -1.718407   -4.371991
     19          6           0      -15.814383   -1.934274   -2.961136
     20          6           0      -16.002292    0.587384   -5.712409
     21          6           0      -15.219186   -2.750217   -5.378885
     22          8           0      -15.221808   -4.000067   -5.109734
     23          6           0      -14.905502   -2.259676   -6.733142
     24          7           0      -16.241409   -2.709762   -0.025819
     25          6           0      -16.211990   -3.569533   -1.049982
     26          6           0      -16.289453   -4.989597   -0.573161
     27          6           0      -16.132904   -4.931849    1.014891
     28          6           0      -16.071062   -3.394409    1.190174
     29          6           0      -17.575463   -5.746848   -0.931993
     30          6           0      -15.006987   -5.791605    1.642226
     31          6           0      -13.656841   -5.247453    1.232224
     32          7           0      -15.854050   -0.495609    1.859464
     33          6           0      -16.011369   -1.528496    2.794916
     34          6           0      -16.105360   -0.897001    4.123994
     35          6           0      -16.012217    0.469250    3.866062
     36          6           0      -15.895485    0.679359    2.462310
     37          6           0      -16.314657   -1.576361    5.356511
     38          6           0      -16.008912    1.801755    4.447677
     39          8           0      -15.984966    2.246557    5.596185
     40          6           0      -16.154155    2.863111    3.269435
     41          6           0      -15.114547    3.928606    3.486797
     42          8           0      -13.898845    3.667220    3.381391
     43          8           0      -15.713273    5.127882    3.548491
     44          6           0      -14.734752    6.232587    3.733634
     45          1           0      -17.097868    2.081970   -3.565590
     46          1           0      -15.982327   -4.025492   -2.942310
     47          1           0      -16.113584   -3.472968    3.312024
     48          1           0      -17.066508    4.498178    0.744604
     49          1           0      -16.824329    4.158766   -2.043513
     50          1           0      -18.999892    3.513253   -0.090024
     51          1           0      -18.951374    2.471005   -1.545233
     52          1           0      -19.138808    4.187700   -1.765257
     53          1           0      -14.649317    4.252988   -1.057722
     54          1           0      -14.367526    4.362736    0.725821
     55          1           0      -16.112799    6.472113   -0.043299
     56          1           0      -15.069361    6.263781   -1.398175
     57          1           0      -16.410676    1.572896   -5.492108
     58          1           0      -16.737044    0.130867   -6.375312
     59          1           0      -15.040525    0.655592   -6.221019
     60          1           0      -15.775085   -1.742211   -7.138857
     61          1           0      -14.554283   -3.125831   -7.292847
     62          1           0      -14.110917   -1.516157   -6.664115
     63          1           0      -15.479814   -5.586928   -0.990421
     64          1           0      -17.036705   -5.262431    1.527272
     65          1           0      -17.400722   -6.665557   -1.492479
     66          1           0      -18.222910   -5.067839   -1.486115
     67          1           0      -18.207202   -6.003291   -0.081958
     68          1           0      -15.064189   -6.816389    1.276859
     69          1           0      -15.046930   -5.824990    2.731051
     70          1           0      -13.498116   -5.701311    0.254650
     71          1           0      -12.888755   -5.563652    1.938818
     72          1           0      -13.689917   -4.167298    1.088498
     73          1           0      -15.632441   -1.122009    6.074923
     74          1           0      -16.129365   -2.645529    5.255765
     75          1           0      -17.365504   -1.349783    5.536060
     76          1           0      -17.166738    3.260925    3.328949
     77          1           0      -15.035356    6.781418    4.626190
     78          1           0      -14.702070    6.778852    2.790803
     79          1           0      -13.720540    5.937697    4.005211
     80         12           0       15.949522   -0.591640    0.371509
     81          6           0       15.342742    1.866726   -2.171579
     82          6           0       17.520883    1.856232    2.152905
     83          6           0       16.891586   -2.824571    2.419435
     84          6           0       15.370725   -3.033800   -2.046456
     85          7           0       16.319197    1.546178   -0.059038
     86          6           0       15.988288    2.384697   -1.029464
     87          6           0       16.298918    3.874906   -0.725607
     88          6           0       17.465819    3.661437    0.356816
     89          6           0       17.064285    2.284125    0.880693
     90          6           0       18.849001    3.552081   -0.263013
     91          6           0       15.069887    4.627070   -0.104519
     92          6           0       15.199570    6.151436   -0.069304
     93          1           0       13.999474    6.957061   -0.277174
     94          7           0       16.603530   -0.428642    2.238131
     95          6           0       17.195711    0.644946    2.802050
     96          6           0       17.506665    0.252575    4.185350
     97          6           0       17.199000   -1.194932    4.342770
     98          6           0       16.899194   -1.551456    2.970512
     99          6           0       17.966465    1.232586    5.225331
    100          6           0       17.190131   -2.110071    5.529632
    101          8           0       17.123798   -3.383263    5.397708
    102          6           0       17.355452   -1.477511    6.846460
    103          7           0       16.317494   -2.627583    0.166890
    104          6           0       16.665534   -3.377224    1.227466
    105          6           0       16.608064   -4.849629    0.897143
    106          6           0       15.912801   -4.940661   -0.540182
    107          6           0       15.762985   -3.433940   -0.844708
    108          6           0       17.952557   -5.575753    0.858737
    109          6           0       14.656979   -5.847089   -0.658364
    110          6           0       13.516115   -5.254591    0.137106
    111          7           0       15.268646   -0.619885   -1.678775
    112          6           0       15.122687   -1.749415   -2.513602
    113          6           0       14.743343   -1.254789   -3.852947
    114          6           0       14.717169    0.140614   -3.709157
    115          6           0       15.075934    0.491869   -2.379721
    116          6           0       14.523577   -2.060311   -5.005758
    117          6           0       14.477962    1.396813   -4.382541
    118          8           0       14.061241    1.721187   -5.493785
    119          6           0       14.995383    2.576115   -3.450924
    120          6           0       13.924238    3.630830   -3.398672
    121          8           0       12.825199    3.389814   -2.868924
    122          8           0       14.446845    4.809100   -3.784596
    123          6           0       13.425420    5.889116   -3.738889
    124          1           0       18.229390    2.488039    2.689311
    125          1           0       17.102027   -3.640558    3.114670
    126          1           0       15.077070   -3.736897   -2.828809
    127          1           0       16.673574    4.442013   -1.569284
    128          1           0       17.409218    4.402440    1.149969
    129          1           0       18.805630    3.517599   -1.341476
    130          1           0       19.275072    2.637393    0.127945
    131          1           0       19.489341    4.361601    0.098903
    132          1           0       15.028308    4.417122    0.972024
    133          1           0       14.162245    4.353117   -0.606278
    134          1           0       16.018178    6.510263   -0.704959
    135          1           0       15.492436    6.451574    0.939736
    136          1           0       18.259941    2.188884    4.775046
    137          1           0       18.895023    0.836026    5.650043
    138          1           0       17.239116    1.366268    6.028927
    139          1           0       18.296342   -0.932860    6.869889
    140          1           0       17.233046   -2.281822    7.574454
    141          1           0       16.559490   -0.736609    6.981088
    142          1           0       15.999447   -5.383857    1.616372
    143          1           0       16.597189   -5.348060   -1.298789
    144          1           0       18.001349   -6.440595    1.547025
    145          1           0       18.732562   -4.862178    1.088830
    146          1           0       18.253557   -5.938658   -0.122532
    147          1           0       14.858029   -6.830839   -0.227128
    148          1           0       14.332443   -6.004227   -1.681587
    149          1           0       13.717336   -5.603353    1.154440
    150          1           0       12.560977   -5.628128   -0.226507
    151          1           0       13.570234   -4.159779    0.147216
    152          1           0       13.635328   -1.676052   -5.489341
    153          1           0       14.411069   -3.109823   -4.741870
    154          1           0       15.450135   -1.872119   -5.554698
    155          1           0       15.921564    2.954402   -3.885279
    156          1           0       13.394000    6.341502   -4.734906
    157          1           0       13.720345    6.543808   -2.897364
    158          1           0       12.390664    5.595105   -3.607410
 ---------------------------------------------------------------------

 SCF Done:  E(RCAM-B3LYP) =  -4069.81177074     A.U. after   19 cycles

 Excitation energies and oscillator strengths:

 Excited State   1:      Singlet-A      1.6754 eV  740.03 nm  f=0.2365  <S**2>=0.000
     309 -> 316        0.16938
     311 -> 313        0.66948
     312 -> 314        0.14988
     309 <- 316        0.10211
 This state for optimization and/or second-order correction.
 Total Energy, E(TD-HF/TD-DFT) =  -4069.75020134
 Copying the excited state density for this state as the 1-particle RhoCI density.

 Excited State   2:      Singlet-A      1.6801 eV  737.95 nm  f=0.5415  <S**2>=0.000
     310 -> 315        0.17138
     311 -> 313       -0.14983
     312 -> 314        0.66912
     310 <- 315        0.10261

 Excited State   3:      Singlet-A      2.1861 eV  567.14 nm  f=0.0954  <S**2>=0.000
     309 -> 313        0.64212
     311 -> 316       -0.27298

 Excited State   4:      Singlet-A      2.1926 eV  565.47 nm  f=0.1047  <S**2>=0.000
     310 -> 314        0.64034
     312 -> 315       -0.27817

 Excited State   5:      Singlet-A      3.0549 eV  405.85 nm  f=0.0000  <S**2>=0.000
     312 -> 313        0.70710

 The electronic state is 1-A.
 Alpha  occ. eigenvalues --  -46.87742 -46.87662 -19.26352 -19.26232 -19.19163
 Alpha  occ. eigenvalues --  -19.18967 -19.18758 -19.18713 -19.18117 -19.18054
 Alpha  occ. eigenvalues --  -14.42499 -14.42395 -14.41395 -14.41361 -14.39353
 Alpha  occ. eigenvalues --  -14.39348 -14.38601 -14.38532 -10.39093 -10.39026
 Alpha  occ. eigenvalues --  -10.35391 -10.35390 -10.34337 -10.34232 -10.31760
 Alpha  occ. eigenvalues --  -10.31628 -10.31351 -10.31311 -10.31024 -10.30854
 Alpha  occ. eigenvalues --  -10.30516 -10.30453 -10.30399 -10.30362 -10.30152
 Alpha  occ. eigenvalues --  -10.30142 -10.29896 -10.29867 -10.29576 -10.29438
 Alpha  occ. eigenvalues --  -10.29402 -10.29199 -10.28720 -10.28695 -10.28654
 Alpha  occ. eigenvalues --  -10.28482 -10.28406 -10.28310 -10.28142 -10.28063
 Alpha  occ. eigenvalues --  -10.28003 -10.27739 -10.27673 -10.27671 -10.27529
 Alpha  occ. eigenvalues --  -10.27519 -10.27485 -10.27468 -10.27464 -10.27448
 Alpha  occ. eigenvalues --  -10.27424 -10.27396 -10.27377 -10.27349 -10.27106
 Alpha  occ. eigenvalues --  -10.27053 -10.26692 -10.26648 -10.26410 -10.26349
 Alpha  occ. eigenvalues --  -10.26184 -10.26137 -10.26129 -10.26029 -10.25965
 Alpha  occ. eigenvalues --  -10.25936 -10.25855 -10.25793 -10.25401 -10.25385
 Alpha  occ. eigenvalues --  -10.24875 -10.24779 -10.24733 -10.24727 -10.24691
 Alpha  occ. eigenvalues --  -10.24629  -3.16484  -3.16412  -1.91366  -1.91294
 Alpha  occ. eigenvalues --   -1.90953  -1.90883  -1.90795  -1.90719  -1.16646
 Alpha  occ. eigenvalues --   -1.16581  -1.08662  -1.08575  -1.07159  -1.06965
 Alpha  occ. eigenvalues --   -1.06948  -1.06589  -1.04527  -1.04497  -1.03706
 Alpha  occ. eigenvalues --   -1.03665  -1.03179  -1.03040  -1.02357  -1.02113
 Alpha  occ. eigenvalues --   -0.91989  -0.91918  -0.89495  -0.89465  -0.89153
 Alpha  occ. eigenvalues --   -0.89134  -0.88233  -0.88221  -0.87817  -0.87796
 Alpha  occ. eigenvalues --   -0.87685  -0.87619  -0.87218  -0.87120  -0.85001
 Alpha  occ. eigenvalues --   -0.84928  -0.83883  -0.83877  -0.82930  -0.82910
 Alpha  occ. eigenvalues --   -0.82653  -0.82594  -0.81598  -0.81533  -0.80542
 Alpha  occ. eigenvalues --   -0.80444  -0.78742  -0.78636  -0.77164  -0.77146
 Alpha  occ. eigenvalues --   -0.76900  -0.76881  -0.75870  -0.75841  -0.74845
 Alpha  occ. eigenvalues --   -0.74805  -0.72720  -0.72701  -0.71619  -0.71583
 Alpha  occ. eigenvalues --   -0.69853  -0.69758  -0.68828  -0.68819  -0.67603
 Alpha  occ. eigenvalues --   -0.67587  -0.67200  -0.67164  -0.65273  -0.65232
 Alpha  occ. eigenvalues --   -0.64800  -0.64772  -0.64655  -0.64567  -0.64215
 Alpha  occ. eigenvalues --   -0.64205  -0.62281  -0.62245  -0.60387  -0.60340
 Alpha  occ. eigenvalues --   -0.59798  -0.59750  -0.58995  -0.58934  -0.58450
 Alpha  occ. eigenvalues --   -0.58427  -0.57557  -0.57531  -0.57255  -0.57238
 Alpha  occ. eigenvalues --   -0.56256  -0.56206  -0.55925  -0.55888  -0.55465
 Alpha  occ. eigenvalues --   -0.55453  -0.55286  -0.55249  -0.54489  -0.54470
 Alpha  occ. eigenvalues --   -0.53914  -0.53841  -0.53244  -0.53229  -0.53167
 Alpha  occ. eigenvalues --   -0.53143  -0.52903  -0.52860  -0.52700  -0.52667
 Alpha  occ. eigenvalues --   -0.52401  -0.52383  -0.51888  -0.51863  -0.51659
 Alpha  occ. eigenvalues --   -0.51561  -0.51203  -0.51142  -0.50515  -0.50474
 Alpha  occ. eigenvalues --   -0.49981  -0.49977  -0.49868  -0.49863  -0.49488
 Alpha  occ. eigenvalues --   -0.49460  -0.49204  -0.49161  -0.49107  -0.49043
 Alpha  occ. eigenvalues --   -0.48561  -0.48540  -0.48407  -0.48390  -0.48378
 Alpha  occ. eigenvalues --   -0.48338  -0.47640  -0.47595  -0.47243  -0.47119
 Alpha  occ. eigenvalues --   -0.46743  -0.46710  -0.46555  -0.46501  -0.46305
 Alpha  occ. eigenvalues --   -0.46272  -0.46109  -0.46088  -0.45825  -0.45770
 Alpha  occ. eigenvalues --   -0.45210  -0.45148  -0.44525  -0.44516  -0.44477
 Alpha  occ. eigenvalues --   -0.44451  -0.44129  -0.44090  -0.44078  -0.44034
 Alpha  occ. eigenvalues --   -0.43965  -0.43939  -0.43555  -0.43442  -0.43387
 Alpha  occ. eigenvalues --   -0.43332  -0.42973  -0.42932  -0.42904  -0.42646
 Alpha  occ. eigenvalues --   -0.42601  -0.42554  -0.41965  -0.41955  -0.41671
 Alpha  occ. eigenvalues --   -0.41650  -0.41479  -0.41460  -0.41087  -0.40992
 Alpha  occ. eigenvalues --   -0.40815  -0.40766  -0.40722  -0.40698  -0.40518
 Alpha  occ. eigenvalues --   -0.40494  -0.40227  -0.40178  -0.39425  -0.39386
 Alpha  occ. eigenvalues --   -0.38415  -0.38351  -0.37693  -0.37655  -0.37267
 Alpha  occ. eigenvalues --   -0.37266  -0.37209  -0.37201  -0.36773  -0.36660
 Alpha  occ. eigenvalues --   -0.36219  -0.36139  -0.34255  -0.34232  -0.33864
 Alpha  occ. eigenvalues --   -0.33717  -0.33177  -0.33132  -0.31287  -0.31272
 Alpha  occ. eigenvalues --   -0.30981  -0.30974  -0.29977  -0.29959  -0.29394
 Alpha  occ. eigenvalues --   -0.29328  -0.29268  -0.29213  -0.24038  -0.24026
 Alpha  occ. eigenvalues --   -0.21118  -0.21073
 Alpha virt. eigenvalues --   -0.08793  -0.08720  -0.01695  -0.01685  -0.00029
 Alpha virt. eigenvalues --   -0.00002   0.02205   0.02254   0.03181   0.03232
 Alpha virt. eigenvalues --    0.04728   0.04772   0.05151   0.05163   0.06182

 Mulliken charges:
               1
     1  Mg   0.838825
     2  C   -0.002937
     3  C   -0.094092
     4  C   -0.045858
     5  C   -0.063977
     6  N   -0.256774
     7  C   -0.052485
     8  C   -0.014037
     9  C   -0.087023
    10  C    0.046342
    11  C    0.104832
    12  C    0.053476
    13  C   -0.071824
    14  H    0.036180
    15  N   -0.433153
    16  C    0.168448
    17  C   -0.177133
    18  C   -0.003975
    19  C    0.148735
    20  C    0.110177
    21  C    0.012321
    22  O   -0.249614
    23  C    0.062456
    24  N   -0.341140
    25  C    0.041241
    26  C   -0.028163
    27  C   -0.023967
    28  C    0.074843
    29  C    0.076188
    30  C    0.035132
    31  C   -0.004508
    32  N   -0.310458
    33  C    0.080418
    34  C   -0.169732
    35  C    0.008331
    36  C    0.083001
    37  C    0.127314
    38  C    0.046099
    39  O   -0.188518
    40  C   -0.005334
    41  C    0.212851
    42  O   -0.257034
    43  O   -0.304822
    44  C    0.157691
    45  H   -0.017618
    46  H   -0.016837
    47  H   -0.041535
    48  H    0.000890
    49  H   -0.004005
    50  H    0.025431
    51  H    0.016425
    52  H    0.016626
    53  H    0.011278
    54  H    0.044158
    55  H    0.017800
    56  H    0.017982
    57  H    0.005868
    58  H    0.026797
    59  H    0.039665
    60  H    0.037305
    61  H    0.035696
    62  H    0.031609
    63  H    0.016592
    64  H    0.009394
    65  H    0.023201
    66  H    0.012518
    67  H    0.004695
    68  H    0.006335
    69  H    0.004687
    70  H    0.008819
    71  H    0.018176
    72  H    0.029024
    73  H    0.047549
    74  H    0.009094
    75  H    0.045933
    76  H    0.035089
    77  H    0.042872
    78  H    0.046417
    79  H    0.053726
    80  Mg   0.838007
    81  C   -0.016785
    82  C   -0.087805
    83  C   -0.045517
    84  C   -0.064883
    85  N   -0.254574
    86  C   -0.049873
    87  C   -0.015084
    88  C   -0.090516
    89  C    0.045788
    90  C    0.114376
    91  C    0.062520
    92  C   -0.077914
    93  H    0.034947
    94  N   -0.423533
    95  C    0.162958
    96  C   -0.174607
    97  C   -0.007766
    98  C    0.152129
    99  C    0.099366
   100  C    0.015600
   101  O   -0.253145
   102  C    0.061174
   103  N   -0.350110
   104  C    0.037544
   105  C   -0.019844
   106  C   -0.034826
   107  C    0.088933
   108  C    0.073659
   109  C    0.034733
   110  C   -0.007687
   111  N   -0.324112
   112  C    0.078450
   113  C   -0.163138
   114  C    0.002214
   115  C    0.096208
   116  C    0.131493
   117  C    0.042375
   118  O   -0.187927
   119  C    0.000895
   120  C    0.211247
   121  O   -0.250966
   122  O   -0.305652
   123  C    0.152023
   124  H   -0.019648
   125  H   -0.015544
   126  H   -0.040471
   127  H   -0.000680
   128  H   -0.004289
   129  H    0.022431
   130  H    0.014414
   131  H    0.016284
   132  H    0.013969
   133  H    0.037703
   134  H    0.020743
   135  H    0.019624
   136  H    0.008767
   137  H    0.026150
   138  H    0.039882
   139  H    0.038240
   140  H    0.036458
   141  H    0.033965
   142  H    0.014453
   143  H    0.012381
   144  H    0.025166
   145  H    0.011616
   146  H    0.005646
   147  H    0.006274
   148  H    0.003636
   149  H    0.010971
   150  H    0.017992
   151  H    0.030107
   152  H    0.046006
   153  H    0.008521
   154  H    0.046884
   155  H    0.034981
   156  H    0.043862
   157  H    0.049513
   158  H    0.053614
 Sum of Mulliken charges =  -0.00000

 Dipole moment (field-independent basis, Debye):
    X=              1.0985    Y=              3.0938    Z=             -1.2125  Tot=              3.4997
 Quadrupole moment (field-independent basis, Debye-Ang):
   XX=           -362.1964   YY=           -460.4685   ZZ=           -537.6436
   XY=             16.1520   XZ=             99.5240   YZ=             -6.0115

 Normal termination of Gaussian 16 at Sun Sep 12 13:34:56 2021.
