 Gaussian 16, Revision A.03,
 Gaussian 16:  ES64L-G16RevA.03 25-Dec-2016

 -----------------------------------
 #p cam-b3lyp/Def2SVP td=(nstates=5)
 -----------------------------------

 --------------------------------
 TDDFT excited states in gaussian
 --------------------------------
 Symbolic Z-matrix:
 Charge =  0 Multiplicity = 1

                         Standard orientation:
 ---------------------------------------------------------------------
 Center     Atomic      Atomic             Coordinates (Angstroms)
 Number     Number       Type             X           Y           Z
 ---------------------------------------------------------------------
      1         12           0        3.240704   -2.156973    0.007132
      2          6           0        5.228948    0.606953   -1.097320
      3          6           0        4.714568   -1.803553    3.064236
      4          6           0        1.840629   -4.866954    0.874552
      5          6           0        2.796095   -2.987492   -3.348195
      6          7           0        4.762794   -0.739098    0.764441
      7          6           0        5.400782    0.310838    0.256724
      8          6           0        6.211532    1.113506    1.317752
      9          6           0        6.424110   -0.040053    2.397618
     10          6           0        5.209446   -0.895002    2.082062
     11          6           0        7.682676   -0.869341    2.163531
     12          6           0        5.393595    2.309751    1.910803
     13          6           0        6.212960    3.332166    2.703684
     14          1           0        5.842289    4.737212    2.627545
     15          7           0        2.890013   -2.899963    1.803749
     16          6           0        3.579378   -2.633340    2.939079
     17          6           0        2.932908   -3.428960    4.004793
     18          6           0        1.932168   -4.324334    3.360652
     19          6           0        2.202848   -4.081905    1.966616
     20          6           0        3.246596   -3.263725    5.460145
     21          6           0        0.903393   -5.259182    3.913657
     22          8           0        0.296716   -6.113422    3.180997
     23          6           0        0.685340   -5.208605    5.370687
     24          7           0        2.612941   -3.836523   -1.061821
     25          6           0        1.981841   -4.846144   -0.452426
     26          6           0        1.381605   -5.794779   -1.447287
     27          6           0        1.526515   -5.090328   -2.872946
     28          6           0        2.302104   -3.824225   -2.432816
     29          6           0        2.011523   -7.193399   -1.502757
     30          6           0        0.230910   -4.910203   -3.703235
     31          6           0       -0.683027   -3.918076   -3.019494
     32          7           0        3.732691   -1.260014   -1.907146
     33          6           0        3.472181   -1.790795   -3.178790
     34          6           0        4.085955   -0.878909   -4.161548
     35          6           0        4.678961    0.116670   -3.387590
     36          6           0        4.472616   -0.170038   -2.007912
     37          6           0        4.099190   -1.061039   -5.572607
     38          6           0        5.460036    1.342840   -3.404522
     39          8           0        5.849598    2.110741   -4.285467
     40          6           0        5.951749    1.644240   -1.920203
     41          6           0        5.667235    3.093250   -1.632572
     42          8           0        4.494089    3.510900   -1.550939
     43          8           0        6.803800    3.705242   -1.266201
     44          6           0        6.585989    5.139483   -0.938078
     45          1           0        5.277438   -1.938123    3.989984
     46          1           0        1.258177   -5.755854    1.125637
     47          1           0        2.625990   -3.136946   -4.415988
     48          1           0        7.177353    1.480221    0.969709
     49          1           0        6.364921    0.340844    3.416998
     50          1           0        8.158511   -0.612808    1.217120
     51          1           0        7.349536   -1.907321    2.153102
     52          1           0        8.366425   -0.782574    3.008359
     53          1           0        4.740666    1.941478    2.702080
     54          1           0        4.837808    2.823854    1.125866
     55          1           0        7.281950    3.209063    2.527572
     56          1           0        6.087280    3.120918    3.765653
     57          1           0        4.136669   -2.654244    5.611304
     58          1           0        3.523057   -4.247112    5.839918
     59          1           0        2.395701   -2.878477    6.022189
     60          1           0        1.621910   -5.430581    5.882656
     61          1           0       -0.147241   -5.881255    5.573665
     62          1           0        0.415940   -4.190226    5.652249
     63          1           0        0.326155   -5.964440   -1.238321
     64          1           0        2.192745   -5.642524   -3.536189
     65          1           0        1.299639   -8.001336   -1.331981
     66          1           0        2.822659   -7.226750   -0.775957
     67          1           0        2.540284   -7.420185   -2.428174
     68          1           0       -0.311186   -5.852913   -3.769375
     69          1           0        0.415935   -4.562017   -4.719495
     70          1           0       -1.204167   -4.532468   -2.286168
     71          1           0       -1.382943   -3.488523   -3.736999
     72          1           0       -0.115262   -3.166599   -2.470485
     73          1           0        3.874322   -0.087448   -6.007952
     74          1           0        3.371426   -1.810898   -5.881919
     75          1           0        5.127298   -1.389480   -5.724183
     76          1           0        7.018252    1.423072   -1.892301
     77          1           0        7.262509    5.718846   -1.566484
     78          1           0        6.696688    5.230399    0.142609
     79          1           0        5.623046    5.559937   -1.230135
     80         12           0       -3.391338    2.198270    0.418453
     81          6           0       -5.170886   -0.808107   -0.402512
     82          6           0       -2.444862    2.354245   -2.854849
     83          6           0       -1.453142    4.587108    1.195810
     84          6           0       -3.517934    1.197121    3.754220
     85          7           0       -3.817324    0.884475   -1.309195
     86          6           0       -4.556234   -0.195443   -1.514402
     87          6           0       -4.706848   -0.597818   -3.006040
     88          6           0       -3.376604    0.096650   -3.577920
     89          6           0       -3.214645    1.205863   -2.540582
     90          6           0       -2.152660   -0.801635   -3.511716
     91          6           0       -5.997846    0.007475   -3.660985
     92          6           0       -6.371273   -0.591222   -5.018872
     93          1           0       -7.786058   -0.740642   -5.348313
     94          7           0       -2.536017    3.580575   -0.720068
     95          6           0       -2.246124    3.486638   -2.034764
     96          6           0       -1.605742    4.760385   -2.397559
     97          6           0       -1.392259    5.549079   -1.153736
     98          6           0       -1.774943    4.572717   -0.153562
     99          6           0       -1.331913    5.157626   -3.819055
    100          6           0       -0.909757    6.946046   -0.904944
    101          8           0       -0.575253    7.344269    0.266528
    102          6           0       -0.751670    7.805361   -2.087348
    103          7           0       -2.414102    2.704140    2.182378
    104          6           0       -1.673903    3.823525    2.266092
    105          6           0       -1.297697    4.122925    3.697607
    106          6           0       -2.146049    3.100323    4.587641
    107          6           0       -2.828477    2.291557    3.462655
    108          6           0        0.185875    3.984325    4.038458
    109          6           0       -3.036957    3.710548    5.704147
    110          6           0       -4.165504    4.505121    5.087360
    111          7           0       -4.345374    0.610596    1.530723
    112          6           0       -4.245039    0.360671    2.916930
    113          6           0       -4.975568   -0.894652    3.186983
    114          6           0       -5.434357   -1.303331    1.925645
    115          6           0       -5.001923   -0.379376    0.936288
    116          6           0       -5.101266   -1.527533    4.455754
    117          6           0       -6.177121   -2.311898    1.204689
    118          8           0       -6.849974   -3.290648    1.525731
    119          6           0       -5.932412   -2.103537   -0.351943
    120          6           0       -7.267034   -2.159149   -1.043481
    121          8           0       -8.126045   -1.285409   -0.830690
    122          8           0       -7.228845   -3.105150   -1.999505
    123          6           0       -8.526524   -3.190645   -2.721011
    124          1           0       -1.906253    2.374353   -3.802668
    125          1           0       -0.877978    5.452076    1.534157
    126          1           0       -3.686488    0.869984    4.782443
    127          1           0       -4.679559   -1.664483   -3.193776
    128          1           0       -3.544811    0.519337   -4.565039
    129          1           0       -2.355003   -1.719757   -2.980441
    130          1           0       -1.393281   -0.226754   -2.998008
    131          1           0       -1.763808   -0.983674   -4.517686
    132          1           0       -5.794745    1.043327   -3.961814
    133          1           0       -6.833616   -0.064006   -2.992401
    134          1           0       -5.828964   -1.522706   -5.221837
    135          1           0       -6.034901    0.091105   -5.803280
    136          1           0       -1.444597    4.307474   -4.503124
    137          1           0       -0.269191    5.416109   -3.879781
    138          1           0       -1.923753    6.018499   -4.137297
    139          1           0       -0.050567    7.343408   -2.778366
    140          1           0       -0.484942    8.790303   -1.699230
    141          1           0       -1.713980    7.864537   -2.608002
    142          1           0       -1.573570    5.135244    3.966329
    143          1           0       -1.497228    2.397521    5.130727
    144          1           0        0.625450    4.908726    4.458374
    145          1           0        0.715030    3.683956    3.143857
    146          1           0        0.427415    3.179708    4.730884
    147          1           0       -2.457948    4.412301    6.309479
    148          1           0       -3.451957    2.969360    6.378993
    149          1           0       -3.700359    5.473173    4.878545
    150          1           0       -4.990641    4.606925    5.789363
    151          1           0       -4.472468    4.073072    4.127799
    152          1           0       -6.131878   -1.844386    4.544885
    153          1           0       -4.819490   -0.856438    5.264467
    154          1           0       -4.388586   -2.347903    4.335957
    155          1           0       -5.264004   -2.897329   -0.687625
    156          1           0       -8.864129   -4.229184   -2.649293
    157          1           0       -8.331406   -2.793276   -3.734810
    158          1           0       -9.372302   -2.663437   -2.295393
 ---------------------------------------------------------------------

 SCF Done:  E(RCAM-B3LYP) =  -4069.81062295     A.U. after   19 cycles

 Excitation energies and oscillator strengths:

 Excited State   1:      Singlet-A      1.6426 eV  754.81 nm  f=0.0503  <S**2>=0.000
     309 -> 315        0.11482
     310 -> 316        0.11904
     311 -> 313       -0.47555
     312 -> 314        0.49683
 This state for optimization and/or second-order correction.
 Total Energy, E(TD-HF/TD-DFT) =  -4069.75025884
 Copying the excited state density for this state as the 1-particle RhoCI density.

 Excited State   2:      Singlet-A      1.7072 eV  726.22 nm  f=0.6170  <S**2>=0.000
     309 -> 315       -0.13168
     310 -> 316        0.12594
     311 -> 313        0.49395
     312 -> 314        0.47303

 Excited State   3:      Singlet-A      2.1833 eV  567.88 nm  f=0.0193  <S**2>=0.000
     309 -> 313       -0.41123
     310 -> 314        0.49712
     311 -> 315       -0.17066
     312 -> 316       -0.20673

 Excited State   4:      Singlet-A      2.1976 eV  564.18 nm  f=0.1566  <S**2>=0.000
     309 -> 313        0.49208
     310 -> 314        0.40624
     311 -> 315        0.21788
     312 -> 316       -0.18028

 Excited State   5:      Singlet-A      2.2289 eV  556.25 nm  f=0.0000  <S**2>=0.000
     312 -> 313        0.70698

 The electronic state is 1-A.
 Alpha  occ. eigenvalues --  -46.87924 -46.87391 -19.26364 -19.26177 -19.19118
 Alpha  occ. eigenvalues --  -19.18967 -19.18876 -19.18382 -19.18329 -19.17768
 Alpha  occ. eigenvalues --  -14.42572 -14.42229 -14.41585 -14.41107 -14.39523
 Alpha  occ. eigenvalues --  -14.39059 -14.38730 -14.38330 -10.39178 -10.38892
 Alpha  occ. eigenvalues --  -10.35506 -10.35054 -10.34546 -10.33953 -10.31721
 Alpha  occ. eigenvalues --  -10.31617 -10.31544 -10.31052 -10.31008 -10.30728
 Alpha  occ. eigenvalues --  -10.30721 -10.30645 -10.30337 -10.30130 -10.30086
 Alpha  occ. eigenvalues --  -10.30066 -10.29877 -10.29772 -10.29674 -10.29383
 Alpha  occ. eigenvalues --  -10.29125 -10.29110 -10.28827 -10.28546 -10.28510
 Alpha  occ. eigenvalues --  -10.28490 -10.28489 -10.28213 -10.28101 -10.27938
 Alpha  occ. eigenvalues --  -10.27871 -10.27857 -10.27712 -10.27695 -10.27667
 Alpha  occ. eigenvalues --  -10.27598 -10.27580 -10.27525 -10.27387 -10.27369
 Alpha  occ. eigenvalues --  -10.27281 -10.27241 -10.27213 -10.27145 -10.26982
 Alpha  occ. eigenvalues --  -10.26800 -10.26748 -10.26496 -10.26450 -10.26418
 Alpha  occ. eigenvalues --  -10.26326 -10.26178 -10.26088 -10.26049 -10.26036
 Alpha  occ. eigenvalues --  -10.25700 -10.25693 -10.25640 -10.25531 -10.25318
 Alpha  occ. eigenvalues --  -10.24982 -10.24957 -10.24909 -10.24628 -10.24576
 Alpha  occ. eigenvalues --  -10.24421  -3.16666  -3.16142  -1.91548  -1.91135
 Alpha  occ. eigenvalues --   -1.91025  -1.90977  -1.90613  -1.90449  -1.16717
 Alpha  occ. eigenvalues --   -1.16465  -1.08789  -1.08385  -1.07270  -1.06750
 Alpha  occ. eigenvalues --   -1.06741  -1.06630  -1.04702  -1.04221  -1.03890
 Alpha  occ. eigenvalues --   -1.03393  -1.03369  -1.02773  -1.02546  -1.01839
 Alpha  occ. eigenvalues --   -0.92103  -0.91718  -0.89688  -0.89285  -0.89281
 Alpha  occ. eigenvalues --   -0.88914  -0.88439  -0.88045  -0.88037  -0.87794
 Alpha  occ. eigenvalues --   -0.87534  -0.87421  -0.87385  -0.86756  -0.85077
 Alpha  occ. eigenvalues --   -0.84762  -0.84112  -0.83714  -0.83073  -0.82746
 Alpha  occ. eigenvalues --   -0.82632  -0.82377  -0.81697  -0.81376  -0.80710
 Alpha  occ. eigenvalues --   -0.80190  -0.78929  -0.78315  -0.77373  -0.77051
 Alpha  occ. eigenvalues --   -0.76894  -0.76697  -0.76036  -0.75600  -0.75032
 Alpha  occ. eigenvalues --   -0.74615  -0.72924  -0.72437  -0.71792  -0.71362
 Alpha  occ. eigenvalues --   -0.70130  -0.69603  -0.68979  -0.68574  -0.67762
 Alpha  occ. eigenvalues --   -0.67342  -0.67294  -0.66940  -0.65396  -0.65057
 Alpha  occ. eigenvalues --   -0.64973  -0.64742  -0.64531  -0.64464  -0.64378
 Alpha  occ. eigenvalues --   -0.64002  -0.62408  -0.62069  -0.60561  -0.60040
 Alpha  occ. eigenvalues --   -0.59913  -0.59544  -0.59119  -0.58746  -0.58636
 Alpha  occ. eigenvalues --   -0.58176  -0.57713  -0.57441  -0.57315  -0.56993
 Alpha  occ. eigenvalues --   -0.56447  -0.56067  -0.55934  -0.55675  -0.55631
 Alpha  occ. eigenvalues --   -0.55503  -0.55171  -0.55065  -0.54686  -0.54312
 Alpha  occ. eigenvalues --   -0.53985  -0.53750  -0.53420  -0.53316  -0.53049
 Alpha  occ. eigenvalues --   -0.52983  -0.52877  -0.52846  -0.52687  -0.52631
 Alpha  occ. eigenvalues --   -0.52320  -0.52244  -0.52115  -0.51706  -0.51648
 Alpha  occ. eigenvalues --   -0.51394  -0.51336  -0.50965  -0.50683  -0.50290
 Alpha  occ. eigenvalues --   -0.50116  -0.50015  -0.49710  -0.49640  -0.49585
 Alpha  occ. eigenvalues --   -0.49345  -0.49213  -0.49199  -0.48917  -0.48870
 Alpha  occ. eigenvalues --   -0.48711  -0.48597  -0.48533  -0.48331  -0.48185
 Alpha  occ. eigenvalues --   -0.48025  -0.47809  -0.47414  -0.47348  -0.46931
 Alpha  occ. eigenvalues --   -0.46835  -0.46645  -0.46536  -0.46448  -0.46323
 Alpha  occ. eigenvalues --   -0.46299  -0.45998  -0.45965  -0.45872  -0.45613
 Alpha  occ. eigenvalues --   -0.45337  -0.45015  -0.44727  -0.44618  -0.44313
 Alpha  occ. eigenvalues --   -0.44291  -0.44253  -0.44195  -0.44123  -0.43917
 Alpha  occ. eigenvalues --   -0.43830  -0.43635  -0.43618  -0.43500  -0.43387
 Alpha  occ. eigenvalues --   -0.43228  -0.43123  -0.42784  -0.42735  -0.42719
 Alpha  occ. eigenvalues --   -0.42629  -0.42332  -0.42103  -0.41839  -0.41768
 Alpha  occ. eigenvalues --   -0.41627  -0.41405  -0.41258  -0.41225  -0.40992
 Alpha  occ. eigenvalues --   -0.40890  -0.40759  -0.40697  -0.40498  -0.40410
 Alpha  occ. eigenvalues --   -0.40305  -0.40290  -0.39993  -0.39624  -0.39279
 Alpha  occ. eigenvalues --   -0.38604  -0.38172  -0.37823  -0.37476  -0.37429
 Alpha  occ. eigenvalues --   -0.37357  -0.37052  -0.36943  -0.36802  -0.36587
 Alpha  occ. eigenvalues --   -0.36300  -0.36013  -0.34420  -0.33991  -0.33874
 Alpha  occ. eigenvalues --   -0.33651  -0.33319  -0.32904  -0.31407  -0.31156
 Alpha  occ. eigenvalues --   -0.30951  -0.30699  -0.30189  -0.29683  -0.29578
 Alpha  occ. eigenvalues --   -0.29468  -0.29003  -0.28910  -0.24211  -0.23766
 Alpha  occ. eigenvalues --   -0.21265  -0.20835
 Alpha virt. eigenvalues --   -0.08906  -0.08492  -0.01874  -0.01416  -0.00161
 Alpha virt. eigenvalues --    0.00295   0.02045   0.02381   0.02592   0.03599
 Alpha virt. eigenvalues --    0.04613   0.04992   0.05018   0.05376   0.06097

 Mulliken charges:
               1
     1  Mg   0.838971
     2  C   -0.002239
     3  C   -0.094290
     4  C   -0.045313
     5  C   -0.065240
     6  N   -0.256807
     7  C   -0.052323
     8  C   -0.014134
     9  C   -0.087027
    10  C    0.046744
    11  C    0.104763
    12  C    0.053131
    13  C   -0.072719
    14  H    0.038729
    15  N   -0.433424
    16  C    0.169071
    17  C   -0.177046
    18  C   -0.003242
    19  C    0.149538
    20  C    0.110171
    21  C    0.013020
    22  O   -0.247721
    23  C    0.062153
    24  N   -0.341146
    25  C    0.041110
    26  C   -0.029054
    27  C   -0.025734
    28  C    0.074740
    29  C    0.076138
    30  C    0.050743
    31  C   -0.029423
    32  N   -0.310156
    33  C    0.079508
    34  C   -0.172160
    35  C    0.007785
    36  C    0.082519
    37  C    0.127840
    38  C    0.044987
    39  O   -0.189574
    40  C   -0.004940
    41  C    0.212185
    42  O   -0.257001
    43  O   -0.304834
    44  C    0.157687
    45  H   -0.017219
    46  H   -0.015747
    47  H   -0.042884
    48  H    0.001048
    49  H   -0.003874
    50  H    0.025579
    51  H    0.016424
    52  H    0.016994
    53  H    0.010722
    54  H    0.045477
    55  H    0.017610
    56  H    0.017479
    57  H    0.005961
    58  H    0.027530
    59  H    0.039311
    60  H    0.037271
    61  H    0.037394
    62  H    0.030713
    63  H    0.017742
    64  H    0.009729
    65  H    0.024275
    66  H    0.012861
    67  H    0.004699
    68  H    0.005911
    69  H    0.001958
    70  H    0.011011
    71  H    0.021482
    72  H    0.034475
    73  H    0.045228
    74  H    0.007829
    75  H    0.046678
    76  H    0.035379
    77  H    0.042565
    78  H    0.047357
    79  H    0.054135
    80  Mg   0.836759
    81  C   -0.017004
    82  C   -0.086339
    83  C   -0.042897
    84  C   -0.065949
    85  N   -0.254553
    86  C   -0.050958
    87  C   -0.014295
    88  C   -0.090197
    89  C    0.044851
    90  C    0.101381
    91  C    0.063848
    92  C   -0.077364
    93  H    0.034245
    94  N   -0.424575
    95  C    0.162864
    96  C   -0.168400
    97  C   -0.005342
    98  C    0.153317
    99  C    0.096873
   100  C    0.017915
   101  O   -0.254357
   102  C    0.060190
   103  N   -0.350072
   104  C    0.037277
   105  C   -0.019800
   106  C   -0.034063
   107  C    0.088391
   108  C    0.073336
   109  C    0.035132
   110  C   -0.007493
   111  N   -0.323943
   112  C    0.077755
   113  C   -0.163743
   114  C    0.002624
   115  C    0.095386
   116  C    0.130992
   117  C    0.042672
   118  O   -0.188627
   119  C    0.000794
   120  C    0.211036
   121  O   -0.251294
   122  O   -0.305761
   123  C    0.152194
   124  H   -0.016755
   125  H   -0.015834
   126  H   -0.042605
   127  H   -0.001735
   128  H   -0.005181
   129  H    0.034061
   130  H    0.017157
   131  H    0.016490
   132  H    0.014009
   133  H    0.037235
   134  H    0.019399
   135  H    0.019539
   136  H    0.009039
   137  H    0.033981
   138  H    0.038306
   139  H    0.042141
   140  H    0.034792
   141  H    0.032771
   142  H    0.013918
   143  H    0.009713
   144  H    0.023638
   145  H    0.014975
   146  H    0.002287
   147  H    0.004855
   148  H    0.002619
   149  H    0.010719
   150  H    0.017298
   151  H    0.031050
   152  H    0.045369
   153  H    0.006654
   154  H    0.047159
   155  H    0.035151
   156  H    0.043420
   157  H    0.049073
   158  H    0.053398
 Sum of Mulliken charges =  -0.00000

 Dipole moment (field-independent basis, Debye):
    X=              4.7772    Y=             -0.4167    Z=              0.5202  Tot=              4.8235
 Quadrupole moment (field-independent basis, Debye-Ang):
   XX=           -533.7804   YY=           -529.7961   ZZ=           -456.9670
   XY=            -19.2206   XZ=             52.9824   YZ=             18.6773

 Normal termination of Gaussian 16 at Wed Sep  8 16:35:13 2021.
