 Gaussian 16, Revision A.03,
 Gaussian 16:  ES64L-G16RevA.03 25-Dec-2016

 -----------------------------------
 #p cam-b3lyp/Def2SVP td=(nstates=5)
 -----------------------------------

 --------------------------------
 TDDFT excited states in gaussian
 --------------------------------
 Symbolic Z-matrix:
 Charge =  0 Multiplicity = 1

                         Standard orientation:
 ---------------------------------------------------------------------
 Center     Atomic      Atomic             Coordinates (Angstroms)
 Number     Number       Type             X           Y           Z
 ---------------------------------------------------------------------
      1         12           0        4.188146   -0.294747   -0.105848
      2          6           0        3.511961   -3.684967   -1.033963
      3          6           0        4.937503    0.296080   -3.381890
      4          6           0        5.224339    2.574202    0.761363
      5          6           0        4.487975   -1.409970    3.182319
      6          7           0        4.185398   -1.608250   -1.887799
      7          6           0        3.848590   -2.873184   -2.119474
      8          6           0        3.813657   -3.235717   -3.634308
      9          6           0        4.806048   -2.115537   -4.184177
     10          6           0        4.606074   -1.063948   -3.107100
     11          6           0        6.269508   -2.545404   -4.185265
     12          6           0        2.381570   -3.084159   -4.249033
     13          6           0        2.190869   -3.724659   -5.626984
     14          1           0        0.908578   -4.334984   -5.944128
     15          7           0        4.497877    1.334193   -1.179846
     16          6           0        4.773512    1.390216   -2.505053
     17          6           0        4.919215    2.825271   -2.830736
     18          6           0        4.893720    3.587104   -1.551261
     19          6           0        4.897331    2.513023   -0.591201
     20          6           0        5.014306    3.345419   -4.232218
     21          6           0        4.880465    5.050907   -1.242657
     22          8           0        5.092650    5.499572   -0.064417
     23          6           0        4.697969    5.961927   -2.387113
     24          7           0        4.990359    0.447562    1.672653
     25          6           0        5.302498    1.741749    1.801631
     26          6           0        5.587744    2.094770    3.231299
     27          6           0        5.167045    0.818725    4.094128
     28          6           0        4.767225   -0.128073    2.935687
     29          6           0        7.041382    2.470136    3.550749
     30          6           0        4.152189    1.049425    5.241849
     31          6           0        2.804629    1.425327    4.667499
     32          7           0        3.861405   -2.162279    0.950849
     33          6           0        4.070828   -2.406494    2.315831
     34          6           0        3.817816   -3.841421    2.541745
     35          6           0        3.492800   -4.338826    1.281269
     36          6           0        3.565378   -3.286975    0.323859
     37          6           0        3.957544   -4.527368    3.780449
     38          6           0        3.125082   -5.519328    0.516379
     39          8           0        2.825338   -6.679388    0.802571
     40          6           0        3.241485   -5.169010   -1.032671
     41          6           0        1.986281   -5.655566   -1.704261
     42          8           0        0.882387   -5.129436   -1.455323
     43          8           0        2.311351   -6.493852   -2.700328
     44          6           0        1.112419   -6.990426   -3.427055
     45          1           0        5.420805    0.540400   -4.329871
     46          1           0        5.480353    3.572070    1.123517
     47          1           0        4.479735   -1.812350    4.196950
     48          1           0        4.201001   -4.226227   -3.873638
     49          1           0        4.488574   -1.730689   -5.153107
     50          1           0        6.403194   -3.505169   -3.686365
     51          1           0        6.803857   -1.760347   -3.649869
     52          1           0        6.672601   -2.544972   -5.198326
     53          1           0        2.209049   -2.038770   -4.504881
     54          1           0        1.625127   -3.469577   -3.564508
     55          1           0        3.007805   -4.406017   -5.866308
     56          1           0        2.262359   -2.940630   -6.380899
     57          1           0        5.173146    2.540150   -4.948358
     58          1           0        5.924005    3.942850   -4.289072
     59          1           0        4.154284    3.958729   -4.501561
     60          1           0        5.498691    5.798241   -3.108640
     61          1           0        4.625240    6.963762   -1.965346
     62          1           0        3.768728    5.706370   -2.897163
     63          1           0        4.994707    2.951641    3.548324
     64          1           0        6.023662    0.356746    4.585511
     65          1           0        7.149855    3.456890    4.001588
     66          1           0        7.618937    2.395321    2.629813
     67          1           0        7.565427    1.763035    4.193246
     68          1           0        4.474471    1.877507    5.872215
     69          1           0        4.020761    0.176949    5.881977
     70          1           0        2.902055    2.497300    4.499532
     71          1           0        2.012279    1.213168    5.386095
     72          1           0        2.640953    0.956949    3.696767
     73          1           0        3.090006   -5.181551    3.866414
     74          1           0        4.011690   -3.829441    4.615654
     75          1           0        4.897259   -5.053999    3.614761
     76          1           0        4.129026   -5.680472   -1.403886
     77          1           0        1.146556   -8.079513   -3.396115
     78          1           0        1.123195   -6.511478   -4.406288
     79          1           0        0.148692   -6.801191   -2.952968
     80         12           0       -3.516136    1.531348    0.582397
     81          6           0       -5.958989   -1.091059    0.396704
     82          6           0       -4.698598    2.641682   -2.418187
     83          6           0       -1.091271    3.575851    0.495837
     84          6           0       -1.814888   -0.408662    2.925018
     85          7           0       -5.124860    0.787558   -0.740857
     86          6           0       -6.026739   -0.180454   -0.678300
     87          6           0       -7.108782   -0.124234   -1.789869
     88          6           0       -6.280645    0.702041   -2.890017
     89          6           0       -5.327843    1.455171   -1.963944
     90          6           0       -5.454120   -0.181289   -3.809756
     91          6           0       -8.393509    0.653113   -1.334655
     92          6           0       -9.606666    0.483292   -2.251805
     93          1           0      -10.935680    0.444058   -1.647942
     94          7           0       -3.267414    3.184125   -0.487666
     95          6           0       -3.842200    3.480877   -1.672078
     96          6           0       -3.319378    4.802077   -2.053192
     97          6           0       -2.263427    5.187809   -1.078049
     98          6           0       -2.149391    3.961585   -0.314197
     99          6           0       -3.878175    5.599711   -3.195530
    100          6           0       -1.476292    6.447038   -0.875691
    101          8           0       -0.442239    6.480476   -0.119077
    102          6           0       -1.896266    7.616185   -1.661945
    103          7           0       -1.606978    1.489997    1.404443
    104          6           0       -0.769084    2.531535    1.259315
    105          6           0        0.433937    2.393654    2.161589
    106          6           0        0.110090    1.157825    3.123590
    107          6           0       -1.244953    0.719982    2.525626
    108          6           0        1.769416    2.154010    1.457703
    109          6           0        0.194366    1.415545    4.653015
    110          6           0       -0.905250    2.361773    5.078319
    111          7           0       -3.896093   -0.309479    1.647779
    112          6           0       -3.038548   -0.957632    2.563525
    113          6           0       -3.683557   -2.233459    2.935896
    114          6           0       -4.870159   -2.249819    2.187433
    115          6           0       -4.948748   -1.077101    1.388655
    116          6           0       -3.144334   -3.211874    3.817968
    117          6           0       -6.069017   -2.997504    1.883444
    118          8           0       -6.586709   -4.024360    2.320804
    119          6           0       -6.766526   -2.340334    0.615378
    120          6           0       -8.231143   -2.183494    0.920062
    121          8           0       -8.611067   -1.407545    1.814590
    122          8           0       -8.948601   -2.805542   -0.033178
    123          6           0      -10.407820   -2.668583    0.219247
    124          1           0       -4.839139    2.938068   -3.458039
    125          1           0       -0.278230    4.299937    0.586089
    126          1           0       -1.395102   -1.023784    3.723809
    127          1           0       -7.399534   -1.088172   -2.189951
    128          1           0       -6.920944    1.397854   -3.425962
    129          1           0       -5.467782   -1.214358   -3.495539
    130          1           0       -4.447183    0.213069   -3.769660
    131          1           0       -5.784181   -0.060231   -4.845486
    132          1           0       -8.219833    1.730699   -1.450425
    133          1           0       -8.661040    0.391356   -0.329402
    134          1           0       -9.478997   -0.349301   -2.954263
    135          1           0       -9.683469    1.365122   -2.892501
    136          1           0       -4.533367    4.989705   -3.829571
    137          1           0       -3.036105    5.859835   -3.846015
    138          1           0       -4.368400    6.518805   -2.867476
    139          1           0       -1.847350    7.375482   -2.721258
    140          1           0       -1.271876    8.441599   -1.314508
    141          1           0       -2.946803    7.830629   -1.436119
    142          1           0        0.568659    3.282888    2.765095
    143          1           0        0.808448    0.323200    2.963846
    144          1           0        2.536351    2.911435    1.707119
    145          1           0        1.593065    2.128521    0.390564
    146          1           0        2.219680    1.179863    1.640789
    147          1           0        1.138891    1.904916    4.903118
    148          1           0        0.133429    0.510156    5.247603
    149          1           0       -0.484865    3.346250    4.852115
    150          1           0       -1.112047    2.255671    6.141341
    151          1           0       -1.797849    2.233383    4.455079
    152          1           0       -3.955364   -3.536293    4.456324
    153          1           0       -2.316440   -2.810474    4.398701
    154          1           0       -2.813221   -3.963593    3.096481
    155          1           0       -6.593657   -3.002783   -0.233651
    156          1           0      -10.823567   -3.680540    0.247330
    157          1           0      -10.785091   -1.990725   -0.569378
    158          1           0      -10.715618   -2.286591    1.185577
 ---------------------------------------------------------------------

 SCF Done:  E(RCAM-B3LYP) =  -4069.75457810     A.U. after   19 cycles

 Excitation energies and oscillator strengths:

 Excited State   1:      Singlet-A      1.6318 eV  759.80 nm  f=0.0005  <S**2>=0.000
     309 -> 315       -0.11430
     310 -> 316        0.11561
     311 -> 313       -0.48149
     312 -> 314        0.49193
 This state for optimization and/or second-order correction.
 Total Energy, E(TD-HF/TD-DFT) =  -4069.69461052
 Copying the excited state density for this state as the 1-particle RhoCI density.

 Excited State   2:      Singlet-A      1.7110 eV  724.63 nm  f=0.6694  <S**2>=0.000
     309 -> 315        0.13201
     310 -> 316        0.12735
     311 -> 313        0.48862
     312 -> 314        0.47821

 Excited State   3:      Singlet-A      2.1770 eV  569.52 nm  f=0.0533  <S**2>=0.000
     309 -> 313        0.35549
     310 -> 314        0.53918
     311 -> 315       -0.14642
     312 -> 316       -0.21993

 Excited State   4:      Singlet-A      2.1937 eV  565.17 nm  f=0.1300  <S**2>=0.000
     309 -> 313        0.52519
     310 -> 314       -0.34244
     311 -> 315       -0.23269
     312 -> 313        0.12869
     312 -> 316        0.15496

 Excited State   5:      Singlet-A      2.2099 eV  561.05 nm  f=0.0051  <S**2>=0.000
     312 -> 313        0.69426

 The electronic state is 1-A.
 Alpha  occ. eigenvalues --  -46.87866 -46.87361 -19.26317 -19.26126 -19.19057
 Alpha  occ. eigenvalues --  -19.18925 -19.18726 -19.18474 -19.18232 -19.17751
 Alpha  occ. eigenvalues --  -14.42552 -14.42208 -14.41558 -14.41068 -14.39469
 Alpha  occ. eigenvalues --  -14.39064 -14.38711 -14.38284 -10.39121 -10.38847
 Alpha  occ. eigenvalues --  -10.35350 -10.35161 -10.34455 -10.33925 -10.31698
 Alpha  occ. eigenvalues --  -10.31563 -10.31529 -10.31000 -10.30982 -10.30780
 Alpha  occ. eigenvalues --  -10.30688 -10.30596 -10.30348 -10.30075 -10.30058
 Alpha  occ. eigenvalues --  -10.30030 -10.29851 -10.29709 -10.29598 -10.29357
 Alpha  occ. eigenvalues --  -10.29164 -10.29081 -10.28828 -10.28622 -10.28493
 Alpha  occ. eigenvalues --  -10.28490 -10.28447 -10.28207 -10.28130 -10.27904
 Alpha  occ. eigenvalues --  -10.27876 -10.27836 -10.27712 -10.27663 -10.27641
 Alpha  occ. eigenvalues --  -10.27631 -10.27507 -10.27501 -10.27387 -10.27291
 Alpha  occ. eigenvalues --  -10.27235 -10.27222 -10.27221 -10.27195 -10.27174
 Alpha  occ. eigenvalues --  -10.26779 -10.26761 -10.26496 -10.26316 -10.26278
 Alpha  occ. eigenvalues --  -10.26205 -10.26201 -10.26192 -10.25967 -10.25799
 Alpha  occ. eigenvalues --  -10.25606 -10.25568 -10.25496 -10.25384 -10.24920
 Alpha  occ. eigenvalues --  -10.24910 -10.24568 -10.24565 -10.24406 -10.24197
 Alpha  occ. eigenvalues --  -10.24101  -3.16615  -3.16110  -1.91497  -1.91084
 Alpha  occ. eigenvalues --   -1.90992  -1.90925  -1.90581  -1.90418  -1.16667
 Alpha  occ. eigenvalues --   -1.16416  -1.08689  -1.08356  -1.07106  -1.06735
 Alpha  occ. eigenvalues --   -1.06708  -1.06680  -1.04678  -1.04210  -1.03875
 Alpha  occ. eigenvalues --   -1.03371  -1.03335  -1.02742  -1.02521  -1.01818
 Alpha  occ. eigenvalues --   -0.92070  -0.91695  -0.89948  -0.89305  -0.89226
 Alpha  occ. eigenvalues --   -0.88920  -0.88559  -0.88025  -0.87977  -0.87783
 Alpha  occ. eigenvalues --   -0.87461  -0.87399  -0.87282  -0.86879  -0.85074
 Alpha  occ. eigenvalues --   -0.84778  -0.84482  -0.83604  -0.83026  -0.82730
 Alpha  occ. eigenvalues --   -0.82674  -0.82420  -0.81675  -0.81328  -0.80684
 Alpha  occ. eigenvalues --   -0.80181  -0.78867  -0.78359  -0.77645  -0.77101
 Alpha  occ. eigenvalues --   -0.76874  -0.76654  -0.76063  -0.75582  -0.75285
 Alpha  occ. eigenvalues --   -0.74671  -0.73074  -0.72438  -0.71813  -0.71616
 Alpha  occ. eigenvalues --   -0.71311  -0.69069  -0.68828  -0.68468  -0.67717
 Alpha  occ. eigenvalues --   -0.67347  -0.67260  -0.66977  -0.65657  -0.65240
 Alpha  occ. eigenvalues --   -0.64970  -0.64861  -0.64597  -0.64446  -0.64320
 Alpha  occ. eigenvalues --   -0.63786  -0.62380  -0.62103  -0.60505  -0.60116
 Alpha  occ. eigenvalues --   -0.59892  -0.59548  -0.59110  -0.58754  -0.58614
 Alpha  occ. eigenvalues --   -0.58221  -0.57665  -0.57454  -0.57299  -0.57161
 Alpha  occ. eigenvalues --   -0.56418  -0.56292  -0.56040  -0.55855  -0.55636
 Alpha  occ. eigenvalues --   -0.55518  -0.55203  -0.55106  -0.54813  -0.54253
 Alpha  occ. eigenvalues --   -0.53988  -0.53689  -0.53579  -0.53235  -0.53096
 Alpha  occ. eigenvalues --   -0.53014  -0.52902  -0.52778  -0.52725  -0.52642
 Alpha  occ. eigenvalues --   -0.52460  -0.52220  -0.51989  -0.51657  -0.51490
 Alpha  occ. eigenvalues --   -0.51429  -0.51360  -0.51115  -0.50510  -0.50333
 Alpha  occ. eigenvalues --   -0.50177  -0.49938  -0.49740  -0.49694  -0.49449
 Alpha  occ. eigenvalues --   -0.49292  -0.49263  -0.49152  -0.48946  -0.48873
 Alpha  occ. eigenvalues --   -0.48725  -0.48603  -0.48416  -0.48303  -0.48199
 Alpha  occ. eigenvalues --   -0.48097  -0.47792  -0.47422  -0.47388  -0.47139
 Alpha  occ. eigenvalues --   -0.46925  -0.46690  -0.46568  -0.46493  -0.46330
 Alpha  occ. eigenvalues --   -0.46290  -0.46198  -0.45932  -0.45843  -0.45709
 Alpha  occ. eigenvalues --   -0.45510  -0.45168  -0.44643  -0.44517  -0.44430
 Alpha  occ. eigenvalues --   -0.44302  -0.44238  -0.44159  -0.44065  -0.43993
 Alpha  occ. eigenvalues --   -0.43852  -0.43691  -0.43608  -0.43495  -0.43333
 Alpha  occ. eigenvalues --   -0.43190  -0.43070  -0.42916  -0.42739  -0.42679
 Alpha  occ. eigenvalues --   -0.42560  -0.42371  -0.41998  -0.41790  -0.41658
 Alpha  occ. eigenvalues --   -0.41526  -0.41371  -0.41215  -0.41080  -0.40990
 Alpha  occ. eigenvalues --   -0.40849  -0.40706  -0.40685  -0.40533  -0.40503
 Alpha  occ. eigenvalues --   -0.40275  -0.40234  -0.40017  -0.39123  -0.38766
 Alpha  occ. eigenvalues --   -0.38175  -0.37891  -0.37653  -0.37404  -0.37354
 Alpha  occ. eigenvalues --   -0.37343  -0.36963  -0.36936  -0.36612  -0.36421
 Alpha  occ. eigenvalues --   -0.36091  -0.34478  -0.34367  -0.33816  -0.33659
 Alpha  occ. eigenvalues --   -0.33565  -0.33125  -0.32843  -0.31264  -0.31069
 Alpha  occ. eigenvalues --   -0.31032  -0.30685  -0.30094  -0.29652  -0.29497
 Alpha  occ. eigenvalues --   -0.29396  -0.29046  -0.28883  -0.24191  -0.23733
 Alpha  occ. eigenvalues --   -0.21241  -0.20820
 Alpha virt. eigenvalues --   -0.08871  -0.08496  -0.01887  -0.01413  -0.00064
 Alpha virt. eigenvalues --    0.00226   0.02090   0.02520   0.03289   0.03917
 Alpha virt. eigenvalues --    0.04583   0.05004   0.05054   0.05411   0.06070

 Mulliken charges:
               1
     1  Mg   0.790268
     2  C   -0.000981
     3  C   -0.093276
     4  C   -0.051971
     5  C   -0.061885
     6  N   -0.250469
     7  C   -0.054184
     8  C   -0.013705
     9  C   -0.087019
    10  C    0.045254
    11  C    0.104802
    12  C    0.053430
    13  C   -0.071637
    14  H    0.035831
    15  N   -0.431888
    16  C    0.171368
    17  C   -0.178069
    18  C   -0.001681
    19  C    0.152856
    20  C    0.110636
    21  C    0.017784
    22  O   -0.248380
    23  C    0.061643
    24  N   -0.335418
    25  C    0.036771
    26  C   -0.027353
    27  C   -0.025911
    28  C    0.071813
    29  C    0.078813
    30  C    0.091785
    31  C   -0.050069
    32  N   -0.307054
    33  C    0.071621
    34  C   -0.170429
    35  C    0.007919
    36  C    0.083429
    37  C    0.127694
    38  C    0.046211
    39  O   -0.187790
    40  C   -0.006227
    41  C    0.212907
    42  O   -0.256649
    43  O   -0.304876
    44  C    0.157439
    45  H   -0.017574
    46  H   -0.016257
    47  H   -0.042992
    48  H    0.001112
    49  H   -0.004075
    50  H    0.025742
    51  H    0.016631
    52  H    0.016826
    53  H    0.011196
    54  H    0.044573
    55  H    0.018089
    56  H    0.017591
    57  H    0.005324
    58  H    0.027222
    59  H    0.040363
    60  H    0.035098
    61  H    0.038608
    62  H    0.033992
    63  H    0.013891
    64  H    0.008219
    65  H    0.023334
    66  H    0.013510
    67  H    0.005182
    68  H    0.000963
    69  H   -0.000554
    70  H    0.016684
    71  H    0.039555
    72  H    0.031579
    73  H    0.047213
    74  H    0.007851
    75  H    0.046589
    76  H    0.035439
    77  H    0.043412
    78  H    0.046044
    79  H    0.054284
    80  Mg   0.839345
    81  C   -0.016788
    82  C   -0.088510
    83  C   -0.047649
    84  C   -0.066511
    85  N   -0.254449
    86  C   -0.048896
    87  C   -0.015171
    88  C   -0.090580
    89  C    0.045754
    90  C    0.114702
    91  C    0.062634
    92  C   -0.077439
    93  H    0.034259
    94  N   -0.422919
    95  C    0.162328
    96  C   -0.176575
    97  C   -0.008809
    98  C    0.150648
    99  C    0.100320
   100  C    0.013208
   101  O   -0.252243
   102  C    0.061434
   103  N   -0.349842
   104  C    0.035630
   105  C    0.018883
   106  C   -0.060421
   107  C    0.104154
   108  C    0.002833
   109  C   -0.008416
   110  C    0.020620
   111  N   -0.325000
   112  C    0.079524
   113  C   -0.159374
   114  C    0.002856
   115  C    0.097471
   116  C    0.131203
   117  C    0.043628
   118  O   -0.187381
   119  C    0.000488
   120  C    0.211017
   121  O   -0.251430
   122  O   -0.305515
   123  C    0.152234
   124  H   -0.021422
   125  H   -0.014337
   126  H   -0.039642
   127  H   -0.000781
   128  H   -0.005302
   129  H    0.023407
   130  H    0.014238
   131  H    0.014544
   132  H    0.013771
   133  H    0.037651
   134  H    0.020520
   135  H    0.019080
   136  H    0.007932
   137  H    0.023311
   138  H    0.038931
   139  H    0.036035
   140  H    0.035936
   141  H    0.034004
   142  H    0.010511
   143  H    0.020560
   144  H    0.044836
   145  H    0.032203
   146  H    0.045629
   147  H    0.016672
   148  H   -0.002084
   149  H    0.006190
   150  H    0.010472
   151  H    0.019607
   152  H    0.044572
   153  H    0.007122
   154  H    0.054617
   155  H    0.036000
   156  H    0.043632
   157  H    0.049025
   158  H    0.053286
 Sum of Mulliken charges =  -0.00000

 Dipole moment (field-independent basis, Debye):
    X=              2.8096    Y=              3.6501    Z=             -7.5131  Tot=              8.8127
 Quadrupole moment (field-independent basis, Debye-Ang):
   XX=           -494.1623   YY=           -554.0404   ZZ=           -453.9343
   XY=            -25.0733   XZ=             29.5327   YZ=              1.3466

 Normal termination of Gaussian 16 at Thu Sep  9 08:56:39 2021.
