 Gaussian 16, Revision A.03,
 Gaussian 16:  ES64L-G16RevA.03 25-Dec-2016

 -----------------------------------
 #p cam-b3lyp/Def2SVP td=(nstates=5)
 -----------------------------------

 --------------------------------
 TDDFT excited states in gaussian
 --------------------------------
 Symbolic Z-matrix:
 Charge =  0 Multiplicity = 1

                         Standard orientation:
 ---------------------------------------------------------------------
 Center     Atomic      Atomic             Coordinates (Angstroms)
 Number     Number       Type             X           Y           Z
 ---------------------------------------------------------------------
      1         12           0        4.768606    0.036197    0.107333
      2          6           0        4.517031   -3.289744   -1.191529
      3          6           0        5.663574    1.034300   -3.030483
      4          6           0        5.436533    2.888085    1.322745
      5          6           0        4.969380   -1.378573    3.285977
      6          7           0        5.021246   -1.079462   -1.787957
      7          6           0        4.836036   -2.340630   -2.165215
      8          6           0        4.938666   -2.545956   -3.706215
      9          6           0        5.840728   -1.282364   -4.069005
     10          6           0        5.460688   -0.372919   -2.913842
     11          6           0        7.338389   -1.563205   -4.000866
     12          6           0        3.541802   -2.473669   -4.409973
     13          6           0        3.510348   -2.983659   -5.853675
     14          1           0        2.323305   -3.681451   -6.324168
     15          7           0        4.973700    1.790208   -0.778235
     16          6           0        5.327812    2.010150   -2.067233
     17          6           0        5.341797    3.478558   -2.241196
     18          6           0        5.152325    4.097489   -0.899884
     19          6           0        5.206868    2.935365   -0.050253
     20          6           0        5.472635    4.147924   -3.574831
     21          6           0        4.964122    5.512948   -0.453581
     22          8           0        5.050235    5.855888    0.775056
     23          6           0        4.761379    6.515131   -1.515452
     24          7           0        5.369894    0.665830    2.004607
     25          6           0        5.534238    1.964153    2.280893
     26          6           0        5.686547    2.193601    3.755374
     27          6           0        5.347794    0.799772    4.456972
     28          6           0        5.126921   -0.056751    3.185809
     29          6           0        7.068320    2.675530    4.218473
     30          6           0        4.241449    0.809005    5.541560
     31          6           0        2.902079    1.107489    4.905876
     32          7           0        4.573012   -1.953839    0.951458
     33          6           0        4.717509   -2.316265    2.298470
     34          6           0        4.603550   -3.784806    2.365315
     35          6           0        4.416009   -4.178605    1.041836
     36          6           0        4.439244   -3.031235    0.198454
     37          6           0        4.733885   -4.578217    3.539174
     38          6           0        4.226017   -5.304025    0.141175
     39          8           0        4.032666   -6.511387    0.290792
     40          6           0        4.405610   -4.785351   -1.353667
     41          6           0        3.255494   -5.321255   -2.161967
     42          8           0        2.088236   -4.935316   -1.947665
     43          8           0        3.731797   -6.015633   -3.206723
     44          6           0        2.642178   -6.550185   -4.066455
     45          1           0        6.179180    1.422026   -3.911255
     46          1           0        5.561316    3.863442    1.797662
     47          1           0        4.937522   -1.882734    4.253582
     48          1           0        5.443448   -3.463236   -4.009887
     49          1           0        5.548272   -0.832448   -5.017566
     50          1           0        7.540018   -2.551574   -3.588079
     51          1           0        7.750552   -0.788934   -3.353472
     52          1           0        7.804467   -1.418034   -4.975788
     53          1           0        3.276707   -1.429568   -4.576224
     54          1           0        2.787311   -3.000715   -3.824916
     55          1           0        4.408673   -3.552555   -6.095082
     56          1           0        3.547553   -2.122542   -6.520977
     57          1           0        5.762224    3.440812   -4.351153
     58          1           0        6.315767    4.834910   -3.504929
     59          1           0        4.571978    4.697912   -3.848075
     60          1           0        5.620328    6.506929   -2.186786
     61          1           0        4.555657    7.455782   -1.005840
     62          1           0        3.899703    6.223296   -2.116530
     63          1           0        4.986736    2.950260    4.107733
     64          1           0        6.214558    0.376219    4.964906
     65          1           0        7.042091    3.616133    4.769183
     66          1           0        7.709452    2.753909    3.340921
     67          1           0        7.621162    1.960888    4.827628
     68          1           0        4.432436    1.595082    6.271323
     69          1           0        4.161561   -0.133780    6.082880
     70          1           0        2.896283    2.195449    4.849813
     71          1           0        2.091400    0.744845    5.538726
     72          1           0        2.852632    0.728333    3.884954
     73          1           0        3.936691   -5.320225    3.495886
     74          1           0        4.659212   -3.968648    4.439426
     75          1           0        5.732854   -4.989485    3.395037
     76          1           0        5.364627   -5.165466   -1.704268
     77          1           0        2.789276   -7.627898   -4.138091
     78          1           0        2.666139   -5.973661   -4.991362
     79          1           0        1.634945   -6.507159   -3.650560
     80         12           0       -4.163133    1.141916    0.423094
     81          6           0       -6.673135   -1.418486    0.270648
     82          6           0       -5.751980    2.646703   -2.193355
     83          6           0       -1.726537    3.165686    0.236355
     84          6           0       -2.181315   -1.101115    2.208278
     85          7           0       -5.970316    0.589326   -0.726250
     86          6           0       -6.877372   -0.373157   -0.654029
     87          6           0       -8.111667   -0.163927   -1.571800
     88          6           0       -7.436328    0.795903   -2.667932
     89          6           0       -6.336618    1.414190   -1.807100
     90          6           0       -6.779710    0.037327   -3.809321
     91          6           0       -9.293372    0.553790   -0.829866
     92          6           0      -10.634014    0.514008   -1.566647
     93          1           0      -11.858338    0.402915   -0.778510
     94          7           0       -4.034672    2.920361   -0.448242
     95          6           0       -4.772258    3.374691   -1.483046
     96          6           0       -4.278396    4.731646   -1.763990
     97          6           0       -3.078890    4.978675   -0.918478
     98          6           0       -2.883594    3.661461   -0.346740
     99          6           0       -4.980974    5.676781   -2.694860
    100          6           0       -2.238113    6.195391   -0.675849
    101          8           0       -1.102027    6.122317   -0.086952
    102          6           0       -2.740636    7.460802   -1.230576
    103          7           0       -2.154214    0.980923    0.933670
    104          6           0       -1.320859    2.027596    0.799814
    105          6           0       -0.000385    1.764417    1.483549
    106          6           0       -0.208523    0.414001    2.314595
    107          6           0       -1.648584    0.067115    1.877247
    108          6           0        1.208172    1.612292    0.560170
    109          6           0        0.110171    0.466435    3.833926
    110          6           0       -0.888688    1.354415    4.540440
    111          7           0       -4.426872   -0.821522    1.285296
    112          6           0       -3.459027   -1.590228    1.968264
    113          6           0       -4.073806   -2.900336    2.265071
    114          6           0       -5.359020   -2.810505    1.709516
    115          6           0       -5.525888   -1.541906    1.091219
    116          6           0       -3.434162   -3.990071    2.920399
    117          6           0       -6.608748   -3.504328    1.496252
    118          8           0       -7.081541   -4.577025    1.869802
    119          6           0       -7.470863   -2.680971    0.444948
    120          6           0       -8.868900   -2.557300    0.985992
    121          8           0       -9.090622   -1.904431    2.020988
    122          8           0       -9.736652   -3.043445    0.079887
    123          6           0      -11.137695   -2.932592    0.566324
    124          1           0       -6.038754    3.078991   -3.152403
    125          1           0       -0.890736    3.866670    0.295640
    126          1           0       -1.662807   -1.819050    2.847347
    127          1           0       -8.483754   -1.064677   -2.045056
    128          1           0       -8.131388    1.560288   -3.005510
    129          1           0       -6.772888   -1.028150   -3.633672
    130          1           0       -5.768270    0.417017   -3.871466
    131          1           0       -7.257727    0.296401   -4.758386
    132          1           0       -9.111214    1.636185   -0.829544
    133          1           0       -9.414226    0.162787    0.161663
    134          1           0      -10.634367   -0.218964   -2.382549
    135          1           0      -10.782992    1.473352   -2.068132
    136          1           0       -5.739143    5.159937   -3.296078
    137          1           0       -4.239226    6.015821   -3.426111
    138          1           0       -5.392736    6.547189   -2.179587
    139          1           0       -2.856919    7.362206   -2.307241
    140          1           0       -2.050217    8.229282   -0.877511
    141          1           0       -3.739696    7.649588   -0.822101
    142          1           0        0.245969    2.565105    2.170075
    143          1           0        0.436327   -0.396189    1.943656
    144          1           0        2.023065    2.325523    0.786730
    145          1           0        0.873617    1.729379   -0.462032
    146          1           0        1.655456    0.619875    0.544635
    147          1           0        1.093782    0.912842    3.999383
    148          1           0        0.115487   -0.509349    4.308063
    149          1           0       -0.481597    2.357697    4.383034
    150          1           0       -0.936858    1.109692    5.599605
    151          1           0       -1.867478    1.314897    4.048424
    152          1           0       -4.148708   -4.391414    3.626698
    153          1           0       -2.518654   -3.673949    3.416065
    154          1           0       -3.234191   -4.641560    2.065507
    155          1           0       -7.444053   -3.226159   -0.499308
    156          1           0      -11.570544   -3.936905    0.525324
    157          1           0      -11.611038   -2.154080   -0.061073
    158          1           0      -11.287553   -2.680127    1.609522
 ---------------------------------------------------------------------

 SCF Done:  E(RCAM-B3LYP) =  -4069.80187165     A.U. after   19 cycles

 Excitation energies and oscillator strengths:

 Excited State   1:      Singlet-A      1.6433 eV  754.50 nm  f=0.0021  <S**2>=0.000
     309 -> 315       -0.11260
     310 -> 316        0.12121
     311 -> 313       -0.46640
     312 -> 314        0.50533
 This state for optimization and/or second-order correction.
 Total Energy, E(TD-HF/TD-DFT) =  -4069.74148281
 Copying the excited state density for this state as the 1-particle RhoCI density.

 Excited State   2:      Singlet-A      1.7058 eV  726.83 nm  f=0.6877  <S**2>=0.000
     309 -> 315        0.13404
     310 -> 316        0.12231
     311 -> 313        0.50282
     312 -> 314        0.46394

 Excited State   3:      Singlet-A      2.1816 eV  568.32 nm  f=0.0866  <S**2>=0.000
     309 -> 313       -0.19307
     310 -> 314        0.61404
     312 -> 316       -0.25706

 Excited State   4:      Singlet-A      2.1960 eV  564.59 nm  f=0.1098  <S**2>=0.000
     309 -> 313        0.60873
     310 -> 314        0.18971
     311 -> 315       -0.26779

 Excited State   5:      Singlet-A      2.3149 eV  535.59 nm  f=0.0004  <S**2>=0.000
     312 -> 313        0.70448

 The electronic state is 1-A.
 Alpha  occ. eigenvalues --  -46.87949 -46.87396 -19.26334 -19.26166 -19.19082
 Alpha  occ. eigenvalues --  -19.18966 -19.18733 -19.18513 -19.18240 -19.17809
 Alpha  occ. eigenvalues --  -14.42554 -14.42242 -14.41587 -14.41086 -14.39475
 Alpha  occ. eigenvalues --  -14.39098 -14.38714 -14.38327 -10.39143 -10.38891
 Alpha  occ. eigenvalues --  -10.35358 -10.35199 -10.34463 -10.33985 -10.31710
 Alpha  occ. eigenvalues --  -10.31596 -10.31527 -10.31038 -10.30979 -10.30813
 Alpha  occ. eigenvalues --  -10.30690 -10.30631 -10.30343 -10.30112 -10.30096
 Alpha  occ. eigenvalues --  -10.30068 -10.29830 -10.29715 -10.29623 -10.29345
 Alpha  occ. eigenvalues --  -10.29191 -10.29116 -10.28818 -10.28592 -10.28524
 Alpha  occ. eigenvalues --  -10.28510 -10.28450 -10.28197 -10.28173 -10.27934
 Alpha  occ. eigenvalues --  -10.27875 -10.27826 -10.27753 -10.27752 -10.27665
 Alpha  occ. eigenvalues --  -10.27650 -10.27497 -10.27481 -10.27415 -10.27294
 Alpha  occ. eigenvalues --  -10.27232 -10.27230 -10.27224 -10.27207 -10.27109
 Alpha  occ. eigenvalues --  -10.26818 -10.26763 -10.26522 -10.26515 -10.26307
 Alpha  occ. eigenvalues --  -10.26292 -10.26183 -10.26180 -10.25960 -10.25833
 Alpha  occ. eigenvalues --  -10.25661 -10.25607 -10.25579 -10.25434 -10.25301
 Alpha  occ. eigenvalues --  -10.25039 -10.24939 -10.24920 -10.24615 -10.24445
 Alpha  occ. eigenvalues --  -10.24352  -3.16627  -3.16145  -1.91511  -1.91098
 Alpha  occ. eigenvalues --   -1.91027  -1.90939  -1.90616  -1.90453  -1.16684
 Alpha  occ. eigenvalues --   -1.16457  -1.08699  -1.08416  -1.07122  -1.06774
 Alpha  occ. eigenvalues --   -1.06750  -1.06703  -1.04680  -1.04246  -1.03885
 Alpha  occ. eigenvalues --   -1.03399  -1.03342  -1.02767  -1.02529  -1.01850
 Alpha  occ. eigenvalues --   -0.92070  -0.91735  -0.89790  -0.89273  -0.89168
 Alpha  occ. eigenvalues --   -0.88934  -0.88514  -0.87974  -0.87967  -0.87778
 Alpha  occ. eigenvalues --   -0.87500  -0.87430  -0.87281  -0.86901  -0.85068
 Alpha  occ. eigenvalues --   -0.84789  -0.84312  -0.83623  -0.83021  -0.82739
 Alpha  occ. eigenvalues --   -0.82670  -0.82442  -0.81676  -0.81359  -0.80676
 Alpha  occ. eigenvalues --   -0.80211  -0.78855  -0.78387  -0.77445  -0.77067
 Alpha  occ. eigenvalues --   -0.76901  -0.76683  -0.76025  -0.75610  -0.75126
 Alpha  occ. eigenvalues --   -0.74687  -0.72928  -0.72430  -0.71786  -0.71397
 Alpha  occ. eigenvalues --   -0.70699  -0.69320  -0.68951  -0.68587  -0.67720
 Alpha  occ. eigenvalues --   -0.67371  -0.67256  -0.67001  -0.65475  -0.65135
 Alpha  occ. eigenvalues --   -0.65005  -0.64841  -0.64565  -0.64477  -0.64353
 Alpha  occ. eigenvalues --   -0.63740  -0.62400  -0.62036  -0.60511  -0.60115
 Alpha  occ. eigenvalues --   -0.59887  -0.59569  -0.59111  -0.58746  -0.58618
 Alpha  occ. eigenvalues --   -0.58183  -0.57674  -0.57438  -0.57317  -0.57009
 Alpha  occ. eigenvalues --   -0.56392  -0.56048  -0.55964  -0.55716  -0.55629
 Alpha  occ. eigenvalues --   -0.55507  -0.55235  -0.55040  -0.54714  -0.54288
 Alpha  occ. eigenvalues --   -0.53978  -0.53706  -0.53537  -0.53234  -0.53148
 Alpha  occ. eigenvalues --   -0.52987  -0.52926  -0.52893  -0.52719  -0.52677
 Alpha  occ. eigenvalues --   -0.52486  -0.52028  -0.51924  -0.51650  -0.51535
 Alpha  occ. eigenvalues --   -0.51452  -0.51336  -0.50948  -0.50585  -0.50359
 Alpha  occ. eigenvalues --   -0.50241  -0.49954  -0.49789  -0.49710  -0.49489
 Alpha  occ. eigenvalues --   -0.49290  -0.49276  -0.49161  -0.48979  -0.48881
 Alpha  occ. eigenvalues --   -0.48701  -0.48594  -0.48428  -0.48357  -0.48256
 Alpha  occ. eigenvalues --   -0.48134  -0.47775  -0.47382  -0.47371  -0.47043
 Alpha  occ. eigenvalues --   -0.46932  -0.46626  -0.46501  -0.46447  -0.46358
 Alpha  occ. eigenvalues --   -0.46319  -0.46044  -0.45927  -0.45894  -0.45583
 Alpha  occ. eigenvalues --   -0.45406  -0.45104  -0.44903  -0.44608  -0.44380
 Alpha  occ. eigenvalues --   -0.44309  -0.44237  -0.44165  -0.44031  -0.44004
 Alpha  occ. eigenvalues --   -0.43885  -0.43727  -0.43630  -0.43540  -0.43472
 Alpha  occ. eigenvalues --   -0.43270  -0.43090  -0.43040  -0.42752  -0.42714
 Alpha  occ. eigenvalues --   -0.42624  -0.42395  -0.42095  -0.41827  -0.41680
 Alpha  occ. eigenvalues --   -0.41557  -0.41401  -0.41253  -0.41190  -0.40894
 Alpha  occ. eigenvalues --   -0.40793  -0.40760  -0.40735  -0.40536  -0.40355
 Alpha  occ. eigenvalues --   -0.40276  -0.40047  -0.40031  -0.39526  -0.38888
 Alpha  occ. eigenvalues --   -0.38646  -0.38088  -0.37816  -0.37501  -0.37451
 Alpha  occ. eigenvalues --   -0.37337  -0.36981  -0.36960  -0.36694  -0.36523
 Alpha  occ. eigenvalues --   -0.36232  -0.35841  -0.34395  -0.33960  -0.33837
 Alpha  occ. eigenvalues --   -0.33654  -0.33292  -0.32907  -0.31294  -0.31116
 Alpha  occ. eigenvalues --   -0.31072  -0.30720  -0.30103  -0.29711  -0.29505
 Alpha  occ. eigenvalues --   -0.29405  -0.29080  -0.28937  -0.24201  -0.23766
 Alpha  occ. eigenvalues --   -0.21244  -0.20853
 Alpha virt. eigenvalues --   -0.08863  -0.08532  -0.01871  -0.01453  -0.00070
 Alpha virt. eigenvalues --    0.00189   0.02101   0.02479   0.03411   0.03750
 Alpha virt. eigenvalues --    0.04598   0.04956   0.05034   0.05370   0.06082

 Mulliken charges:
               1
     1  Mg   0.798316
     2  C    0.000227
     3  C   -0.092591
     4  C   -0.051350
     5  C   -0.063809
     6  N   -0.253171
     7  C   -0.054483
     8  C   -0.013708
     9  C   -0.086965
    10  C    0.047484
    11  C    0.104790
    12  C    0.053229
    13  C   -0.071876
    14  H    0.036271
    15  N   -0.431045
    16  C    0.169793
    17  C   -0.176422
    18  C   -0.003242
    19  C    0.146739
    20  C    0.110362
    21  C    0.016662
    22  O   -0.248522
    23  C    0.061454
    24  N   -0.334291
    25  C    0.043537
    26  C   -0.028466
    27  C   -0.028641
    28  C    0.071097
    29  C    0.076680
    30  C    0.110486
    31  C   -0.089123
    32  N   -0.306606
    33  C    0.075937
    34  C   -0.171339
    35  C    0.008247
    36  C    0.079200
    37  C    0.127642
    38  C    0.046063
    39  O   -0.188032
    40  C   -0.006133
    41  C    0.212980
    42  O   -0.257314
    43  O   -0.304764
    44  C    0.157490
    45  H   -0.017356
    46  H   -0.016634
    47  H   -0.043233
    48  H    0.001062
    49  H   -0.003826
    50  H    0.025688
    51  H    0.016577
    52  H    0.016941
    53  H    0.011566
    54  H    0.044289
    55  H    0.017972
    56  H    0.017925
    57  H    0.005502
    58  H    0.027159
    59  H    0.041364
    60  H    0.035350
    61  H    0.037945
    62  H    0.035513
    63  H    0.015987
    64  H    0.011202
    65  H    0.023999
    66  H    0.013730
    67  H    0.004940
    68  H    0.001476
    69  H    0.003306
    70  H    0.019090
    71  H    0.034079
    72  H    0.065220
    73  H    0.047093
    74  H    0.008220
    75  H    0.046545
    76  H    0.035502
    77  H    0.043325
    78  H    0.046361
    79  H    0.054046
    80  Mg   0.838323
    81  C   -0.017329
    82  C   -0.088397
    83  C   -0.047640
    84  C   -0.062252
    85  N   -0.254571
    86  C   -0.049324
    87  C   -0.015149
    88  C   -0.090449
    89  C    0.045617
    90  C    0.114618
    91  C    0.062620
    92  C   -0.077533
    93  H    0.034337
    94  N   -0.423006
    95  C    0.162358
    96  C   -0.175996
    97  C   -0.008815
    98  C    0.151298
    99  C    0.099996
   100  C    0.014080
   101  O   -0.253321
   102  C    0.061299
   103  N   -0.350075
   104  C    0.038827
   105  C   -0.013800
   106  C   -0.038057
   107  C    0.092565
   108  C    0.037624
   109  C    0.029952
   110  C   -0.003200
   111  N   -0.324562
   112  C    0.078513
   113  C   -0.161023
   114  C    0.002214
   115  C    0.096957
   116  C    0.132066
   117  C    0.042962
   118  O   -0.187665
   119  C    0.000771
   120  C    0.211131
   121  O   -0.251312
   122  O   -0.305586
   123  C    0.152186
   124  H   -0.020961
   125  H   -0.015822
   126  H   -0.037445
   127  H   -0.000862
   128  H   -0.005053
   129  H    0.022683
   130  H    0.014327
   131  H    0.015171
   132  H    0.013836
   133  H    0.037616
   134  H    0.020586
   135  H    0.019223
   136  H    0.008128
   137  H    0.024180
   138  H    0.038975
   139  H    0.036805
   140  H    0.035722
   141  H    0.034049
   142  H    0.014545
   143  H    0.019062
   144  H    0.056039
   145  H    0.015632
   146  H    0.015901
   147  H   -0.019302
   148  H   -0.000769
   149  H    0.008314
   150  H    0.012743
   151  H    0.027770
   152  H    0.044769
   153  H    0.009206
   154  H    0.051580
   155  H    0.035186
   156  H    0.043671
   157  H    0.049167
   158  H    0.053354
 Sum of Mulliken charges =  -0.00000

 Dipole moment (field-independent basis, Debye):
    X=              2.3039    Y=              4.8829    Z=             -6.8200  Tot=              8.6984
 Quadrupole moment (field-independent basis, Debye-Ang):
   XX=           -477.6866   YY=           -553.9195   ZZ=           -460.6655
   XY=            -26.4653   XZ=             24.4538   YZ=             -6.6786

 Normal termination of Gaussian 16 at Fri Sep 10 06:30:48 2021.
