 Gaussian 16, Revision A.03,
 Gaussian 16:  ES64L-G16RevA.03 25-Dec-2016

 -----------------------------------
 #p cam-b3lyp/Def2SVP td=(nstates=5)
 -----------------------------------

 --------------------------------
 TDDFT excited states in gaussian
 --------------------------------
 Symbolic Z-matrix:
 Charge =  0 Multiplicity = 1

                         Standard orientation:
 ---------------------------------------------------------------------
 Center     Atomic      Atomic             Coordinates (Angstroms)
 Number     Number       Type             X           Y           Z
 ---------------------------------------------------------------------
      1         12           0       15.496560    0.774822    0.466347
      2          6           0       15.770581   -2.518385   -0.909123
      3          6           0       16.413887    1.968869   -2.595650
      4          6           0       15.703483    3.656954    1.772915
      5          6           0       15.717765   -0.685087    3.623148
      6          7           0       16.000044   -0.244993   -1.432897
      7          6           0       16.008931   -1.508983   -1.844506
      8          6           0       16.220970   -1.656940   -3.380905
      9          6           0       16.960510   -0.273809   -3.667304
     10          6           0       16.398745    0.544514   -2.518091
     11          6           0       18.476654   -0.351610   -3.519798
     12          6           0       14.867003   -1.754957   -4.161223
     13          6           0       14.982719   -2.225405   -5.614028
     14          1           0       13.928779   -3.064129   -6.164575
     15          7           0       15.507800    2.563701   -0.371886
     16          6           0       15.897150    2.864118   -1.634202
     17          6           0       15.720159    4.325122   -1.778505
     18          6           0       15.376534    4.876406   -0.438318
     19          6           0       15.543383    3.709802    0.390280
     20          6           0       15.829776    5.041742   -3.089302
     21          6           0       14.973532    6.240941    0.024031
     22          8           0       14.946173    6.559108    1.262011
     23          6           0       14.693249    7.234842   -1.027940
     24          7           0       15.903936    1.428476    2.406557
     25          6           0       15.874751    2.729172    2.716915
     26          6           0       15.915177    2.937237    4.201844
     27          6           0       15.732479    1.492025    4.855860
     28          6           0       15.698808    0.648119    3.557801
     29          6           0       17.191565    3.588644    4.751857
     30          6           0       14.578716    1.322552    5.875923
     31          6           0       13.247148    1.454505    5.171215
     32          7           0       15.529106   -1.245434    1.259161
     33          6           0       15.649303   -1.621225    2.604898
     34          6           0       15.733153   -3.092969    2.636602
     35          6           0       15.672189   -3.472648    1.297209
     36          6           0       15.583956   -2.310323    0.478974
     37          6           0       15.907356   -3.892883    3.800313
     38          6           0       15.685875   -4.588713    0.365507
     39          8           0       15.651157   -5.814717    0.480410
     40          6           0       15.872895   -4.010420   -1.106372
     41          6           0       14.851511   -4.674702   -1.988875
     42          8           0       13.632756   -4.455813   -1.833663
     43          8           0       15.473275   -5.269988   -3.018237
     44          6           0       14.514306   -5.923376   -3.948622
     45          1           0       16.918260    2.446268   -3.438052
     46          1           0       15.668546    4.627062    2.273022
     47          1           0       15.703146   -1.214841    4.577402
     48          1           0       16.861598   -2.489144   -3.673235
     49          1           0       16.660685    0.157917   -4.621998
     50          1           0       18.788716   -1.314476   -3.115537
     51          1           0       18.744170    0.453476   -2.835135
     52          1           0       18.970134   -0.118605   -4.463707
     53          1           0       14.471360   -0.752107   -4.321908
     54          1           0       14.161149   -2.394627   -3.630263
     55          1           0       15.961828   -2.661088   -5.815109
     56          1           0       14.937892   -1.349469   -6.261275
     57          1           0       16.254199    4.401398   -3.861552
     58          1           0       16.566440    5.834135   -2.958344
     59          1           0       14.878501    5.472262   -3.402447
     60          1           0       15.580009    7.360791   -1.649505
     61          1           0       14.334242    8.125017   -0.512623
     62          1           0       13.912830    6.845659   -1.682488
     63          1           0       15.100907    3.582705    4.528587
     64          1           0       16.620425    1.175832    5.403808
     65          1           0       17.007921    4.501898    5.318379
     66          1           0       17.862100    3.776503    3.913775
     67          1           0       17.803228    2.939021    5.377377
     68          1           0       14.621419    2.107249    6.630491
     69          1           0       14.599199    0.363362    6.393404
     70          1           0       13.096129    2.532833    5.136081
     71          1           0       12.460744    0.968796    5.749892
     72          1           0       13.304589    1.099815    4.141953
     73          1           0       15.222210   -4.734289    3.697456
     74          1           0       15.702191   -3.323478    4.706563
     75          1           0       16.959330   -4.161475    3.705102
     76          1           0       16.892159   -4.247981   -1.409336
     77          1           0       14.810545   -6.969034   -4.032742
     78          1           0       14.508964   -5.324166   -4.859295
     79          1           0       13.489794   -6.027964   -3.589771
     80         12           0      -16.240681    0.338328   -0.147583
     81          6           0      -13.696738   -2.141542    0.360060
     82          6           0      -13.739467    2.539021   -0.879343
     83          6           0      -18.413950    2.650058   -0.162515
     84          6           0      -18.391542   -1.690769    1.696944
     85          7           0      -14.041841    0.109313   -0.217562
     86          6           0      -13.192013   -0.895252   -0.065925
     87          6           0      -11.728894   -0.565998   -0.466468
     88          6           0      -11.780144    1.027671   -0.275554
     89          6           0      -13.273101    1.253476   -0.505237
     90          6           0      -11.440935    1.475868    1.136323
     91          6           0      -11.413847   -0.956587   -1.953144
     92          6           0       -9.927863   -0.950329   -2.318625
     93          1           0       -9.439816   -1.949001   -3.265691
     94          7           0      -16.173083    2.159481   -0.933330
     95          6           0      -15.071223    2.897623   -1.182951
     96          6           0      -15.556691    4.168773   -1.742116
     97          6           0      -17.041874    4.185394   -1.648983
     98          6           0      -17.270973    2.981555   -0.875437
     99          6           0      -14.644257    5.184597   -2.365813
    100          6           0      -18.082802    5.135266   -2.159292
    101          8           0      -19.298925    5.080474   -1.758178
    102          6           0      -17.617000    6.190202   -3.071225
    103          7           0      -18.063463    0.566240    0.826012
    104          6           0      -18.836338    1.643682    0.603070
    105          6           0      -20.213213    1.459267    1.195178
    106          6           0      -20.281947   -0.071076    1.654419
    107          6           0      -18.838326   -0.502313    1.314697
    108          6           0      -20.553875    2.361915    2.380740
    109          6           0      -21.457382   -0.920633    1.098298
    110          6           0      -21.296200   -1.111251   -0.392702
    111          7           0      -16.161076   -1.647850    0.699061
    112          6           0      -17.163477   -2.293335    1.455792
    113          6           0      -16.604030   -3.583333    1.908941
    114          6           0      -15.296693   -3.588697    1.399708
    115          6           0      -15.051447   -2.378046    0.697094
    116          6           0      -17.271917   -4.538676    2.725858
    117          6           0      -14.064823   -4.338610    1.305787
    118          8           0      -13.709294   -5.469826    1.633959
    119          6           0      -12.931992   -3.380275    0.735977
    120          6           0      -12.208320   -4.115996   -0.358346
    121          8           0      -12.796458   -4.421469   -1.410667
    122          8           0      -10.893322   -4.144950   -0.074937
    123          6           0      -10.131689   -4.854742   -1.136966
    124          1           0      -13.026021    3.363233   -0.902707
    125          1           0      -19.235455    3.367156   -0.228646
    126          1           0      -19.031783   -2.423061    2.193463
    127          1           0      -10.973293   -0.993983    0.181366
    128          1           0      -11.195875    1.535846   -1.038281
    129          1           0      -11.336316    0.638837    1.810545
    130          1           0      -12.258970    2.112329    1.447437
    131          1           0      -10.551169    2.111920    1.126383
    132          1           0      -11.773880   -0.159812   -2.616676
    133          1           0      -11.841545   -1.910003   -2.195424
    134          1           0       -9.285108   -0.916461   -1.430555
    135          1           0       -9.704338   -0.020278   -2.846878
    136          1           0      -13.591921    4.972360   -2.140139
    137          1           0      -14.841504    6.140074   -1.867787
    138          1           0      -14.815729    5.302834   -3.437863
    139          1           0      -16.855888    6.787018   -2.574248
    140          1           0      -18.518064    6.712930   -3.397906
    141          1           0      -17.133436    5.718484   -3.933923
    142          1           0      -20.980789    1.638019    0.452220
    143          1           0      -20.389472   -0.164746    2.745059
    144          1           0      -21.462997    2.971185    2.218358
    145          1           0      -19.701467    2.997009    2.582204
    146          1           0      -20.687440    1.846400    3.330265
    147          1           0      -22.405269   -0.396628    1.243525
    148          1           0      -21.550437   -1.891980    1.572460
    149          1           0      -21.717878   -0.190250   -0.806238
    150          1           0      -21.850463   -1.985051   -0.729310
    151          1           0      -20.236960   -1.143761   -0.673076
    152          1           0      -17.067880   -5.511162    2.297906
    153          1           0      -18.340776   -4.341534    2.775293
    154          1           0      -16.776304   -4.357062    3.683287
    155          1           0      -12.270564   -3.125844    1.565037
    156          1           0       -9.569905   -5.655558   -0.646274
    157          1           0       -9.545577   -4.073792   -1.656913
    158          1           0      -10.698883   -5.413915   -1.871867
 ---------------------------------------------------------------------

 SCF Done:  E(RCAM-B3LYP) =  -4069.81176417     A.U. after   19 cycles

 Excitation energies and oscillator strengths:

 Excited State   1:      Singlet-A      1.6753 eV  740.08 nm  f=0.2055  <S**2>=0.000
     310 -> 316        0.16812
     311 -> 313       -0.16949
     312 -> 314        0.66479
     310 <- 316        0.10135
 This state for optimization and/or second-order correction.
 Total Energy, E(TD-HF/TD-DFT) =  -4069.75019836
 Copying the excited state density for this state as the 1-particle RhoCI density.

 Excited State   2:      Singlet-A      1.6801 eV  737.95 nm  f=0.5716  <S**2>=0.000
     309 -> 315        0.17015
     311 -> 313        0.66442
     312 -> 314        0.16944
     309 <- 315        0.10187

 Excited State   3:      Singlet-A      2.1861 eV  567.16 nm  f=0.1026  <S**2>=0.000
     310 -> 314        0.64247
     312 -> 316       -0.27306

 Excited State   4:      Singlet-A      2.1925 eV  565.50 nm  f=0.0989  <S**2>=0.000
     309 -> 313        0.64069
     311 -> 315       -0.27826

 Excited State   5:      Singlet-A      3.0614 eV  405.00 nm  f=0.0000  <S**2>=0.000
     312 -> 313        0.70710

 The electronic state is 1-A.
 Alpha  occ. eigenvalues --  -46.87813 -46.87658 -19.26335 -19.26296 -19.19149
 Alpha  occ. eigenvalues --  -19.19033 -19.18835 -19.18714 -19.18183 -19.18046
 Alpha  occ. eigenvalues --  -14.42495 -14.42466 -14.41466 -14.41358 -14.39419
 Alpha  occ. eigenvalues --  -14.39350 -14.38603 -14.38598 -10.39092 -10.39079
 Alpha  occ. eigenvalues --  -10.35468 -10.35392 -10.34403 -10.34223 -10.31737
 Alpha  occ. eigenvalues --  -10.31689 -10.31420 -10.31305 -10.31020 -10.30925
 Alpha  occ. eigenvalues --  -10.30585 -10.30524 -10.30396 -10.30358 -10.30224
 Alpha  occ. eigenvalues --  -10.30141 -10.29937 -10.29894 -10.29647 -10.29435
 Alpha  occ. eigenvalues --  -10.29399 -10.29271 -10.28764 -10.28711 -10.28640
 Alpha  occ. eigenvalues --  -10.28552 -10.28402 -10.28381 -10.28134 -10.28131
 Alpha  occ. eigenvalues --  -10.27999 -10.27809 -10.27743 -10.27666 -10.27601
 Alpha  occ. eigenvalues --  -10.27519 -10.27518 -10.27500 -10.27480 -10.27467
 Alpha  occ. eigenvalues --  -10.27466 -10.27464 -10.27419 -10.27377 -10.27172
 Alpha  occ. eigenvalues --  -10.27043 -10.26720 -10.26683 -10.26433 -10.26417
 Alpha  occ. eigenvalues --  -10.26247 -10.26202 -10.26140 -10.26035 -10.26017
 Alpha  occ. eigenvalues --  -10.25933 -10.25856 -10.25849 -10.25452 -10.25400
 Alpha  occ. eigenvalues --  -10.24870 -10.24848 -10.24804 -10.24733 -10.24707
 Alpha  occ. eigenvalues --  -10.24689  -3.16556  -3.16408  -1.91438  -1.91291
 Alpha  occ. eigenvalues --   -1.91024  -1.90879  -1.90866  -1.90716  -1.16644
 Alpha  occ. eigenvalues --   -1.16630  -1.08652  -1.08641  -1.07236  -1.06967
 Alpha  occ. eigenvalues --   -1.06934  -1.06655  -1.04597  -1.04492  -1.03777
 Alpha  occ. eigenvalues --   -1.03661  -1.03250  -1.03037  -1.02427  -1.02110
 Alpha  occ. eigenvalues --   -0.91987  -0.91983  -0.89536  -0.89494  -0.89203
 Alpha  occ. eigenvalues --   -0.89145  -0.88304  -0.88220  -0.87885  -0.87791
 Alpha  occ. eigenvalues --   -0.87689  -0.87681  -0.87292  -0.87119  -0.84997
 Alpha  occ. eigenvalues --   -0.84994  -0.83953  -0.83876  -0.82986  -0.82932
 Alpha  occ. eigenvalues --   -0.82664  -0.82648  -0.81599  -0.81588  -0.80612
 Alpha  occ. eigenvalues --   -0.80437  -0.78814  -0.78634  -0.77234  -0.77141
 Alpha  occ. eigenvalues --   -0.76949  -0.76892  -0.75937  -0.75832  -0.74914
 Alpha  occ. eigenvalues --   -0.74802  -0.72790  -0.72697  -0.71688  -0.71578
 Alpha  occ. eigenvalues --   -0.69924  -0.69758  -0.68889  -0.68822  -0.67657
 Alpha  occ. eigenvalues --   -0.67599  -0.67236  -0.67194  -0.65301  -0.65265
 Alpha  occ. eigenvalues --   -0.64869  -0.64767  -0.64648  -0.64636  -0.64286
 Alpha  occ. eigenvalues --   -0.64203  -0.62311  -0.62270  -0.60460  -0.60339
 Alpha  occ. eigenvalues --   -0.59819  -0.59791  -0.59003  -0.58990  -0.58519
 Alpha  occ. eigenvalues --   -0.58422  -0.57598  -0.57547  -0.57325  -0.57235
 Alpha  occ. eigenvalues --   -0.56326  -0.56201  -0.55992  -0.55877  -0.55537
 Alpha  occ. eigenvalues --   -0.55448  -0.55355  -0.55245  -0.54538  -0.54483
 Alpha  occ. eigenvalues --   -0.53910  -0.53906  -0.53315  -0.53238  -0.53225
 Alpha  occ. eigenvalues --   -0.53137  -0.52930  -0.52896  -0.52774  -0.52666
 Alpha  occ. eigenvalues --   -0.52456  -0.52402  -0.51929  -0.51882  -0.51653
 Alpha  occ. eigenvalues --   -0.51632  -0.51211  -0.51197  -0.50592  -0.50475
 Alpha  occ. eigenvalues --   -0.50048  -0.49977  -0.49936  -0.49867  -0.49531
 Alpha  occ. eigenvalues --   -0.49485  -0.49230  -0.49198  -0.49110  -0.49099
 Alpha  occ. eigenvalues --   -0.48607  -0.48552  -0.48478  -0.48462  -0.48375
 Alpha  occ. eigenvalues --   -0.48337  -0.47711  -0.47591  -0.47313  -0.47116
 Alpha  occ. eigenvalues --   -0.46813  -0.46706  -0.46570  -0.46548  -0.46375
 Alpha  occ. eigenvalues --   -0.46268  -0.46178  -0.46083  -0.45835  -0.45816
 Alpha  occ. eigenvalues --   -0.45218  -0.45208  -0.44592  -0.44524  -0.44509
 Alpha  occ. eigenvalues --   -0.44472  -0.44161  -0.44123  -0.44103  -0.44076
 Alpha  occ. eigenvalues --   -0.44035  -0.43936  -0.43545  -0.43509  -0.43401
 Alpha  occ. eigenvalues --   -0.43381  -0.43042  -0.42923  -0.42895  -0.42713
 Alpha  occ. eigenvalues --   -0.42670  -0.42553  -0.42026  -0.41962  -0.41719
 Alpha  occ. eigenvalues --   -0.41665  -0.41549  -0.41454  -0.41156  -0.40986
 Alpha  occ. eigenvalues --   -0.40885  -0.40842  -0.40719  -0.40695  -0.40588
 Alpha  occ. eigenvalues --   -0.40492  -0.40249  -0.40219  -0.39459  -0.39426
 Alpha  occ. eigenvalues --   -0.38485  -0.38349  -0.37763  -0.37647  -0.37337
 Alpha  occ. eigenvalues --   -0.37279  -0.37264  -0.37195  -0.36762  -0.36727
 Alpha  occ. eigenvalues --   -0.36213  -0.36207  -0.34302  -0.34251  -0.33852
 Alpha  occ. eigenvalues --   -0.33784  -0.33202  -0.33173  -0.31364  -0.31273
 Alpha  occ. eigenvalues --   -0.31052  -0.30970  -0.30042  -0.29950  -0.29466
 Alpha  occ. eigenvalues --   -0.29337  -0.29326  -0.29209  -0.24096  -0.24034
 Alpha  occ. eigenvalues --   -0.21144  -0.21115
 Alpha virt. eigenvalues --   -0.08791  -0.08790  -0.01766  -0.01682  -0.00075
 Alpha virt. eigenvalues --   -0.00027   0.02185   0.02210   0.03104   0.03228
 Alpha virt. eigenvalues --    0.04703   0.04734   0.05085   0.05176   0.06163

 Mulliken charges:
               1
     1  Mg   0.838731
     2  C   -0.002964
     3  C   -0.094116
     4  C   -0.045901
     5  C   -0.063979
     6  N   -0.256780
     7  C   -0.052461
     8  C   -0.014001
     9  C   -0.086999
    10  C    0.046291
    11  C    0.104808
    12  C    0.053463
    13  C   -0.071810
    14  H    0.036143
    15  N   -0.433147
    16  C    0.168400
    17  C   -0.177175
    18  C   -0.004033
    19  C    0.148699
    20  C    0.110185
    21  C    0.012252
    22  O   -0.249657
    23  C    0.062496
    24  N   -0.341149
    25  C    0.041242
    26  C   -0.028167
    27  C   -0.024006
    28  C    0.074882
    29  C    0.076173
    30  C    0.035135
    31  C   -0.004499
    32  N   -0.310471
    33  C    0.080418
    34  C   -0.169699
    35  C    0.008373
    36  C    0.082980
    37  C    0.127311
    38  C    0.046146
    39  O   -0.188363
    40  C   -0.005335
    41  C    0.212879
    42  O   -0.257126
    43  O   -0.304779
    44  C    0.157675
    45  H   -0.017593
    46  H   -0.016862
    47  H   -0.041465
    48  H    0.000974
    49  H   -0.004038
    50  H    0.025499
    51  H    0.016447
    52  H    0.016681
    53  H    0.011164
    54  H    0.044110
    55  H    0.017913
    56  H    0.017938
    57  H    0.005889
    58  H    0.026828
    59  H    0.039485
    60  H    0.037374
    61  H    0.035592
    62  H    0.031442
    63  H    0.016509
    64  H    0.009496
    65  H    0.023193
    66  H    0.012561
    67  H    0.004780
    68  H    0.006362
    69  H    0.004768
    70  H    0.008731
    71  H    0.018130
    72  H    0.028971
    73  H    0.047608
    74  H    0.009120
    75  H    0.046050
    76  H    0.035188
    77  H    0.043007
    78  H    0.046399
    79  H    0.053688
    80  Mg   0.837837
    81  C   -0.016835
    82  C   -0.087789
    83  C   -0.045531
    84  C   -0.064922
    85  N   -0.254576
    86  C   -0.049796
    87  C   -0.015136
    88  C   -0.090495
    89  C    0.045772
    90  C    0.114367
    91  C    0.062534
    92  C   -0.077949
    93  H    0.034988
    94  N   -0.423494
    95  C    0.162919
    96  C   -0.174632
    97  C   -0.007821
    98  C    0.152115
    99  C    0.099365
   100  C    0.015557
   101  O   -0.253213
   102  C    0.061203
   103  N   -0.350049
   104  C    0.037493
   105  C   -0.019833
   106  C   -0.034790
   107  C    0.088915
   108  C    0.073667
   109  C    0.034720
   110  C   -0.007670
   111  N   -0.324118
   112  C    0.078467
   113  C   -0.163134
   114  C    0.002264
   115  C    0.096212
   116  C    0.131482
   117  C    0.042391
   118  O   -0.187784
   119  C    0.000946
   120  C    0.211273
   121  O   -0.251039
   122  O   -0.305605
   123  C    0.151994
   124  H   -0.019642
   125  H   -0.015598
   126  H   -0.040462
   127  H   -0.000553
   128  H   -0.004298
   129  H    0.022502
   130  H    0.014384
   131  H    0.016347
   132  H    0.013877
   133  H    0.037678
   134  H    0.020887
   135  H    0.019575
   136  H    0.008782
   137  H    0.026132
   138  H    0.039778
   139  H    0.038250
   140  H    0.036377
   141  H    0.033893
   142  H    0.014388
   143  H    0.012407
   144  H    0.025122
   145  H    0.011638
   146  H    0.005662
   147  H    0.006248
   148  H    0.003655
   149  H    0.010921
   150  H    0.017932
   151  H    0.030118
   152  H    0.046036
   153  H    0.008492
   154  H    0.046962
   155  H    0.035091
   156  H    0.044043
   157  H    0.049536
   158  H    0.053569
 Sum of Mulliken charges =  -0.00000

 Dipole moment (field-independent basis, Debye):
    X=              4.1525    Y=              6.8495    Z=             -3.0390  Tot=              8.5670
 Quadrupole moment (field-independent basis, Debye-Ang):
   XX=           -491.6257   YY=           -560.2453   ZZ=           -467.2252
   XY=              5.3087   XZ=            -62.2682   YZ=             -8.9813

 Normal termination of Gaussian 16 at Sun Sep 12 17:04:35 2021.
