 Gaussian 16, Revision A.03,
 Gaussian 16:  ES64L-G16RevA.03 25-Dec-2016

 -----------------------------------
 #p cam-b3lyp/Def2SVP td=(nstates=5)
 -----------------------------------

 --------------------------------
 TDDFT excited states in gaussian
 --------------------------------
 Symbolic Z-matrix:
 Charge =  0 Multiplicity = 1

                         Standard orientation:
 ---------------------------------------------------------------------
 Center     Atomic      Atomic             Coordinates (Angstroms)
 Number     Number       Type             X           Y           Z
 ---------------------------------------------------------------------
      1         12           0      -15.772259   -0.814220    0.087145
      2          6           0      -16.158277    2.740796    0.245458
      3          6           0      -16.675502   -0.616718   -3.197396
      4          6           0      -15.880159   -3.983232    0.038755
      5          6           0      -16.014462   -0.847287    3.563624
      6          7           0      -16.321400    0.901786   -1.199095
      7          6           0      -16.372439    2.219669   -1.032511
      8          6           0      -16.600606    3.001883   -2.360462
      9          6           0      -17.299238    1.850573   -3.213925
     10          6           0      -16.703761    0.638322   -2.519821
     11          6           0      -18.815897    1.810760   -3.056883
     12          6           0      -15.256276    3.465393   -3.015950
     13          6           0      -15.397491    4.506503   -4.130177
     14          1           0      -14.374164    5.532305   -4.263895
     15          7           0      -15.734620   -2.074348   -1.433877
     16          6           0      -16.124081   -1.819857   -2.706214
     17          6           0      -15.903161   -3.073583   -3.458575
     18          6           0      -15.532511   -4.132651   -2.479245
     19          6           0      -15.729007   -3.436509   -1.233390
     20          6           0      -16.000548   -3.165955   -4.950464
     21          6           0      -15.084066   -5.550777   -2.640321
     22          8           0      -15.037496   -6.365384   -1.656034
     23          6           0      -14.781222   -5.992018   -4.013869
     24          7           0      -16.144513   -2.245068    1.560826
     25          6           0      -16.072821   -3.552332    1.287135
     26          6           0      -16.095527   -4.374807    2.541311
     27          6           0      -15.952582   -3.341471    3.750252
     28          6           0      -15.954843   -2.024071    2.936175
     29          6           0      -17.346978   -5.237978    2.753015
     30          6           0      -14.796890   -3.587224    4.752449
     31          6           0      -13.467271   -3.364546    4.067155
     32          7           0      -15.861152    0.673076    1.665465
     33          6           0      -15.982674    0.435275    3.042185
     34          6           0      -16.111687    1.749621    3.697865
     35          6           0      -16.072648    2.665827    2.648632
     36          6           0      -15.954781    1.966687    1.413480
     37          6           0      -16.301666    1.971158    5.090439
     38          6           0      -16.127864    4.071584    2.281679
     39          8           0      -16.130149    5.132000    2.908581
     40          6           0      -16.308109    4.170528    0.702582
     41          6           0      -15.314455    5.179152    0.194018
     42          8           0      -14.088379    4.953082    0.248758
     43          8           0      -15.962102    6.136803   -0.487157
     44          6           0      -15.030859    7.154049   -1.044069
     45          1           0      -17.171274   -0.704842   -4.166099
     46          1           0      -15.811486   -5.072363    0.077691
     47          1           0      -16.008963   -0.774787    4.652737
     48          1           0      -17.268827    3.858879   -2.274077
     49          1           0      -16.993482    1.876680   -4.259656
     50          1           0      -19.154463    2.499115   -2.282634
     51          1           0      -19.053218    0.782696   -2.782555
     52          1           0      -19.309099    1.987189   -4.013126
     53          1           0      -14.831086    2.639645   -3.586401
     54          1           0      -14.566499    3.839281   -2.258493
     55          1           0      -16.391086    4.955584   -4.132459
     56          1           0      -15.330553    3.992006   -5.088828
     57          1           0      -16.450393   -2.271043   -5.378619
     58          1           0      -16.711376   -3.961086   -5.174517
     59          1           0      -15.038837   -3.391988   -5.411283
     60          1           0      -15.668364   -5.868503   -4.635377
     61          1           0      -14.390996   -7.005273   -3.925051
     62          1           0      -14.018186   -5.336790   -4.435060
     63          1           0      -15.259256   -5.072252    2.566769
     64          1           0      -16.845682   -3.316930    4.375107
     65          1           0      -17.130925   -6.299394    2.877203
     66          1           0      -18.017737   -5.071375    1.910628
     67          1           0      -17.973642   -4.936475    3.591946
     68          1           0      -14.809611   -4.619653    5.100118
     69          1           0      -14.843052   -2.941377    5.629377
     70          1           0      -13.283298   -4.319682    3.576543
     71          1           0      -12.691869   -3.147675    4.802634
     72          1           0      -13.543452   -2.606850    3.287041
     73          1           0      -15.643629    2.797011    5.360484
     74          1           0      -16.072140    1.076410    5.668666
     75          1           0      -17.362125    2.221776    5.112213
     76          1           0      -17.336494    4.482692    0.523415
     77          1           0      -15.359876    8.125970   -0.676170
     78          1           0      -15.013931    7.000800   -2.123251
     79          1           0      -14.007369    7.127528   -0.668430
     80         12           0       15.942874    0.824664   -0.066348
     81          6           0       15.920349   -2.753945   -0.334923
     82          6           0       15.101406    0.434391    3.216061
     83          6           0       15.513662    3.964321    0.094107
     84          6           0       15.651273    0.948202   -3.537002
     85          7           0       15.585971   -0.977416    1.165473
     86          6           0       15.666574   -2.285088    0.970919
     87          6           0       15.543402   -3.136403    2.263066
     88          6           0       14.732806   -2.085426    3.167089
     89          6           0       15.190637   -0.788156    2.503650
     90          6           0       13.225103   -2.195104    3.011752
     91          6           0       16.940873   -3.476016    2.890570
     92          6           0       16.914061   -4.557266    3.973140
     93          1           0       18.045149   -5.476096    4.067318
     94          7           0       15.872151    2.032458    1.506799
     95          6           0       15.532305    1.703370    2.770715
     96          6           0       15.616568    2.949845    3.547494
     97          6           0       15.873879    4.072988    2.605663
     98          6           0       15.739584    3.388051    1.335655
     99          6           0       15.536646    2.981655    5.046171
    100          6           0       16.176465    5.526086    2.813405
    101          8           0       16.128873    6.368432    1.848522
    102          6           0       16.438702    5.949905    4.196559
    103          7           0       15.415989    2.250054   -1.485152
    104          6           0       15.350379    3.554024   -1.163786
    105          6           0       15.225115    4.414465   -2.398427
    106          6           0       15.464534    3.429003   -3.634993
    107          6           0       15.604494    2.093924   -2.871194
    108          6           0       13.888848    5.135555   -2.573966
    109          6           0       16.577580    3.823480   -4.644053
    110          6           0       17.932636    3.729975   -3.980380
    111          7           0       15.993343   -0.607352   -1.683398
    112          6           0       15.824926   -0.344989   -3.060680
    113          6           0       15.824618   -1.648761   -3.755376
    114          6           0       15.970947   -2.587968   -2.723407
    115          6           0       16.036153   -1.918033   -1.471836
    116          6           0       15.652358   -1.845802   -5.154530
    117          6           0       16.074413   -3.994395   -2.407254
    118          8           0       16.166627   -5.028631   -3.067254
    119          6           0       15.919210   -4.171754   -0.835360
    120          6           0       17.017218   -5.083373   -0.360131
    121          8           0       18.207412   -4.729827   -0.431351
    122          8           0       16.472702   -6.124247    0.295960
    123          6           0       17.522761   -7.051035    0.796213
    124          1           0       14.617322    0.431404    4.193059
    125          1           0       15.469090    5.055805    0.081998
    126          1           0       15.663450    0.907259   -4.628262
    127          1           0       14.971862   -4.050100    2.152310
    128          1           0       15.060363   -2.120222    4.202885
    129          1           0       12.949983   -2.884567    2.227479
    130          1           0       12.880273   -1.196818    2.776055
    131          1           0       12.765322   -2.454448    3.969710
    132          1           0       17.282642   -2.620774    3.487653
    133          1           0       17.645557   -3.745505    2.128069
    134          1           0       15.967437   -5.111179    3.979107
    135          1           0       16.945824   -4.070302    4.950824
    136          1           0       15.179505    2.026399    5.450309
    137          1           0       14.751353    3.698528    5.309360
    138          1           0       16.473140    3.296754    5.511318
    139          1           0       15.578145    5.710796    4.816840
    140          1           0       16.722158    7.002148    4.131014
    141          1           0       17.280134    5.367007    4.587509
    142          1           0       15.985624    5.185550   -2.411199
    143          1           0       14.566610    3.338655   -4.263810
    144          1           0       13.993816    6.233208   -2.664617
    145          1           0       13.251795    4.882311   -1.736962
    146          1           0       13.294575    4.806140   -3.424566
    147          1           0       16.455420    4.863927   -4.955011
    148          1           0       16.580039    3.216739   -5.543413
    149          1           0       18.017398    4.686784   -3.456524
    150          1           0       18.717300    3.617218   -4.725776
    151          1           0       17.946210    2.937324   -3.223287
    152          1           0       16.381280   -2.585938   -5.456782
    153          1           0       15.777031   -0.915821   -5.705319
    154          1           0       14.618245   -2.199972   -5.175755
    155          1           0       14.929707   -4.590996   -0.649106
    156          1           0       17.287983   -8.043710    0.399778
    157          1           0       17.523880   -6.935333    1.896377
    158          1           0       18.532388   -6.909836    0.428556
 ---------------------------------------------------------------------

 SCF Done:  E(RCAM-B3LYP) =  -4069.81178504     A.U. after   19 cycles

 Excitation energies and oscillator strengths:

 Excited State   1:      Singlet-A      1.6753 eV  740.06 nm  f=0.2121  <S**2>=0.000
     310 -> 316        0.16860
     311 -> 314        0.16280
     312 -> 313        0.66646
     310 <- 316        0.10164
 This state for optimization and/or second-order correction.
 Total Energy, E(TD-HF/TD-DFT) =  -4069.75021790
 Copying the excited state density for this state as the 1-particle RhoCI density.

 Excited State   2:      Singlet-A      1.6802 eV  737.93 nm  f=0.5653  <S**2>=0.000
     309 -> 315        0.17060
     311 -> 314        0.66609
     312 -> 313       -0.16275
     309 <- 315        0.10214

 Excited State   3:      Singlet-A      2.1862 eV  567.13 nm  f=0.0950  <S**2>=0.000
     310 -> 313        0.64209
     312 -> 316       -0.27296

 Excited State   4:      Singlet-A      2.1926 eV  565.47 nm  f=0.1051  <S**2>=0.000
     309 -> 314        0.64031
     311 -> 315       -0.27815

 Excited State   5:      Singlet-A      3.0659 eV  404.40 nm  f=0.0000  <S**2>=0.000
     311 -> 313        0.70711

 The electronic state is 1-A.
 Alpha  occ. eigenvalues --  -46.87796 -46.87661 -19.26351 -19.26284 -19.19163
 Alpha  occ. eigenvalues --  -19.19020 -19.18813 -19.18712 -19.18170 -19.18053
 Alpha  occ. eigenvalues --  -14.42497 -14.42449 -14.41449 -14.41359 -14.39402
 Alpha  occ. eigenvalues --  -14.39352 -14.38600 -14.38587 -10.39092 -10.39079
 Alpha  occ. eigenvalues --  -10.35446 -10.35389 -10.34390 -10.34230 -10.31758
 Alpha  occ. eigenvalues --  -10.31678 -10.31404 -10.31309 -10.31022 -10.30907
 Alpha  occ. eigenvalues --  -10.30570 -10.30507 -10.30398 -10.30361 -10.30207
 Alpha  occ. eigenvalues --  -10.30141 -10.29921 -10.29896 -10.29630 -10.29436
 Alpha  occ. eigenvalues --  -10.29401 -10.29254 -10.28747 -10.28717 -10.28652
 Alpha  occ. eigenvalues --  -10.28534 -10.28404 -10.28364 -10.28138 -10.28114
 Alpha  occ. eigenvalues --  -10.28001 -10.27793 -10.27726 -10.27668 -10.27583
 Alpha  occ. eigenvalues --  -10.27520 -10.27503 -10.27484 -10.27477 -10.27466
 Alpha  occ. eigenvalues --  -10.27461 -10.27451 -10.27403 -10.27377 -10.27158
 Alpha  occ. eigenvalues --  -10.27052 -10.26701 -10.26691 -10.26410 -10.26405
 Alpha  occ. eigenvalues --  -10.26232 -10.26188 -10.26141 -10.26021 -10.26020
 Alpha  occ. eigenvalues --  -10.25935 -10.25855 -10.25846 -10.25437 -10.25397
 Alpha  occ. eigenvalues --  -10.24873 -10.24833 -10.24787 -10.24734 -10.24692
 Alpha  occ. eigenvalues --  -10.24690  -3.16539  -3.16410  -1.91421  -1.91293
 Alpha  occ. eigenvalues --   -1.91007  -1.90881  -1.90849  -1.90718  -1.16645
 Alpha  occ. eigenvalues --   -1.16632  -1.08660  -1.08628  -1.07214  -1.06964
 Alpha  occ. eigenvalues --   -1.06947  -1.06642  -1.04580  -1.04495  -1.03760
 Alpha  occ. eigenvalues --   -1.03663  -1.03233  -1.03039  -1.02411  -1.02111
 Alpha  occ. eigenvalues --   -0.91987  -0.91972  -0.89521  -0.89495  -0.89186
 Alpha  occ. eigenvalues --   -0.89150  -0.88288  -0.88221  -0.87871  -0.87795
 Alpha  occ. eigenvalues --   -0.87684  -0.87672  -0.87272  -0.87118  -0.84998
 Alpha  occ. eigenvalues --   -0.84980  -0.83938  -0.83878  -0.82965  -0.82929
 Alpha  occ. eigenvalues --   -0.82651  -0.82647  -0.81597  -0.81585  -0.80595
 Alpha  occ. eigenvalues --   -0.80443  -0.78796  -0.78635  -0.77218  -0.77144
 Alpha  occ. eigenvalues --   -0.76933  -0.76898  -0.75922  -0.75838  -0.74899
 Alpha  occ. eigenvalues --   -0.74803  -0.72774  -0.72700  -0.71672  -0.71581
 Alpha  occ. eigenvalues --   -0.69909  -0.69759  -0.68871  -0.68826  -0.67640
 Alpha  occ. eigenvalues --   -0.67602  -0.67217  -0.67198  -0.65285  -0.65271
 Alpha  occ. eigenvalues --   -0.64853  -0.64771  -0.64654  -0.64620  -0.64270
 Alpha  occ. eigenvalues --   -0.64205  -0.62297  -0.62280  -0.60441  -0.60339
 Alpha  occ. eigenvalues --   -0.59803  -0.59796  -0.58993  -0.58987  -0.58503
 Alpha  occ. eigenvalues --   -0.58426  -0.57584  -0.57556  -0.57309  -0.57237
 Alpha  occ. eigenvalues --   -0.56309  -0.56204  -0.55978  -0.55887  -0.55519
 Alpha  occ. eigenvalues --   -0.55451  -0.55340  -0.55249  -0.54524  -0.54489
 Alpha  occ. eigenvalues --   -0.53911  -0.53893  -0.53298  -0.53228  -0.53220
 Alpha  occ. eigenvalues --   -0.53141  -0.52914  -0.52902  -0.52753  -0.52665
 Alpha  occ. eigenvalues --   -0.52441  -0.52403  -0.51916  -0.51888  -0.51657
 Alpha  occ. eigenvalues --   -0.51614  -0.51202  -0.51196  -0.50569  -0.50472
 Alpha  occ. eigenvalues --   -0.50032  -0.49978  -0.49916  -0.49867  -0.49513
 Alpha  occ. eigenvalues --   -0.49486  -0.49214  -0.49202  -0.49104  -0.49095
 Alpha  occ. eigenvalues --   -0.48592  -0.48558  -0.48461  -0.48444  -0.48377
 Alpha  occ. eigenvalues --   -0.48337  -0.47694  -0.47594  -0.47296  -0.47117
 Alpha  occ. eigenvalues --   -0.46797  -0.46709  -0.46553  -0.46552  -0.46359
 Alpha  occ. eigenvalues --   -0.46271  -0.46163  -0.46087  -0.45824  -0.45822
 Alpha  occ. eigenvalues --   -0.45209  -0.45202  -0.44578  -0.44515  -0.44505
 Alpha  occ. eigenvalues --   -0.44475  -0.44145  -0.44127  -0.44086  -0.44078
 Alpha  occ. eigenvalues --   -0.44018  -0.43938  -0.43554  -0.43495  -0.43385
 Alpha  occ. eigenvalues --   -0.43385  -0.43027  -0.42931  -0.42902  -0.42699
 Alpha  occ. eigenvalues --   -0.42656  -0.42554  -0.42010  -0.41965  -0.41704
 Alpha  occ. eigenvalues --   -0.41670  -0.41532  -0.41458  -0.41140  -0.40989
 Alpha  occ. eigenvalues --   -0.40868  -0.40821  -0.40721  -0.40697  -0.40572
 Alpha  occ. eigenvalues --   -0.40494  -0.40231  -0.40225  -0.39444  -0.39428
 Alpha  occ. eigenvalues --   -0.38470  -0.38351  -0.37746  -0.37653  -0.37321
 Alpha  occ. eigenvalues --   -0.37267  -0.37262  -0.37199  -0.36773  -0.36713
 Alpha  occ. eigenvalues --   -0.36218  -0.36193  -0.34286  -0.34254  -0.33863
 Alpha  occ. eigenvalues --   -0.33770  -0.33186  -0.33176  -0.31342  -0.31271
 Alpha  occ. eigenvalues --   -0.31035  -0.30973  -0.30029  -0.29957  -0.29448
 Alpha  occ. eigenvalues --   -0.29327  -0.29322  -0.29212  -0.24080  -0.24036
 Alpha  occ. eigenvalues --   -0.21127  -0.21117
 Alpha virt. eigenvalues --   -0.08792  -0.08774  -0.01749  -0.01684  -0.00056
 Alpha virt. eigenvalues --   -0.00027   0.02200   0.02206   0.03123   0.03225
 Alpha virt. eigenvalues --    0.04719   0.04731   0.05098   0.05163   0.06180

 Mulliken charges:
               1
     1  Mg   0.838735
     2  C   -0.002960
     3  C   -0.094089
     4  C   -0.045883
     5  C   -0.063979
     6  N   -0.256776
     7  C   -0.052450
     8  C   -0.014025
     9  C   -0.087002
    10  C    0.046330
    11  C    0.104802
    12  C    0.053461
    13  C   -0.071828
    14  H    0.036155
    15  N   -0.433141
    16  C    0.168443
    17  C   -0.177134
    18  C   -0.003987
    19  C    0.148714
    20  C    0.110173
    21  C    0.012294
    22  O   -0.249624
    23  C    0.062472
    24  N   -0.341168
    25  C    0.041280
    26  C   -0.028211
    27  C   -0.023930
    28  C    0.074834
    29  C    0.076167
    30  C    0.035120
    31  C   -0.004491
    32  N   -0.310450
    33  C    0.080394
    34  C   -0.169748
    35  C    0.008336
    36  C    0.082947
    37  C    0.127323
    38  C    0.046103
    39  O   -0.188484
    40  C   -0.005318
    41  C    0.212876
    42  O   -0.257118
    43  O   -0.304797
    44  C    0.157699
    45  H   -0.017567
    46  H   -0.016834
    47  H   -0.041540
    48  H    0.000938
    49  H   -0.003995
    50  H    0.025468
    51  H    0.016446
    52  H    0.016688
    53  H    0.011227
    54  H    0.044109
    55  H    0.017870
    56  H    0.017988
    57  H    0.005901
    58  H    0.026853
    59  H    0.039613
    60  H    0.037364
    61  H    0.035685
    62  H    0.031538
    63  H    0.016549
    64  H    0.009441
    65  H    0.023210
    66  H    0.012568
    67  H    0.004739
    68  H    0.006342
    69  H    0.004688
    70  H    0.008790
    71  H    0.018074
    72  H    0.029007
    73  H    0.047522
    74  H    0.009068
    75  H    0.045997
    76  H    0.035152
    77  H    0.042934
    78  H    0.046430
    79  H    0.053673
    80  Mg   0.837882
    81  C   -0.016836
    82  C   -0.087767
    83  C   -0.045489
    84  C   -0.064886
    85  N   -0.254572
    86  C   -0.049848
    87  C   -0.015103
    88  C   -0.090508
    89  C    0.045762
    90  C    0.114364
    91  C    0.062527
    92  C   -0.077905
    93  H    0.034887
    94  N   -0.423516
    95  C    0.162926
    96  C   -0.174568
    97  C   -0.007772
    98  C    0.152135
    99  C    0.099336
   100  C    0.015592
   101  O   -0.253148
   102  C    0.061187
   103  N   -0.350058
   104  C    0.037529
   105  C   -0.019829
   106  C   -0.034830
   107  C    0.088919
   108  C    0.073638
   109  C    0.034758
   110  C   -0.007686
   111  N   -0.324109
   112  C    0.078426
   113  C   -0.163166
   114  C    0.002238
   115  C    0.096178
   116  C    0.131491
   117  C    0.042361
   118  O   -0.187933
   119  C    0.000942
   120  C    0.211239
   121  O   -0.251028
   122  O   -0.305622
   123  C    0.152039
   124  H   -0.019580
   125  H   -0.015539
   126  H   -0.040499
   127  H   -0.000644
   128  H   -0.004286
   129  H    0.022456
   130  H    0.014459
   131  H    0.016358
   132  H    0.013927
   133  H    0.037654
   134  H    0.020805
   135  H    0.019624
   136  H    0.008806
   137  H    0.026244
   138  H    0.039829
   139  H    0.038320
   140  H    0.036434
   141  H    0.033893
   142  H    0.014405
   143  H    0.012404
   144  H    0.025167
   145  H    0.011700
   146  H    0.005670
   147  H    0.006256
   148  H    0.003612
   149  H    0.010950
   150  H    0.017906
   151  H    0.030115
   152  H    0.045969
   153  H    0.008483
   154  H    0.046918
   155  H    0.035031
   156  H    0.043895
   157  H    0.049516
   158  H    0.053567
 Sum of Mulliken charges =  -0.00000

 Dipole moment (field-independent basis, Debye):
    X=             -3.9827    Y=             -0.4734    Z=             -0.0430  Tot=              4.0109
 Quadrupole moment (field-independent basis, Debye-Ang):
   XX=           -519.0592   YY=           -551.5184   ZZ=           -447.1487
   XY=             40.6984   XZ=            127.0942   YZ=            -48.1381

 Normal termination of Gaussian 16 at Sun Sep 12 12:48:52 2021.
