 Gaussian 16, Revision A.03,
 Gaussian 16:  ES64L-G16RevA.03 25-Dec-2016

 -----------------------------------
 #p cam-b3lyp/Def2SVP td=(nstates=5)
 -----------------------------------

 --------------------------------
 TDDFT excited states in gaussian
 --------------------------------
 Symbolic Z-matrix:
 Charge =  0 Multiplicity = 1

                         Standard orientation:
 ---------------------------------------------------------------------
 Center     Atomic      Atomic             Coordinates (Angstroms)
 Number     Number       Type             X           Y           Z
 ---------------------------------------------------------------------
      1         12           0       15.775459    0.727389    0.340798
      2          6           0       16.145517   -2.668491   -0.728441
      3          6           0       16.620387    1.661641   -2.830374
      4          6           0       15.899125    3.723398    1.372910
      5          6           0       16.078264   -0.425715    3.615599
      6          7           0       16.293135   -0.447184   -1.462819
      7          6           0       16.340149   -1.742925   -1.756104
      8          6           0       16.541077   -2.025683   -3.275001
      9          6           0       17.230789   -0.651785   -3.697734
     10          6           0       16.653843    0.250866   -2.621501
     11          6           0       18.750138   -0.666351   -3.564063
     12          6           0       15.183136   -2.239474   -4.024681
     13          6           0       15.299485   -2.838540   -5.429293
     14          1           0       14.268620   -3.758429   -5.885876
     15          7           0       15.717981    2.430300   -0.659022
     16          6           0       16.083913    2.624905   -1.948793
     17          6           0       15.856520    4.059732   -2.224919
     18          6           0       15.508521    4.721413   -0.936831
     19          6           0       15.723002    3.642654   -0.006426
     20          6           0       15.928426    4.654960   -3.597611
     21          6           0       15.064788    6.109128   -0.597011
     22          8           0       15.039620    6.539607    0.606579
     23          6           0       14.740418    6.991636   -1.732355
     24          7           0       16.180791    1.570921    2.206755
     25          6           0       16.111209    2.893148    2.396116
     26          6           0       16.160040    3.239142    3.854829
     27          6           0       16.032725    1.855601    4.641823
     28          6           0       16.013915    0.894377    3.427754
     29          6           0       17.419495    3.979787    4.325179
     30          6           0       14.895945    1.744054    5.688583
     31          6           0       13.553458    1.766857    4.992661
     32          7           0       15.883988   -1.208569    1.316162
     33          6           0       16.030683   -1.453921    2.689099
     34          6           0       16.164184   -2.912894    2.855360
     35          6           0       16.102095   -3.416851    1.557663
     36          6           0       15.966431   -2.338841    0.636913
     37          6           0       16.377191   -3.595437    4.085481
     38          6           0       16.143545   -4.613429    0.732836
     39          8           0       16.151170   -5.823985    0.960847
     40          6           0       16.295775   -4.168277   -0.788510
     41          6           0       15.288147   -4.944277   -1.592139
     42          8           0       14.064412   -4.751601   -1.441428
     43          8           0       15.918816   -5.611915   -2.570433
     44          6           0       14.972703   -6.379486   -3.423579
     45          1           0       17.099691    2.075022   -3.719939
     46          1           0       15.836854    4.734035    1.781779
     47          1           0       16.091329   -0.864942    4.614780
     48          1           0       17.206195   -2.860173   -3.497865
     49          1           0       16.906757   -0.320355   -4.684081
     50          1           0       19.098504   -1.576972   -3.076897
     51          1           0       18.997585    0.206979   -2.960277
     52          1           0       19.225701   -0.505943   -4.531992
     53          1           0       14.752426   -1.269199   -4.271899
     54          1           0       14.504686   -2.849743   -3.427518
     55          1           0       16.290521   -3.258988   -5.602446
     56          1           0       15.218584   -2.028279   -6.153953
     57          1           0       16.366055    3.959908   -4.313103
     58          1           0       16.639411    5.479561   -3.550248
     59          1           0       14.960045    5.023514   -3.936340
     60          1           0       15.615956    7.088139   -2.374749
     61          1           0       14.357117    7.913621   -1.296611
     62          1           0       13.966744    6.518350   -2.337647
     63          1           0       15.328009    3.885355    4.131521
     64          1           0       16.936418    1.620529    5.204633
     65          1           0       17.211207    4.935175    4.807419
     66          1           0       18.074617    4.110819    3.464402
     67          1           0       18.059066    3.411122    4.999705
     68          1           0       14.920128    2.596278    6.366872
     69          1           0       14.953964    0.838125    6.292054
     70          1           0       13.365993    2.831817    4.860194
     71          1           0       12.789839    1.311613    5.624206
     72          1           0       13.612082    1.320352    3.999845
     73          1           0       15.719627   -4.464539    4.069928
     74          1           0       16.162455   -2.951449    4.937989
     75          1           0       17.436539   -3.837425    4.001336
     76          1           0       17.319235   -4.399700   -1.081926
     77          1           0       15.302966   -7.418276   -3.414813
     78          1           0       14.937811   -5.867746   -4.385510
     79          1           0       13.956055   -6.483549   -3.042874
     80         12           0      -15.945932   -0.787790    0.211494
     81          6           0      -15.889991    2.482254   -1.265924
     82          6           0      -15.151782    0.701215    3.175754
     83          6           0      -15.544950   -3.683564    1.444832
     84          6           0      -15.602103   -2.093424   -3.001419
     85          7           0      -15.593240    1.326348    0.757657
     86          6           0      -15.660145    2.488456    0.125681
     87          6           0      -15.549858    3.730586    1.050070
     88          6           0      -14.761868    3.050901    2.273170
     89          6           0      -15.220059    1.605972    2.086328
     90          6           0      -13.251106    3.097061    2.115665
     91          6           0      -16.953973    4.268001    1.499162
     92          6           0      -16.934934    5.654595    2.146269
     93          1           0      -18.059769    6.552845    1.900595
     94          7           0      -15.909261   -1.383802    2.104112
     95          6           0      -15.586167   -0.642503    3.184564
     96          6           0      -15.692549   -1.547270    4.339652
     97          6           0      -15.944552   -2.924458    3.835122
     98          6           0      -15.785180   -2.716327    2.409865
     99          6           0      -15.635914   -1.063979    5.759745
    100          6           0      -16.262181   -4.217738    4.522692
    101          8           0      -16.206673   -5.339761    3.905594
    102          6           0      -16.549076   -4.141486    5.962606
    103          7           0      -15.409010   -2.614220   -0.624078
    104          6           0      -15.359018   -3.729380    0.125490
    105          6           0      -15.221865   -4.961000   -0.737468
    106          6           0      -15.434196   -4.458150   -2.240680
    107          6           0      -15.574939   -2.941874   -1.982803
    108          6           0      -13.889007   -5.701835   -0.632401
    109          6           0      -16.534809   -5.171708   -3.072642
    110          6           0      -17.899087   -4.853216   -2.504569
    111          7           0      -15.959844    0.003785   -1.798795
    112          6           0      -15.772461   -0.714887   -2.999819
    113          6           0      -15.750808    0.272027   -4.098885
    114          6           0      -15.905282    1.508260   -3.453641
    115          6           0      -15.995164    1.307747   -2.049644
    116          6           0      -15.555488   -0.022548   -5.477725
    117          6           0      -16.002068    2.938154   -3.640083
    118          8           0      -16.075666    3.683950   -4.615835
    119          6           0      -15.869564    3.642855   -2.221548
    120          6           0      -16.967247    4.664764   -2.106235
    121          8           0      -18.159056    4.311122   -2.072575
    122          8           0      -16.424367    5.866087   -1.836997
    123          6           0      -17.474361    6.910715   -1.702553
    124          1           0      -14.682751    1.037503    4.100848
    125          1           0      -15.509126   -4.713271    1.808000
    126          1           0      -15.597193   -2.428740   -4.040748
    127          1           0      -14.969220    4.549672    0.642974
    128          1           0      -15.104987    3.439189    3.228614
    129          1           0      -12.958348    3.475487    1.147564
    130          1           0      -12.910875    2.077598    2.242075
    131          1           0      -12.803983    3.667741    2.934651
    132          1           0      -17.311857    3.669865    2.347032
    133          1           0      -17.644637    4.261701    0.678453
    134          1           0      -15.984012    6.174738    1.978501
    135          1           0      -16.985688    5.532074    3.230901
    136          1           0      -15.277200   -0.028951    5.818404
    137          1           0      -14.860642   -1.649244    6.266006
    138          1           0      -16.581978   -1.198398    6.288465
    139          1           0      -15.696225   -3.706460    6.478228
    140          1           0      -16.840108   -5.151824    6.256509
    141          1           0      -17.391612   -3.457888    6.115747
    142          1           0      -15.988378   -5.687953   -0.498508
    143          1           0      -14.526022   -4.590851   -2.846844
    144          1           0      -14.001544   -6.763871   -0.343467
    145          1           0      -13.262831   -5.178748    0.078103
    146          1           0      -13.279064   -5.685162   -1.534007
    147          1           0      -16.416408   -6.256023   -3.006337
    148          1           0      -16.518500   -4.909747   -4.125312
    149          1           0      -17.999711   -5.572489   -1.686270
    150          1           0      -18.671272   -5.000715   -3.256909
    151          1           0      -17.917791   -3.849163   -2.065062
    152          1           0      -16.273604    0.571047   -6.027678
    153          1           0      -15.679300   -1.084630   -5.678797
    154          1           0      -14.518312    0.300410   -5.601147
    155          1           0      -14.879642    4.098120   -2.173119
    156          1           0      -17.225398    7.706964   -2.410861
    157          1           0      -17.493305    7.178878   -0.629484
    158          1           0      -18.479338    6.654581   -2.016958
 ---------------------------------------------------------------------

 SCF Done:  E(RCAM-B3LYP) =  -4069.81178619     A.U. after   19 cycles

 Excitation energies and oscillator strengths:

 Excited State   1:      Singlet-A      1.6754 eV  740.02 nm  f=0.2831  <S**2>=0.000
     310 -> 316        0.17060
     311 -> 314        0.12679
     312 -> 313        0.67423
     310 <- 316        0.10284
 This state for optimization and/or second-order correction.
 Total Energy, E(TD-HF/TD-DFT) =  -4069.75021540
 Copying the excited state density for this state as the 1-particle RhoCI density.

 Excited State   2:      Singlet-A      1.6800 eV  737.98 nm  f=0.4938  <S**2>=0.000
     309 -> 315        0.17255
     311 -> 314        0.67387
     312 -> 313       -0.12675
     309 <- 315        0.10332

 Excited State   3:      Singlet-A      2.1861 eV  567.14 nm  f=0.0979  <S**2>=0.000
     310 -> 313        0.64223
     312 -> 316       -0.27302

 Excited State   4:      Singlet-A      2.1926 eV  565.48 nm  f=0.1026  <S**2>=0.000
     309 -> 314        0.64045
     311 -> 315       -0.27819

 Excited State   5:      Singlet-A      3.0657 eV  404.42 nm  f=0.0000  <S**2>=0.000
     311 -> 313        0.70711

 The electronic state is 1-A.
 Alpha  occ. eigenvalues --  -46.87796 -46.87661 -19.26354 -19.26281 -19.19165
 Alpha  occ. eigenvalues --  -19.19017 -19.18814 -19.18712 -19.18168 -19.18054
 Alpha  occ. eigenvalues --  -14.42498 -14.42449 -14.41449 -14.41359 -14.39402
 Alpha  occ. eigenvalues --  -14.39352 -14.38600 -14.38586 -10.39094 -10.39077
 Alpha  occ. eigenvalues --  -10.35447 -10.35389 -10.34388 -10.34231 -10.31761
 Alpha  occ. eigenvalues --  -10.31675 -10.31404 -10.31310 -10.31023 -10.30907
 Alpha  occ. eigenvalues --  -10.30569 -10.30507 -10.30398 -10.30362 -10.30207
 Alpha  occ. eigenvalues --  -10.30140 -10.29921 -10.29895 -10.29630 -10.29436
 Alpha  occ. eigenvalues --  -10.29401 -10.29254 -10.28745 -10.28720 -10.28656
 Alpha  occ. eigenvalues --  -10.28531 -10.28405 -10.28364 -10.28140 -10.28113
 Alpha  occ. eigenvalues --  -10.28001 -10.27792 -10.27726 -10.27669 -10.27583
 Alpha  occ. eigenvalues --  -10.27517 -10.27504 -10.27484 -10.27478 -10.27467
 Alpha  occ. eigenvalues --  -10.27462 -10.27452 -10.27402 -10.27374 -10.27156
 Alpha  occ. eigenvalues --  -10.27053 -10.26699 -10.26694 -10.26410 -10.26408
 Alpha  occ. eigenvalues --  -10.26231 -10.26189 -10.26138 -10.26024 -10.26020
 Alpha  occ. eigenvalues --  -10.25935 -10.25855 -10.25845 -10.25439 -10.25393
 Alpha  occ. eigenvalues --  -10.24874 -10.24832 -10.24788 -10.24732 -10.24693
 Alpha  occ. eigenvalues --  -10.24690  -3.16539  -3.16411  -1.91420  -1.91293
 Alpha  occ. eigenvalues --   -1.91007  -1.90881  -1.90849  -1.90718  -1.16647
 Alpha  occ. eigenvalues --   -1.16629  -1.08662  -1.08626  -1.07215  -1.06964
 Alpha  occ. eigenvalues --   -1.06949  -1.06639  -1.04580  -1.04495  -1.03760
 Alpha  occ. eigenvalues --   -1.03663  -1.03233  -1.03039  -1.02411  -1.02112
 Alpha  occ. eigenvalues --   -0.91988  -0.91971  -0.89521  -0.89495  -0.89185
 Alpha  occ. eigenvalues --   -0.89151  -0.88289  -0.88220  -0.87870  -0.87795
 Alpha  occ. eigenvalues --   -0.87684  -0.87672  -0.87272  -0.87119  -0.85000
 Alpha  occ. eigenvalues --   -0.84979  -0.83939  -0.83876  -0.82966  -0.82929
 Alpha  occ. eigenvalues --   -0.82652  -0.82646  -0.81599  -0.81584  -0.80595
 Alpha  occ. eigenvalues --   -0.80444  -0.78796  -0.78635  -0.77218  -0.77145
 Alpha  occ. eigenvalues --   -0.76932  -0.76899  -0.75921  -0.75840  -0.74899
 Alpha  occ. eigenvalues --   -0.74802  -0.72774  -0.72700  -0.71671  -0.71581
 Alpha  occ. eigenvalues --   -0.69910  -0.69758  -0.68871  -0.68827  -0.67640
 Alpha  occ. eigenvalues --   -0.67602  -0.67216  -0.67200  -0.65284  -0.65272
 Alpha  occ. eigenvalues --   -0.64853  -0.64771  -0.64655  -0.64620  -0.64271
 Alpha  occ. eigenvalues --   -0.64204  -0.62296  -0.62281  -0.60441  -0.60339
 Alpha  occ. eigenvalues --   -0.59802  -0.59797  -0.58993  -0.58987  -0.58503
 Alpha  occ. eigenvalues --   -0.58426  -0.57583  -0.57557  -0.57309  -0.57237
 Alpha  occ. eigenvalues --   -0.56309  -0.56205  -0.55976  -0.55889  -0.55519
 Alpha  occ. eigenvalues --   -0.55452  -0.55340  -0.55249  -0.54523  -0.54489
 Alpha  occ. eigenvalues --   -0.53913  -0.53892  -0.53298  -0.53228  -0.53220
 Alpha  occ. eigenvalues --   -0.53142  -0.52913  -0.52903  -0.52754  -0.52666
 Alpha  occ. eigenvalues --   -0.52442  -0.52402  -0.51915  -0.51888  -0.51659
 Alpha  occ. eigenvalues --   -0.51614  -0.51203  -0.51195  -0.50570  -0.50473
 Alpha  occ. eigenvalues --   -0.50033  -0.49979  -0.49917  -0.49866  -0.49512
 Alpha  occ. eigenvalues --   -0.49487  -0.49213  -0.49203  -0.49105  -0.49094
 Alpha  occ. eigenvalues --   -0.48591  -0.48560  -0.48462  -0.48444  -0.48376
 Alpha  occ. eigenvalues --   -0.48337  -0.47693  -0.47595  -0.47296  -0.47117
 Alpha  occ. eigenvalues --   -0.46797  -0.46710  -0.46554  -0.46552  -0.46359
 Alpha  occ. eigenvalues --   -0.46271  -0.46162  -0.46087  -0.45825  -0.45821
 Alpha  occ. eigenvalues --   -0.45208  -0.45203  -0.44577  -0.44516  -0.44505
 Alpha  occ. eigenvalues --   -0.44476  -0.44145  -0.44128  -0.44086  -0.44078
 Alpha  occ. eigenvalues --   -0.44018  -0.43939  -0.43555  -0.43493  -0.43386
 Alpha  occ. eigenvalues --   -0.43384  -0.43026  -0.42933  -0.42903  -0.42698
 Alpha  occ. eigenvalues --   -0.42655  -0.42553  -0.42010  -0.41965  -0.41703
 Alpha  occ. eigenvalues --   -0.41670  -0.41531  -0.41459  -0.41140  -0.40990
 Alpha  occ. eigenvalues --   -0.40868  -0.40822  -0.40721  -0.40698  -0.40572
 Alpha  occ. eigenvalues --   -0.40493  -0.40230  -0.40227  -0.39445  -0.39426
 Alpha  occ. eigenvalues --   -0.38470  -0.38350  -0.37745  -0.37655  -0.37321
 Alpha  occ. eigenvalues --   -0.37266  -0.37261  -0.37200  -0.36774  -0.36711
 Alpha  occ. eigenvalues --   -0.36218  -0.36192  -0.34285  -0.34254  -0.33865
 Alpha  occ. eigenvalues --   -0.33768  -0.33186  -0.33176  -0.31344  -0.31271
 Alpha  occ. eigenvalues --   -0.31035  -0.30973  -0.30028  -0.29959  -0.29448
 Alpha  occ. eigenvalues --   -0.29327  -0.29321  -0.29213  -0.24080  -0.24037
 Alpha  occ. eigenvalues --   -0.21127  -0.21117
 Alpha virt. eigenvalues --   -0.08792  -0.08773  -0.01749  -0.01684  -0.00057
 Alpha virt. eigenvalues --   -0.00028   0.02201   0.02206   0.03123   0.03228
 Alpha virt. eigenvalues --    0.04721   0.04729   0.05101   0.05161   0.06181

 Mulliken charges:
               1
     1  Mg   0.838794
     2  C   -0.002931
     3  C   -0.094076
     4  C   -0.045880
     5  C   -0.063978
     6  N   -0.256782
     7  C   -0.052475
     8  C   -0.014016
     9  C   -0.087015
    10  C    0.046324
    11  C    0.104808
    12  C    0.053462
    13  C   -0.071838
    14  H    0.036180
    15  N   -0.433155
    16  C    0.168402
    17  C   -0.177121
    18  C   -0.004014
    19  C    0.148724
    20  C    0.110166
    21  C    0.012285
    22  O   -0.249657
    23  C    0.062476
    24  N   -0.341147
    25  C    0.041255
    26  C   -0.028186
    27  C   -0.023966
    28  C    0.074834
    29  C    0.076176
    30  C    0.035137
    31  C   -0.004485
    32  N   -0.310474
    33  C    0.080408
    34  C   -0.169744
    35  C    0.008371
    36  C    0.082942
    37  C    0.127318
    38  C    0.046096
    39  O   -0.188453
    40  C   -0.005322
    41  C    0.212881
    42  O   -0.257108
    43  O   -0.304800
    44  C    0.157696
    45  H   -0.017568
    46  H   -0.016859
    47  H   -0.041535
    48  H    0.000945
    49  H   -0.003989
    50  H    0.025471
    51  H    0.016434
    52  H    0.016691
    53  H    0.011224
    54  H    0.044120
    55  H    0.017872
    56  H    0.017988
    57  H    0.005910
    58  H    0.026840
    59  H    0.039603
    60  H    0.037368
    61  H    0.035645
    62  H    0.031535
    63  H    0.016524
    64  H    0.009446
    65  H    0.023185
    66  H    0.012568
    67  H    0.004739
    68  H    0.006321
    69  H    0.004704
    70  H    0.008760
    71  H    0.018080
    72  H    0.029019
    73  H    0.047548
    74  H    0.009071
    75  H    0.046003
    76  H    0.035160
    77  H    0.042946
    78  H    0.046430
    79  H    0.053687
    80  Mg   0.837916
    81  C   -0.016834
    82  C   -0.087784
    83  C   -0.045482
    84  C   -0.064869
    85  N   -0.254577
    86  C   -0.049855
    87  C   -0.015108
    88  C   -0.090517
    89  C    0.045776
    90  C    0.114370
    91  C    0.062541
    92  C   -0.077900
    93  H    0.034879
    94  N   -0.423512
    95  C    0.162932
    96  C   -0.174572
    97  C   -0.007770
    98  C    0.152114
    99  C    0.099343
   100  C    0.015593
   101  O   -0.253128
   102  C    0.061189
   103  N   -0.350074
   104  C    0.037532
   105  C   -0.019864
   106  C   -0.034801
   107  C    0.088905
   108  C    0.073630
   109  C    0.034727
   110  C   -0.007677
   111  N   -0.324108
   112  C    0.078432
   113  C   -0.163165
   114  C    0.002228
   115  C    0.096184
   116  C    0.131491
   117  C    0.042359
   118  O   -0.187933
   119  C    0.000946
   120  C    0.211235
   121  O   -0.251014
   122  O   -0.305634
   123  C    0.152042
   124  H   -0.019607
   125  H   -0.015519
   126  H   -0.040477
   127  H   -0.000658
   128  H   -0.004302
   129  H    0.022447
   130  H    0.014471
   131  H    0.016328
   132  H    0.013927
   133  H    0.037655
   134  H    0.020789
   135  H    0.019615
   136  H    0.008787
   137  H    0.026231
   138  H    0.039819
   139  H    0.038304
   140  H    0.036444
   141  H    0.033885
   142  H    0.014418
   143  H    0.012432
   144  H    0.025197
   145  H    0.011694
   146  H    0.005707
   147  H    0.006292
   148  H    0.003626
   149  H    0.010955
   150  H    0.017914
   151  H    0.030086
   152  H    0.045966
   153  H    0.008504
   154  H    0.046918
   155  H    0.035010
   156  H    0.043880
   157  H    0.049508
   158  H    0.053567
 Sum of Mulliken charges =  -0.00000

 Dipole moment (field-independent basis, Debye):
    X=              3.8541    Y=              3.0935    Z=              0.7973  Tot=              5.0059
 Quadrupole moment (field-independent basis, Debye-Ang):
   XX=           -518.7514   YY=           -538.2632   ZZ=           -460.4356
   XY=             37.7355   XZ=           -119.2905   YZ=             36.0124

 Normal termination of Gaussian 16 at Sat Sep  4 18:25:32 2021.
