 Gaussian 16, Revision A.03,
 Gaussian 16:  ES64L-G16RevA.03 25-Dec-2016

 -----------------------------------
 #p cam-b3lyp/Def2SVP td=(nstates=5)
 -----------------------------------

 --------------------------------
 TDDFT excited states in gaussian
 --------------------------------
 Symbolic Z-matrix:
 Charge =  0 Multiplicity = 1

                         Standard orientation:
 ---------------------------------------------------------------------
 Center     Atomic      Atomic             Coordinates (Angstroms)
 Number     Number       Type             X           Y           Z
 ---------------------------------------------------------------------
      1         12           0        6.492223    0.707210    0.520127
      2          6           0        7.040140   -2.174701   -1.530870
      3          6           0        7.166244    2.609344   -2.231353
      4          6           0        6.460856    3.255019    2.408065
      5          6           0        6.980407   -1.352781    3.288480
      6          7           0        7.020955    0.169232   -1.561138
      7          6           0        7.140035   -0.971573   -2.233116
      8          6           0        7.306021   -0.769472   -3.769013
      9          6           0        7.892083    0.713268   -3.765920
     10          6           0        7.296425    1.207163   -2.459328
     11          6           0        9.412994    0.767039   -3.663732
     12          6           0        5.939358   -0.843726   -4.529572
     13          6           0        6.045018   -0.982826   -6.051032
     14          1           0        5.059533   -1.793556   -6.750235
     15          7           0        6.292251    2.623382    0.082925
     16          6           0        6.600388    3.222294   -1.092507
     17          6           0        6.272931    4.653812   -0.918701
     18          6           0        5.928232    4.871066    0.513806
     19          6           0        6.242757    3.580521    1.071432
     20          6           0        6.259505    5.637814   -2.047997
     21          6           0        5.409233    6.057197    1.263381
     22          8           0        5.398293    6.102882    2.541023
     23          6           0        4.990505    7.214924    0.452594
     24          7           0        6.907260    0.977100    2.548067
     25          6           0        6.760405    2.172746    3.129314
     26          6           0        6.837434    2.066610    4.623550
     27          6           0        6.825471    0.505069    4.957013
     28          6           0        6.825899   -0.045362    3.509499
     29          6           0        8.062770    2.718949    5.278543
     30          6           0        5.734845    0.003526    5.936507
     31          6           0        4.370423    0.139219    5.298512
     32          7           0        6.757070   -1.419628    0.862852
     33          6           0        6.966310   -2.055435    2.095184
     34          6           0        7.197867   -3.483542    1.810652
     35          6           0        7.123201   -3.577002    0.422295
     36          6           0        6.887668   -2.284479   -0.127434
     37          6           0        7.496090   -4.487493    2.773760
     38          6           0        7.212103   -4.464045   -0.726229
     39          8           0        7.304463   -5.683393   -0.875067
     40          6           0        7.283197   -3.572373   -2.043686
     41          6           0        6.299783   -4.140242   -3.030464
     42          8           0        5.072206   -4.089158   -2.811802
     43          8           0        6.937473   -4.436262   -4.173383
     44          6           0        6.013169   -4.976858   -5.205648
     45          1           0        7.587361    3.304022   -2.960753
     46          1           0        6.348654    4.088829    3.104203
     47          1           0        7.055792   -2.070063    4.107794
     48          1           0        8.014719   -1.448910   -4.242865
     49          1           0        7.513835    1.302101   -4.601340
     50          1           0        9.835089   -0.220803   -3.479545
     51          1           0        9.625142    1.433625   -2.827581
     52          1           0        9.843746    1.244423   -4.544263
     53          1           0        5.439620    0.122850   -4.465901
     54          1           0        5.322039   -1.651859   -4.135665
     55          1           0        7.054196   -1.260301   -6.356770
     56          1           0        5.887873   -0.000034   -6.495582
     57          1           0        6.715465    5.222992   -2.946089
     58          1           0        6.917887    6.458278   -1.763251
     59          1           0        5.258566    6.021475   -2.246130
     60          1           0        5.835471    7.562020   -0.142475
     61          1           0        4.564670    7.933557    1.151937
     62          1           0        4.228044    6.891917   -0.256820
     63          1           0        5.976075    2.538951    5.094060
     64          1           0        7.761139    0.176381    5.409962
     65          1           0        7.810972    3.467787    6.029904
     66          1           0        8.678174    3.148913    4.488796
     67          1           0        8.760049    2.020653    5.740714
     68          1           0        5.728223    0.611789    6.840342
     69          1           0        5.871066   -1.035434    6.236937
     70          1           0        4.111236    1.178602    5.496851
     71          1           0        3.659495   -0.537858    5.773232
     72          1           0        4.423018    0.017283    4.216454
     73          1           0        6.894913   -5.356056    2.505143
     74          1           0        7.270408   -4.146622    3.783947
     75          1           0        8.565136   -4.617159    2.605882
     76          1           0        8.308563   -3.631606   -2.407333
     77          1           0        6.408853   -5.944017   -5.515927
     78          1           0        5.912693   -4.203362   -5.967235
     79          1           0        5.018918   -5.262462   -4.860345
     80         12           0       -6.657045   -0.810087    0.459663
     81          6           0       -6.741624    1.813090   -1.987962
     82          6           0       -6.064587    1.597897    2.801714
     83          6           0       -6.129952   -3.126072    2.563427
     84          6           0       -6.116037   -3.046047   -2.158257
     85          7           0       -6.452037    1.386736    0.304077
     86          6           0       -6.564674    2.278873   -0.668418
     87          6           0       -6.563454    3.755552   -0.189906
     88          6           0       -5.782446    3.557538    1.199230
     89          6           0       -6.146112    2.100698    1.478593
     90          6           0       -4.272322    3.654547    1.059739
     91          6           0       -8.012970    4.310524    0.040131
     92          6           0       -8.101056    5.828987    0.208228
     93          1           0       -9.267644    6.522442   -0.330912
     94          7           0       -6.655487   -0.766876    2.443775
     95          6           0       -6.417871    0.300817    3.234247
     96          6           0       -6.513010   -0.193016    4.616729
     97          6           0       -6.663199   -1.673077    4.576855
     98          6           0       -6.463457   -1.920303    3.162965
     99          6           0       -6.538434    0.720911    5.807313
    100          6           0       -6.928372   -2.697837    5.637863
    101          8           0       -6.782870   -3.951546    5.414476
    102          6           0       -7.272883   -2.185878    6.972285
    103          7           0       -5.981048   -2.766315    0.263269
    104          6           0       -5.892478   -3.577707    1.331779
    105          6           0       -5.649804   -5.007862    0.912071
    106          6           0       -5.835557   -5.026904   -0.676231
    107          6           0       -6.076241   -3.521051   -0.920938
    108          6           0       -4.279886   -5.583124    1.270928
    109          6           0       -6.859687   -6.042406   -1.252902
    110          6           0       -8.260825   -5.653666   -0.839285
    111          7           0       -6.643198   -0.704452   -1.698281
    112          6           0       -6.368468   -1.754224   -2.601921
    113          6           0       -6.364844   -1.170675   -3.959085
    114          6           0       -6.616943    0.193176   -3.747304
    115          6           0       -6.747045    0.445581   -2.354877
    116          6           0       -6.100910   -1.875785   -5.167088
    117          6           0       -6.792042    1.478579   -4.384324
    118          8           0       -6.873618    1.867039   -5.548870
    119          6           0       -6.754963    2.606499   -3.265039
    120          6           0       -7.915332    3.533926   -3.501590
    121          8           0       -9.084280    3.128635   -3.375533
    122          8           0       -7.455684    4.792603   -3.623381
    123          6           0       -8.570550    5.750883   -3.848340
    124          1           0       -5.651367    2.243209    3.577412
    125          1           0       -6.046199   -3.980997    3.238384
    126          1           0       -6.052282   -3.694374   -3.034769
    127          1           0       -6.018047    4.439675   -0.828869
    128          1           0       -6.183608    4.205950    1.973813
    129          1           0       -3.966774    3.723343    0.026279
    130          1           0       -3.876703    2.754619    1.512136
    131          1           0       -3.891008    4.486024    1.659389
    132          1           0       -8.365859    3.991211    1.029205
    133          1           0       -8.670907    3.995240   -0.746217
    134          1           0       -7.177347    6.332329   -0.102163
    135          1           0       -8.184858    6.055872    1.273837
    136          1           0       -6.244700    1.742572    5.536508
    137          1           0       -5.749002    0.382496    6.487116
    138          1           0       -7.493855    0.697710    6.335806
    139          1           0       -6.467415   -1.551609    7.334766
    140          1           0       -7.513735   -3.067041    7.570133
    141          1           0       -8.159916   -1.548663    6.884255
    142          1           0       -6.379853   -5.671305    1.359247
    143          1           0       -4.899067   -5.283492   -1.192941
    144          1           0       -4.339424   -6.502482    1.883561
    145          1           0       -3.713074   -4.818977    1.786035
    146          1           0       -3.638792   -5.813283    0.421673
    147          1           0       -6.679227   -7.038030   -0.840200
    148          1           0       -6.819783   -6.129657   -2.333548
    149          1           0       -8.348746   -6.079258    0.164820
    150          1           0       -8.994179   -6.086183   -1.516901
    151          1           0       -8.355936   -4.565620   -0.745620
    152          1           0       -6.832201   -1.539507   -5.890013
    153          1           0       -6.153402   -2.952350   -5.018639
    154          1           0       -5.081024   -1.538751   -5.370798
    155          1           0       -5.796532    3.120205   -3.349244
    156          1           0       -8.343380    6.294520   -4.770582
    157          1           0       -8.645559    6.345531   -2.918541
    158          1           0       -9.545981    5.339476   -4.080149
 ---------------------------------------------------------------------

 SCF Done:  E(RCAM-B3LYP) =  -4069.81191025     A.U. after   19 cycles

 Excitation energies and oscillator strengths:

 Excited State   1:      Singlet-A      1.6736 eV  740.82 nm  f=0.3077  <S**2>=0.000
     310 -> 316        0.16053
     311 -> 313        0.25894
     312 -> 314        0.63539
 This state for optimization and/or second-order correction.
 Total Energy, E(TD-HF/TD-DFT) =  -4069.75040599
 Copying the excited state density for this state as the 1-particle RhoCI density.

 Excited State   2:      Singlet-A      1.6800 eV  737.98 nm  f=0.4244  <S**2>=0.000
     309 -> 315        0.16242
     311 -> 313        0.63490
     312 -> 314       -0.25872

 Excited State   3:      Singlet-A      2.1854 eV  567.33 nm  f=0.0955  <S**2>=0.000
     310 -> 314        0.63714
     312 -> 316       -0.27025

 Excited State   4:      Singlet-A      2.1923 eV  565.55 nm  f=0.1028  <S**2>=0.000
     309 -> 313        0.63516
     311 -> 315       -0.27558

 Excited State   5:      Singlet-A      2.6503 eV  467.81 nm  f=0.0000  <S**2>=0.000
     312 -> 313        0.70710

 The electronic state is 1-A.
 Alpha  occ. eigenvalues --  -46.87855 -46.87557 -19.26320 -19.26319 -19.19119
 Alpha  occ. eigenvalues --  -19.19061 -19.18899 -19.18621 -19.18220 -19.17983
 Alpha  occ. eigenvalues --  -14.42503 -14.42398 -14.41510 -14.41247 -14.39463
 Alpha  occ. eigenvalues --  -14.39251 -14.38643 -14.38500 -10.39120 -10.39047
 Alpha  occ. eigenvalues --  -10.35533 -10.35299 -10.34439 -10.34161 -10.31742
 Alpha  occ. eigenvalues --  -10.31707 -10.31452 -10.31217 -10.30960 -10.30932
 Alpha  occ. eigenvalues --  -10.30623 -10.30569 -10.30297 -10.30272 -10.30266
 Alpha  occ. eigenvalues --  -10.30020 -10.29984 -10.29777 -10.29690 -10.29331
 Alpha  occ. eigenvalues --  -10.29315 -10.29307 -10.28779 -10.28649 -10.28614
 Alpha  occ. eigenvalues --  -10.28537 -10.28421 -10.28311 -10.28148 -10.28060
 Alpha  occ. eigenvalues --  -10.27907 -10.27849 -10.27778 -10.27646 -10.27576
 Alpha  occ. eigenvalues --  -10.27570 -10.27532 -10.27527 -10.27457 -10.27390
 Alpha  occ. eigenvalues --  -10.27380 -10.27372 -10.27363 -10.27217 -10.27204
 Alpha  occ. eigenvalues --  -10.26988 -10.26722 -10.26636 -10.26504 -10.26334
 Alpha  occ. eigenvalues --  -10.26270 -10.26263 -10.26079 -10.25999 -10.25940
 Alpha  occ. eigenvalues --  -10.25892 -10.25821 -10.25762 -10.25510 -10.25181
 Alpha  occ. eigenvalues --  -10.24888 -10.24851 -10.24788 -10.24782 -10.24611
 Alpha  occ. eigenvalues --  -10.24580  -3.16598  -3.16307  -1.91479  -1.91189
 Alpha  occ. eigenvalues --   -1.91066  -1.90908  -1.90778  -1.90615  -1.16669
 Alpha  occ. eigenvalues --   -1.16611  -1.08677  -1.08595  -1.07303  -1.06905
 Alpha  occ. eigenvalues --   -1.06872  -1.06683  -1.04633  -1.04399  -1.03820
 Alpha  occ. eigenvalues --   -1.03560  -1.03293  -1.02931  -1.02470  -1.02007
 Alpha  occ. eigenvalues --   -0.92025  -0.91899  -0.89588  -0.89378  -0.89221
 Alpha  occ. eigenvalues --   -0.89071  -0.88356  -0.88088  -0.87923  -0.87723
 Alpha  occ. eigenvalues --   -0.87701  -0.87585  -0.87338  -0.87028  -0.85023
 Alpha  occ. eigenvalues --   -0.84917  -0.84009  -0.83747  -0.83044  -0.82832
 Alpha  occ. eigenvalues --   -0.82698  -0.82569  -0.81631  -0.81528  -0.80649
 Alpha  occ. eigenvalues --   -0.80362  -0.78856  -0.78542  -0.77273  -0.77053
 Alpha  occ. eigenvalues --   -0.76977  -0.76809  -0.75966  -0.75761  -0.74962
 Alpha  occ. eigenvalues --   -0.74670  -0.72830  -0.72599  -0.71726  -0.71473
 Alpha  occ. eigenvalues --   -0.69984  -0.69625  -0.68918  -0.68744  -0.67699
 Alpha  occ. eigenvalues --   -0.67508  -0.67260  -0.67125  -0.65327  -0.65193
 Alpha  occ. eigenvalues --   -0.64907  -0.64676  -0.64673  -0.64569  -0.64335
 Alpha  occ. eigenvalues --   -0.64084  -0.62344  -0.62209  -0.60508  -0.60237
 Alpha  occ. eigenvalues --   -0.59846  -0.59713  -0.59044  -0.58892  -0.58560
 Alpha  occ. eigenvalues --   -0.58331  -0.57633  -0.57488  -0.57371  -0.57131
 Alpha  occ. eigenvalues --   -0.56364  -0.56116  -0.56018  -0.55825  -0.55581
 Alpha  occ. eigenvalues --   -0.55402  -0.55375  -0.55140  -0.54581  -0.54389
 Alpha  occ. eigenvalues --   -0.53930  -0.53834  -0.53361  -0.53272  -0.53132
 Alpha  occ. eigenvalues --   -0.53061  -0.52968  -0.52824  -0.52814  -0.52584
 Alpha  occ. eigenvalues --   -0.52517  -0.52278  -0.51967  -0.51796  -0.51659
 Alpha  occ. eigenvalues --   -0.51584  -0.51249  -0.51115  -0.50642  -0.50382
 Alpha  occ. eigenvalues --   -0.50101  -0.49981  -0.49889  -0.49737  -0.49566
 Alpha  occ. eigenvalues --   -0.49403  -0.49268  -0.49135  -0.49123  -0.49024
 Alpha  occ. eigenvalues --   -0.48640  -0.48531  -0.48507  -0.48481  -0.48262
 Alpha  occ. eigenvalues --   -0.48239  -0.47749  -0.47504  -0.47354  -0.47015
 Alpha  occ. eigenvalues --   -0.46853  -0.46608  -0.46593  -0.46470  -0.46417
 Alpha  occ. eigenvalues --   -0.46219  -0.46170  -0.45978  -0.45867  -0.45743
 Alpha  occ. eigenvalues --   -0.45268  -0.45072  -0.44629  -0.44567  -0.44434
 Alpha  occ. eigenvalues --   -0.44389  -0.44209  -0.44130  -0.44073  -0.44044
 Alpha  occ. eigenvalues --   -0.43975  -0.43860  -0.43543  -0.43482  -0.43437
 Alpha  occ. eigenvalues --   -0.43292  -0.43081  -0.42871  -0.42807  -0.42758
 Alpha  occ. eigenvalues --   -0.42711  -0.42434  -0.42070  -0.41863  -0.41758
 Alpha  occ. eigenvalues --   -0.41580  -0.41573  -0.41371  -0.41192  -0.40920
 Alpha  occ. eigenvalues --   -0.40893  -0.40888  -0.40637  -0.40634  -0.40610
 Alpha  occ. eigenvalues --   -0.40370  -0.40261  -0.40160  -0.39522  -0.39295
 Alpha  occ. eigenvalues --   -0.38533  -0.38222  -0.37780  -0.37581  -0.37383
 Alpha  occ. eigenvalues --   -0.37304  -0.37153  -0.37112  -0.36761  -0.36711
 Alpha  occ. eigenvalues --   -0.36245  -0.36112  -0.34342  -0.34154  -0.33815
 Alpha  occ. eigenvalues --   -0.33809  -0.33243  -0.33075  -0.31429  -0.31179
 Alpha  occ. eigenvalues --   -0.31093  -0.30873  -0.30079  -0.29889  -0.29511
 Alpha  occ. eigenvalues --   -0.29378  -0.29233  -0.29119  -0.24137  -0.23934
 Alpha  occ. eigenvalues --   -0.21185  -0.21015
 Alpha virt. eigenvalues --   -0.08833  -0.08694  -0.01811  -0.01577  -0.00122
 Alpha virt. eigenvalues --    0.00061   0.02143   0.02295   0.03054   0.03321
 Alpha virt. eigenvalues --    0.04674   0.04824   0.05057   0.05213   0.06154

 Mulliken charges:
               1
     1  Mg   0.838589
     2  C   -0.002931
     3  C   -0.093823
     4  C   -0.046143
     5  C   -0.063996
     6  N   -0.256799
     7  C   -0.052336
     8  C   -0.014030
     9  C   -0.087036
    10  C    0.046315
    11  C    0.104764
    12  C    0.053376
    13  C   -0.072052
    14  H    0.036576
    15  N   -0.433119
    16  C    0.168302
    17  C   -0.177055
    18  C   -0.004235
    19  C    0.148629
    20  C    0.110104
    21  C    0.011899
    22  O   -0.250124
    23  C    0.062608
    24  N   -0.341110
    25  C    0.041261
    26  C   -0.028101
    27  C   -0.023976
    28  C    0.074785
    29  C    0.076176
    30  C    0.035187
    31  C   -0.004478
    32  N   -0.310479
    33  C    0.080421
    34  C   -0.169657
    35  C    0.008410
    36  C    0.082986
    37  C    0.127310
    38  C    0.046126
    39  O   -0.188298
    40  C   -0.005323
    41  C    0.212947
    42  O   -0.257243
    43  O   -0.304727
    44  C    0.157711
    45  H   -0.017370
    46  H   -0.017155
    47  H   -0.041450
    48  H    0.001051
    49  H   -0.003710
    50  H    0.025495
    51  H    0.016366
    52  H    0.016889
    53  H    0.011392
    54  H    0.044018
    55  H    0.017868
    56  H    0.018322
    57  H    0.006228
    58  H    0.026846
    59  H    0.039581
    60  H    0.037710
    61  H    0.035102
    62  H    0.031310
    63  H    0.016037
    64  H    0.009596
    65  H    0.022970
    66  H    0.012701
    67  H    0.004874
    68  H    0.006141
    69  H    0.005006
    70  H    0.008052
    71  H    0.018176
    72  H    0.029135
    73  H    0.047654
    74  H    0.009147
    75  H    0.046123
    76  H    0.035312
    77  H    0.043011
    78  H    0.046668
    79  H    0.053493
    80  Mg   0.838079
    81  C   -0.017025
    82  C   -0.087924
    83  C   -0.045331
    84  C   -0.064151
    85  N   -0.254580
    86  C   -0.049866
    87  C   -0.015095
    88  C   -0.090484
    89  C    0.045786
    90  C    0.114341
    91  C    0.062566
    92  C   -0.077715
    93  H    0.034512
    94  N   -0.423530
    95  C    0.163035
    96  C   -0.174607
    97  C   -0.007757
    98  C    0.152241
    99  C    0.099370
   100  C    0.015533
   101  O   -0.252998
   102  C    0.061228
   103  N   -0.349988
   104  C    0.037928
   105  C   -0.020162
   106  C   -0.034858
   107  C    0.088920
   108  C    0.073114
   109  C    0.034672
   110  C   -0.007632
   111  N   -0.324065
   112  C    0.078401
   113  C   -0.163037
   114  C    0.001988
   115  C    0.096279
   116  C    0.131531
   117  C    0.042173
   118  O   -0.188623
   119  C    0.000977
   120  C    0.211172
   121  O   -0.250996
   122  O   -0.305795
   123  C    0.152114
   124  H   -0.019619
   125  H   -0.015306
   126  H   -0.040227
   127  H   -0.001152
   128  H   -0.004464
   129  H    0.021964
   130  H    0.015036
   131  H    0.016370
   132  H    0.013968
   133  H    0.037561
   134  H    0.020510
   135  H    0.019634
   136  H    0.008752
   137  H    0.026126
   138  H    0.039583
   139  H    0.038171
   140  H    0.036286
   141  H    0.033748
   142  H    0.014146
   143  H    0.013614
   144  H    0.025116
   145  H    0.012231
   146  H    0.007556
   147  H    0.006567
   148  H    0.003580
   149  H    0.010877
   150  H    0.017614
   151  H    0.029818
   152  H    0.045548
   153  H    0.008692
   154  H    0.046992
   155  H    0.034489
   156  H    0.043460
   157  H    0.049465
   158  H    0.053553
 Sum of Mulliken charges =  -0.00000

 Dipole moment (field-independent basis, Debye):
    X=              3.4859    Y=              5.2639    Z=              1.4060  Tot=              6.4682
 Quadrupole moment (field-independent basis, Debye-Ang):
   XX=           -519.9998   YY=           -509.6430   ZZ=           -488.9323
   XY=             11.6530   XZ=            -45.4984   YZ=              8.8476

 Normal termination of Gaussian 16 at Sat Sep  4 09:22:02 2021.
