 Gaussian 16, Revision A.03,
 Gaussian 16:  ES64L-G16RevA.03 25-Dec-2016

 -----------------------------------
 #p cam-b3lyp/Def2SVP td=(nstates=5)
 -----------------------------------

 --------------------------------
 TDDFT excited states in gaussian
 --------------------------------
 Symbolic Z-matrix:
 Charge =  0 Multiplicity = 1

                         Standard orientation:
 ---------------------------------------------------------------------
 Center     Atomic      Atomic             Coordinates (Angstroms)
 Number     Number       Type             X           Y           Z
 ---------------------------------------------------------------------
      1         12           0        7.798440   -0.960010    0.067778
      2          6           0        8.402860    2.442155   -0.866119
      3          6           0        8.820695   -0.122082    3.213559
      4          6           0        7.707427   -4.043877    0.801334
      5          6           0        7.922743   -1.758005   -3.322416
      6          7           0        8.497231    0.950853    0.940098
      7          6           0        8.625894    2.195163    0.490309
      8          6           0        8.946907    3.227532    1.612155
      9          6           0        9.599290    2.241858    2.682129
     10          6           0        8.905733    0.952475    2.279147
     11          6           0       11.104364    2.064794    2.509210
     12          6           0        7.657011    3.912847    2.176283
     13          6           0        7.900571    5.157335    3.034933
     14          1           0        6.949100    6.255830    2.961716
     15          7           0        7.731672   -1.857134    1.826630
     16          6           0        8.178381   -1.361899    3.005817
     17          6           0        7.903734   -2.405793    4.016526
     18          6           0        7.434659   -3.622907    3.297710
     19          6           0        7.633359   -3.226798    1.926946
     20          6           0        8.044470   -2.181009    5.490777
     21          6           0        6.903086   -4.938682    3.771313
     22          8           0        6.772548   -5.941057    2.988512
     23          6           0        6.618646   -5.051660    5.213316
     24          7           0        8.030503   -2.696948   -1.066606
     25          6           0        7.885461   -3.906413   -0.514209
     26          6           0        7.814581   -4.979379   -1.559990
     27          6           0        7.697236   -4.223486   -2.961636
     28          6           0        7.809709   -2.764976   -2.453336
     29          6           0        9.001287   -5.951972   -1.602465
     30          6           0        6.495752   -4.599233   -3.864781
     31          6           0        5.206300   -4.143098   -3.219527
     32          7           0        7.928787    0.142516   -1.797293
     33          6           0        7.989355   -0.394142   -3.091512
     34          6           0        8.179363    0.735964   -4.019318
     35          6           0        8.233083    1.857194   -3.193605
     36          6           0        8.112266    1.450443   -1.834102
     37          6           0        8.336713    0.638606   -5.430062
     38          6           0        8.389143    3.301778   -3.141855
     39          8           0        8.437655    4.199465   -3.984054
     40          6           0        8.627504    3.726006   -1.625595
     41          6           0        7.716966    4.886496   -1.329806
     42          8           0        6.477916    4.738925   -1.311245
     43          8           0        8.446045    5.921501   -0.885114
     44          6           0        7.599906    7.096509   -0.545176
     45          1           0        9.341733   -0.033329    4.168851
     46          1           0        7.568820   -5.108435    1.001188
     47          1           0        7.885751   -1.921685   -4.400976
     48          1           0        9.664714    3.997681    1.329230
     49          1           0        9.330614    2.513677    3.702741
     50          1           0       11.459908    2.545156    1.597749
     51          1           0       11.267030    0.987925    2.460359
     52          1           0       11.639143    2.408734    3.394926
     53          1           0        7.199630    3.260704    2.920309
     54          1           0        6.967518    4.161328    1.368704
     55          1           0        8.920085    5.526843    2.921073
     56          1           0        7.833059    4.867353    4.083529
     57          1           0        8.563902   -1.248015    5.705854
     58          1           0        8.710668   -2.956200    5.868887
     59          1           0        7.086197   -2.235658    6.007554
     60          1           0        7.531926   -4.858518    5.776490
     61          1           0        6.162447   -6.030914    5.354006
     62          1           0        5.912913   -4.270114    5.496291
     63          1           0        6.935529   -5.606640   -1.417738
     64          1           0        8.568906   -4.395727   -3.593457
     65          1           0        8.714602   -6.997755   -1.489083
     66          1           0        9.708776   -5.654363   -0.829045
     67          1           0        9.617607   -5.882211   -2.498400
     68          1           0        6.431685   -5.680690   -3.980069
     69          1           0        6.553549   -4.162266   -4.861761
     70          1           0        4.978701   -4.955089   -2.529816
     71          1           0        4.422208   -4.036930   -3.969952
     72          1           0        5.356013   -3.242192   -2.624178
     73          1           0        7.723588    1.430177   -5.860715
     74          1           0        8.032076   -0.341737   -5.795747
     75          1           0        9.409583    0.805007   -5.525538
     76          1           0        9.678930    3.997865   -1.537734
     77          1           0        7.977307    7.941304   -1.121478
     78          1           0        7.609097    7.180939    0.541650
     79          1           0        6.564902    7.060216   -0.886920
     80         12           0       -7.967927    0.948109    0.256185
     81          6           0       -8.195795   -2.593155   -0.279164
     82          6           0       -7.090160    1.237194   -3.027185
     83          6           0       -7.321683    4.006372    0.800993
     84          6           0       -7.737521    0.277227    3.668302
     85          7           0       -7.710852   -0.556350   -1.344679
     86          6           0       -7.884645   -1.865444   -1.446670
     87          6           0       -7.794423   -2.415301   -2.895487
     88          6           0       -6.895985   -1.250326   -3.539320
     89          6           0       -7.276998   -0.103439   -2.605421
     90          6           0       -5.402701   -1.498748   -3.406114
     91          6           0       -9.199124   -2.506853   -3.588629
     92          6           0       -9.224912   -3.319970   -4.884754
     93          1           0      -10.414161   -4.112096   -5.185927
     94          7           0       -7.783469    2.466753   -1.008042
     95          6           0       -7.441921    2.403055   -2.312097
     96          6           0       -7.425211    3.793595   -2.791989
     97          6           0       -7.623676    4.695088   -1.624674
     98          6           0       -7.561829    3.737602   -0.538647
     99          6           0       -7.313566    4.151461   -4.245573
    100          6           0       -7.821890    6.175809   -1.504716
    101          8           0       -7.735902    6.777429   -0.376233
    102          6           0       -8.026979    6.913590   -2.759747
    103          7           0       -7.372973    1.981863    1.959043
    104          6           0       -7.211880    3.316577    1.936535
    105          6           0       -7.052538    3.870408    3.332342
    106          6           0       -7.383362    2.654671    4.317286
    107          6           0       -7.599204    1.535841    3.274681
    108          6           0       -5.673781    4.437582    3.669608
    109          6           0       -8.486597    2.893542    5.384282
    110          6           0       -9.831435    3.046342    4.710897
    111          7           0       -8.148414   -0.799757    1.513345
    112          6           0       -7.989815   -0.862274    2.915133
    113          6           0       -8.092548   -2.284346    3.301909
    114          6           0       -8.282326   -2.958242    2.086042
    115          6           0       -8.276648   -2.024340    1.014914
    116          6           0       -7.961998   -2.798742    4.622695
    117          6           0       -8.475542   -4.248406    1.464071
    118          8           0       -8.651424   -5.394069    1.876692
    119          6           0       -8.301667   -4.083057   -0.107169
    120          6           0       -9.449861   -4.785957   -0.778064
    121          8           0      -10.614230   -4.373262   -0.634765
    122          8           0       -8.964960   -5.691310   -1.647314
    123          6           0      -10.065869   -6.406824   -2.345780
    124          1           0       -6.588114    1.416680   -3.978303
    125          1           0       -7.202736    5.061935    1.056166
    126          1           0       -7.774137   -0.003908    4.722957
    127          1           0       -7.289079   -3.369099   -2.988730
    128          1           0       -7.204522   -1.030969   -4.558160
    129          1           0       -5.191059   -2.362862   -2.794027
    130          1           0       -4.995087   -0.604801   -2.952521
    131          1           0       -4.942830   -1.571064   -4.395873
    132          1           0       -9.469622   -1.518329   -3.981562
    133          1           0       -9.935609   -2.888005   -2.908226
    134          1           0       -8.318507   -3.924672   -5.010090
    135          1           0       -9.203848   -2.627164   -5.729504
    136          1           0       -7.014707    3.286793   -4.850907
    137          1           0       -6.475968    4.851117   -4.339202
    138          1           0       -8.216871    4.627749   -4.632678
    139          1           0       -7.172678    6.757489   -3.414165
    140          1           0       -8.238980    7.942485   -2.462590
    141          1           0       -8.898416    6.493391   -3.274187
    142          1           0       -7.758570    4.671535    3.513460
    143          1           0       -6.506399    2.363352    4.913853
    144          1           0       -5.705131    5.492350    4.002093
    145          1           0       -5.039072    4.331735    2.799853
    146          1           0       -5.120462    3.886166    4.427878
    147          1           0       -8.299696    3.827631    5.919723
    148          1           0       -8.548452    2.104086    6.125850
    149          1           0       -9.840083    4.099092    4.413029
    150          1           0      -10.636621    2.827107    5.409204
    151          1           0       -9.884202    2.444514    3.796197
    152          1           0       -8.745741   -3.533701    4.749459
    153          1           0       -8.033620   -2.007742    5.366312
    154          1           0       -6.955191   -3.221464    4.568738
    155          1           0       -7.339677   -4.519836   -0.378076
    156          1           0       -9.907519   -7.476851   -2.179503
    157          1           0      -10.037217   -6.050062   -3.392514
    158          1           0      -11.070560   -6.279259   -1.960067
 ---------------------------------------------------------------------

 SCF Done:  E(RCAM-B3LYP) =  -4069.81182175     A.U. after   19 cycles

 Excitation energies and oscillator strengths:

 Excited State   1:      Singlet-A      1.6706 eV  742.17 nm  f=0.0532  <S**2>=0.000
     309 -> 315        0.10234
     310 -> 316        0.13903
     311 -> 313        0.40535
     312 -> 314        0.55382
 This state for optimization and/or second-order correction.
 Total Energy, E(TD-HF/TD-DFT) =  -4069.75042978
 Copying the excited state density for this state as the 1-particle RhoCI density.

 Excited State   2:      Singlet-A      1.6850 eV  735.83 nm  f=0.7016  <S**2>=0.000
     309 -> 315        0.14271
     310 -> 316       -0.10397
     311 -> 313        0.55306
     312 -> 314       -0.40488

 Excited State   3:      Singlet-A      2.1860 eV  567.16 nm  f=0.0646  <S**2>=0.000
     309 -> 313        0.12887
     310 -> 314        0.62961
     312 -> 316       -0.26734

 Excited State   4:      Singlet-A      2.1931 eV  565.34 nm  f=0.1297  <S**2>=0.000
     309 -> 313        0.62773
     310 -> 314       -0.12790
     311 -> 315       -0.27286

 Excited State   5:      Singlet-A      2.7649 eV  448.42 nm  f=0.0000  <S**2>=0.000
     312 -> 313        0.70710

 The electronic state is 1-A.
 Alpha  occ. eigenvalues --  -46.87836 -46.87589 -19.26323 -19.26295 -19.19105
 Alpha  occ. eigenvalues --  -19.19063 -19.18837 -19.18636 -19.18213 -19.17986
 Alpha  occ. eigenvalues --  -14.42488 -14.42424 -14.41489 -14.41290 -14.39440
 Alpha  occ. eigenvalues --  -14.39278 -14.38628 -14.38530 -10.39122 -10.39033
 Alpha  occ. eigenvalues --  -10.35469 -10.35312 -10.34433 -10.34164 -10.31714
 Alpha  occ. eigenvalues --  -10.31707 -10.31445 -10.31236 -10.30946 -10.30943
 Alpha  occ. eigenvalues --  -10.30612 -10.30548 -10.30329 -10.30291 -10.30245
 Alpha  occ. eigenvalues --  -10.30071 -10.29963 -10.29831 -10.29669 -10.29362
 Alpha  occ. eigenvalues --  -10.29330 -10.29291 -10.28781 -10.28644 -10.28592
 Alpha  occ. eigenvalues --  -10.28564 -10.28402 -10.28331 -10.28149 -10.28058
 Alpha  occ. eigenvalues --  -10.27930 -10.27833 -10.27765 -10.27620 -10.27591
 Alpha  occ. eigenvalues --  -10.27547 -10.27506 -10.27491 -10.27466 -10.27442
 Alpha  occ. eigenvalues --  -10.27412 -10.27392 -10.27369 -10.27321 -10.27199
 Alpha  occ. eigenvalues --  -10.26985 -10.26735 -10.26625 -10.26418 -10.26327
 Alpha  occ. eigenvalues --  -10.26264 -10.26243 -10.26100 -10.26062 -10.25925
 Alpha  occ. eigenvalues --  -10.25901 -10.25869 -10.25802 -10.25470 -10.25340
 Alpha  occ. eigenvalues --  -10.24874 -10.24826 -10.24803 -10.24756 -10.24693
 Alpha  occ. eigenvalues --  -10.24620  -3.16579  -3.16339  -1.91461  -1.91221
 Alpha  occ. eigenvalues --   -1.91047  -1.90889  -1.90809  -1.90646  -1.16673
 Alpha  occ. eigenvalues --   -1.16588  -1.08672  -1.08595  -1.07237  -1.06889
 Alpha  occ. eigenvalues --   -1.06888  -1.06685  -1.04619  -1.04421  -1.03800
 Alpha  occ. eigenvalues --   -1.03592  -1.03273  -1.02969  -1.02451  -1.02041
 Alpha  occ. eigenvalues --   -0.92012  -0.91918  -0.89565  -0.89434  -0.89221
 Alpha  occ. eigenvalues --   -0.89074  -0.88330  -0.88162  -0.87916  -0.87730
 Alpha  occ. eigenvalues --   -0.87710  -0.87612  -0.87304  -0.87039  -0.85016
 Alpha  occ. eigenvalues --   -0.84926  -0.83983  -0.83821  -0.82995  -0.82856
 Alpha  occ. eigenvalues --   -0.82681  -0.82578  -0.81625  -0.81534  -0.80633
 Alpha  occ. eigenvalues --   -0.80375  -0.78832  -0.78560  -0.77258  -0.77074
 Alpha  occ. eigenvalues --   -0.76971  -0.76834  -0.75960  -0.75766  -0.74938
 Alpha  occ. eigenvalues --   -0.74741  -0.72815  -0.72631  -0.71710  -0.71510
 Alpha  occ. eigenvalues --   -0.69957  -0.69706  -0.68907  -0.68755  -0.67678
 Alpha  occ. eigenvalues --   -0.67533  -0.67250  -0.67127  -0.65323  -0.65201
 Alpha  occ. eigenvalues --   -0.64894  -0.64703  -0.64659  -0.64587  -0.64313
 Alpha  occ. eigenvalues --   -0.64144  -0.62338  -0.62218  -0.60476  -0.60266
 Alpha  occ. eigenvalues --   -0.59840  -0.59722  -0.59027  -0.58925  -0.58543
 Alpha  occ. eigenvalues --   -0.58358  -0.57626  -0.57491  -0.57348  -0.57171
 Alpha  occ. eigenvalues --   -0.56348  -0.56135  -0.56015  -0.55823  -0.55553
 Alpha  occ. eigenvalues --   -0.55383  -0.55380  -0.55190  -0.54567  -0.54432
 Alpha  occ. eigenvalues --   -0.53928  -0.53837  -0.53336  -0.53254  -0.53160
 Alpha  occ. eigenvalues --   -0.53070  -0.52954  -0.52835  -0.52783  -0.52585
 Alpha  occ. eigenvalues --   -0.52491  -0.52353  -0.51965  -0.51828  -0.51648
 Alpha  occ. eigenvalues --   -0.51584  -0.51238  -0.51138  -0.50596  -0.50392
 Alpha  occ. eigenvalues --   -0.50074  -0.49948  -0.49904  -0.49802  -0.49546
 Alpha  occ. eigenvalues --   -0.49412  -0.49252  -0.49131  -0.49129  -0.49033
 Alpha  occ. eigenvalues --   -0.48632  -0.48500  -0.48490  -0.48475  -0.48316
 Alpha  occ. eigenvalues --   -0.48262  -0.47730  -0.47523  -0.47331  -0.47045
 Alpha  occ. eigenvalues --   -0.46838  -0.46643  -0.46588  -0.46480  -0.46399
 Alpha  occ. eigenvalues --   -0.46205  -0.46202  -0.46024  -0.45865  -0.45762
 Alpha  occ. eigenvalues --   -0.45242  -0.45145  -0.44619  -0.44539  -0.44450
 Alpha  occ. eigenvalues --   -0.44404  -0.44185  -0.44122  -0.44056  -0.44054
 Alpha  occ. eigenvalues --   -0.44014  -0.43865  -0.43536  -0.43494  -0.43422
 Alpha  occ. eigenvalues --   -0.43316  -0.43067  -0.42869  -0.42837  -0.42740
 Alpha  occ. eigenvalues --   -0.42701  -0.42492  -0.42054  -0.41905  -0.41743
 Alpha  occ. eigenvalues --   -0.41602  -0.41568  -0.41390  -0.41177  -0.40917
 Alpha  occ. eigenvalues --   -0.40906  -0.40848  -0.40650  -0.40626  -0.40614
 Alpha  occ. eigenvalues --   -0.40433  -0.40263  -0.40155  -0.39493  -0.39375
 Alpha  occ. eigenvalues --   -0.38510  -0.38290  -0.37781  -0.37586  -0.37362
 Alpha  occ. eigenvalues --   -0.37299  -0.37203  -0.37127  -0.36755  -0.36715
 Alpha  occ. eigenvalues --   -0.36233  -0.36155  -0.34326  -0.34184  -0.33813
 Alpha  occ. eigenvalues --   -0.33803  -0.33226  -0.33105  -0.31367  -0.31196
 Alpha  occ. eigenvalues --   -0.31073  -0.30902  -0.30073  -0.29892  -0.29485
 Alpha  occ. eigenvalues --   -0.29363  -0.29252  -0.29142  -0.24120  -0.23965
 Alpha  occ. eigenvalues --   -0.21167  -0.21045
 Alpha virt. eigenvalues --   -0.08812  -0.08719  -0.01787  -0.01613  -0.00089
 Alpha virt. eigenvalues --    0.00049   0.02158   0.02273   0.03075   0.03292
 Alpha virt. eigenvalues --    0.04682   0.04803   0.05057   0.05224   0.06148

 Mulliken charges:
               1
     1  Mg   0.838668
     2  C   -0.002954
     3  C   -0.094063
     4  C   -0.045850
     5  C   -0.064052
     6  N   -0.256813
     7  C   -0.052489
     8  C   -0.014006
     9  C   -0.087018
    10  C    0.046370
    11  C    0.104787
    12  C    0.053449
    13  C   -0.071889
    14  H    0.036257
    15  N   -0.433192
    16  C    0.168472
    17  C   -0.177048
    18  C   -0.003872
    19  C    0.148741
    20  C    0.110150
    21  C    0.012399
    22  O   -0.249410
    23  C    0.062411
    24  N   -0.341127
    25  C    0.041269
    26  C   -0.028262
    27  C   -0.023899
    28  C    0.074726
    29  C    0.076131
    30  C    0.035179
    31  C   -0.004465
    32  N   -0.310404
    33  C    0.080249
    34  C   -0.170015
    35  C    0.008306
    36  C    0.082844
    37  C    0.127392
    38  C    0.045945
    39  O   -0.188649
    40  C   -0.005258
    41  C    0.212850
    42  O   -0.257263
    43  O   -0.304752
    44  C    0.157699
    45  H   -0.017453
    46  H   -0.016677
    47  H   -0.041721
    48  H    0.000967
    49  H   -0.003938
    50  H    0.025487
    51  H    0.016468
    52  H    0.016778
    53  H    0.011203
    54  H    0.044049
    55  H    0.017912
    56  H    0.018017
    57  H    0.005927
    58  H    0.027002
    59  H    0.039717
    60  H    0.037377
    61  H    0.036018
    62  H    0.031562
    63  H    0.016638
    64  H    0.009467
    65  H    0.023369
    66  H    0.012648
    67  H    0.004751
    68  H    0.006440
    69  H    0.004464
    70  H    0.009047
    71  H    0.017484
    72  H    0.028982
    73  H    0.047201
    74  H    0.008877
    75  H    0.046071
    76  H    0.035210
    77  H    0.042957
    78  H    0.046535
    79  H    0.053623
    80  Mg   0.837951
    81  C   -0.016808
    82  C   -0.087555
    83  C   -0.045349
    84  C   -0.064973
    85  N   -0.254560
    86  C   -0.049833
    87  C   -0.015135
    88  C   -0.090504
    89  C    0.045715
    90  C    0.114246
    91  C    0.062544
    92  C   -0.077840
    93  H    0.034651
    94  N   -0.423591
    95  C    0.162942
    96  C   -0.174148
    97  C   -0.007686
    98  C    0.152249
    99  C    0.099145
   100  C    0.015739
   101  O   -0.253233
   102  C    0.061164
   103  N   -0.350033
   104  C    0.037634
   105  C   -0.019860
   106  C   -0.034708
   107  C    0.088867
   108  C    0.073634
   109  C    0.034823
   110  C   -0.007630
   111  N   -0.324040
   112  C    0.078367
   113  C   -0.163338
   114  C    0.002203
   115  C    0.096104
   116  C    0.131511
   117  C    0.042271
   118  O   -0.188150
   119  C    0.000947
   120  C    0.211227
   121  O   -0.251111
   122  O   -0.305594
   123  C    0.152086
   124  H   -0.019124
   125  H   -0.015553
   126  H   -0.040824
   127  H   -0.000685
   128  H   -0.004315
   129  H    0.022425
   130  H    0.015010
   131  H    0.016499
   132  H    0.013902
   133  H    0.037554
   134  H    0.020792
   135  H    0.019648
   136  H    0.008983
   137  H    0.026912
   138  H    0.039706
   139  H    0.038738
   140  H    0.036323
   141  H    0.033739
   142  H    0.014261
   143  H    0.012131
   144  H    0.024941
   145  H    0.012276
   146  H    0.005356
   147  H    0.005997
   148  H    0.003393
   149  H    0.010906
   150  H    0.017714
   151  H    0.030249
   152  H    0.045804
   153  H    0.008229
   154  H    0.046799
   155  H    0.035103
   156  H    0.043796
   157  H    0.049504
   158  H    0.053473
 Sum of Mulliken charges =  -0.00000

 Dipole moment (field-independent basis, Debye):
    X=              4.2043    Y=              0.9851    Z=              0.5516  Tot=              4.3533
 Quadrupole moment (field-independent basis, Debye-Ang):
   XX=           -520.9830   YY=           -546.2287   ZZ=           -451.7088
   XY=            -22.7518   XZ=             67.0747   YZ=             42.2064

 Normal termination of Gaussian 16 at Sat Sep  4 12:51:50 2021.
