 Gaussian 16, Revision A.03,
 Gaussian 16:  ES64L-G16RevA.03 25-Dec-2016

 -----------------------------------
 #p cam-b3lyp/Def2SVP td=(nstates=5)
 -----------------------------------

 --------------------------------
 TDDFT excited states in gaussian
 --------------------------------
 Symbolic Z-matrix:
 Charge =  0 Multiplicity = 1

                         Standard orientation:
 ---------------------------------------------------------------------
 Center     Atomic      Atomic             Coordinates (Angstroms)
 Number     Number       Type             X           Y           Z
 ---------------------------------------------------------------------
      1         12           0        3.786464    0.531963    1.568953
      2          6           0        4.830995   -2.383378   -0.226029
      3          6           0        5.632999    2.368759   -0.635486
      4          6           0        3.250233    3.065916    3.398750
      5          6           0        2.987034   -1.572849    4.229092
      6          7           0        5.028766   -0.048223   -0.169067
      7          6           0        5.298402   -1.193321   -0.788114
      8          6           0        6.061344   -1.003720   -2.133233
      9          6           0        6.727235    0.416360   -1.846944
     10          6           0        5.718705    0.961190   -0.850976
     11          6           0        8.089220    0.324563   -1.166451
     12          6           0        5.093403   -0.945199   -3.362622
     13          6           0        5.765716   -1.089530   -4.731021
     14          1           0        5.060146   -1.800647   -5.786403
     15          7           0        3.938129    2.459675    1.164262
     16          6           0        4.726945    3.029723    0.221872
     17          6           0        4.483528    4.485458    0.312783
     18          6           0        3.632821    4.730627    1.510398
     19          6           0        3.594240    3.414432    2.094794
     20          6           0        4.992686    5.469377   -0.695389
     21          6           0        2.969892    5.958768    2.049220
     22          8           0        2.470575    6.001751    3.225403
     23          6           0        2.998967    7.153390    1.186042
     24          7           0        3.408182    0.755429    3.609688
     25          6           0        3.152831    1.958017    4.136530
     26          6           0        2.637491    1.840885    5.540326
     27          6           0        2.362060    0.286684    5.781883
     28          6           0        2.873437   -0.257270    4.425094
     29          6           0        3.566636    2.371582    6.640808
     30          6           0        0.938733   -0.111277    6.246840
     31          6           0       -0.056222    0.155681    5.139638
     32          7           0        3.712544   -1.611379    1.903116
     33          6           0        3.373700   -2.267651    3.095243
     34          6           0        3.572087   -3.710538    2.865493
     35          6           0        4.031376   -3.792609    1.552419
     36          6           0        4.139624   -2.481999    1.005722
     37          6           0        3.386904   -4.741016    3.828954
     38          6           0        4.479324   -4.680905    0.492170
     39          8           0        4.515635   -5.903087    0.342352
     40          6           0        5.130719   -3.796434   -0.660749
     41          6           0        4.559177   -4.265199   -1.971057
     42          8           0        3.351828   -4.097888   -2.238792
     43          8           0        5.560318   -4.617518   -2.792111
     44          6           0        5.062992   -5.064646   -4.120605
     45          1           0        6.361703    3.022128   -1.119264
     46          1           0        2.950906    3.904697    4.030643
     47          1           0        2.677628   -2.296316    4.985608
     48          1           0        6.836077   -1.746331   -2.324911
     49          1           0        6.753553    1.040890   -2.739688
     50          1           0        8.319904   -0.699535   -0.873315
     51          1           0        8.019183    0.965563   -0.287413
     52          1           0        8.866233    0.761128   -1.794495
     53          1           0        4.693879    0.064449   -3.457772
     54          1           0        4.304171   -1.691867   -3.268143
     55          1           0        6.786436   -1.461132   -4.636398
     56          1           0        5.878431   -0.095004   -5.162778
     57          1           0        5.722089    5.015451   -1.365066
     58          1           0        5.558703    6.222525   -0.147573
     59          1           0        4.183284    5.947290   -1.247475
     60          1           0        4.034855    7.419970    0.975281
     61          1           0        2.400361    7.907418    1.695906
     62          1           0        2.544545    6.906530    0.226089
     63          1           0        1.705849    2.391911    5.662140
     64          1           0        3.017924   -0.130987    6.546126
     65          1           0        3.110404    3.138938    7.266686
     66          1           0        4.474059    2.743084    6.165559
     67          1           0        3.967888    1.608697    7.307457
     68          1           0        0.636584    0.492343    7.101999
     69          1           0        0.857558   -1.159319    6.535404
     70          1           0       -0.280492    1.214490    5.263965
     71          1           0       -0.951230   -0.451826    5.277871
     72          1           0        0.399217    0.032280    4.156870
     73          1           0        2.863016   -5.547542    3.316093
     74          1           0        2.819280   -4.382973    4.687565
     75          1           0        4.422228   -4.971574    4.079559
     76          1           0        6.207627   -3.952172   -0.604738
     77          1           0        5.462108   -6.064269   -4.292929
     78          1           0        5.331954   -4.282989   -4.831293
     79          1           0        3.991772   -5.255088   -4.195159
     80         12           0       -3.519659    0.379571   -1.521533
     81          6           0       -5.758610   -1.689795    0.371583
     82          6           0       -5.766269    2.915291   -1.124661
     83          6           0       -1.793179    2.094779   -3.557407
     84          6           0       -2.048837   -2.545137   -2.716720
     85          7           0       -5.473257    0.477468   -0.488999
     86          6           0       -6.194100   -0.353921    0.248239
     87          6           0       -7.410027    0.302670    0.955341
     88          6           0       -7.619535    1.549500   -0.034814
     89          6           0       -6.192369    1.685957   -0.561374
     90          6           0       -8.533936    1.239137   -1.208217
     91          6           0       -7.070047    0.776722    2.411940
     92          6           0       -8.283817    1.143933    3.268480
     93          1           0       -8.244173    0.843461    4.696988
     94          7           0       -3.480480    2.338077   -1.839813
     95          6           0       -4.472377    3.221359   -1.600586
     96          6           0       -3.954619    4.531912   -2.023105
     97          6           0       -2.637359    4.325000   -2.683959
     98          6           0       -2.594599    2.877513   -2.739120
     99          6           0       -4.658492    5.822017   -1.717141
    100          6           0       -1.595165    5.273186   -3.194800
    101          8           0       -0.636181    4.877800   -3.947694
    102          6           0       -1.782764    6.693502   -2.864617
    103          7           0       -2.263623   -0.142653   -3.093789
    104          6           0       -1.593350    0.796365   -3.784373
    105          6           0       -0.547769    0.173600   -4.678422
    106          6           0       -0.490955   -1.369616   -4.262686
    107          6           0       -1.626365   -1.391654   -3.215894
    108          6           0       -0.804550    0.286493   -6.180987
    109          6           0        0.896810   -1.939378   -3.859996
    110          6           0        1.356169   -1.311426   -2.563828
    111          7           0       -3.698304   -1.733232   -1.106553
    112          6           0       -3.006642   -2.788518   -1.740627
    113          6           0       -3.548198   -4.051648   -1.198735
    114          6           0       -4.541205   -3.640757   -0.296742
    115          6           0       -4.627294   -2.222287   -0.292758
    116          6           0       -3.150217   -5.361894   -1.587288
    117          6           0       -5.543457   -4.084778    0.645078
    118          8           0       -5.867941   -5.172364    1.120051
    119          6           0       -6.463110   -2.845625    1.026072
    120          6           0       -6.610724   -2.819550    2.522749
    121          8           0       -5.626361   -2.603018    3.251272
    122          8           0       -7.918913   -2.837574    2.836880
    123          6           0       -8.116802   -2.801790    4.310433
    124          1           0       -6.502163    3.709371   -1.254165
    125          1           0       -1.098993    2.641479   -4.199825
    126          1           0       -1.575811   -3.497355   -2.966111
    127          1           0       -8.305112   -0.307249    0.979733
    128          1           0       -7.911537    2.442777    0.511207
    129          1           0       -8.798595    0.192907   -1.247017
    130          1           0       -7.981700    1.522812   -2.094563
    131          1           0       -9.414617    1.887232   -1.181538
    132          1           0       -6.571855    1.753556    2.363464
    133          1           0       -6.476092    0.043665    2.922305
    134          1           0       -9.222699    0.788335    2.826888
    135          1           0       -8.386525    2.231778    3.276543
    136          1           0       -5.683429    5.647850   -1.367043
    137          1           0       -4.782545    6.351869   -2.667789
    138          1           0       -4.094960    6.456574   -1.029797
    139          1           0       -2.740359    7.031278   -3.253685
    140          1           0       -0.891642    7.200803   -3.239346
    141          1           0       -1.832105    6.795769   -1.774792
    142          1           0        0.423930    0.619953   -4.506136
    143          1           0       -0.809913   -2.025426   -5.086098
    144          1           0        0.019630    0.781311   -6.728666
    145          1           0       -1.733939    0.820137   -6.329283
    146          1           0       -0.996373   -0.657134   -6.688887
    147          1           0        1.645431   -1.680407   -4.612759
    148          1           0        0.906347   -3.019076   -3.754451
    149          1           0        1.798444   -0.365656   -2.890951
    150          1           0        2.093594   -1.942924   -2.072446
    151          1           0        0.502971   -1.070756   -1.919029
    152          1           0       -3.057911   -5.941595   -0.678482
    153          1           0       -2.216388   -5.344679   -2.145352
    154          1           0       -3.998801   -5.645172   -2.215725
    155          1           0       -7.421001   -2.981501    0.522524
    156          1           0       -8.730896   -3.669207    4.571488
    157          1           0       -8.536772   -1.802485    4.531280
    158          1           0       -7.247179   -2.962068    4.936950
 ---------------------------------------------------------------------

 SCF Done:  E(RCAM-B3LYP) =  -4069.81641493     A.U. after   19 cycles

 Excitation energies and oscillator strengths:

 Excited State   1:      Singlet-A      1.6336 eV  758.97 nm  f=0.0035  <S**2>=0.000
     309 -> 315       -0.11190
     310 -> 316        0.11881
     311 -> 313       -0.46961
     312 -> 314        0.50334
 This state for optimization and/or second-order correction.
 Total Energy, E(TD-HF/TD-DFT) =  -4069.75638204
 Copying the excited state density for this state as the 1-particle RhoCI density.

 Excited State   2:      Singlet-A      1.7079 eV  725.94 nm  f=0.6807  <S**2>=0.000
     309 -> 315        0.13388
     310 -> 316        0.12363
     311 -> 313        0.50013
     312 -> 314        0.46649

 Excited State   3:      Singlet-A      2.1782 eV  569.21 nm  f=0.0402  <S**2>=0.000
     309 -> 313        0.26622
     310 -> 314        0.58816
     311 -> 315       -0.10838
     312 -> 316       -0.24264

 Excited State   4:      Singlet-A      2.1970 eV  564.33 nm  f=0.1395  <S**2>=0.000
     309 -> 313        0.58280
     310 -> 314       -0.26133
     311 -> 315       -0.25652
     312 -> 316        0.11815

 Excited State   5:      Singlet-A      2.3119 eV  536.30 nm  f=0.0000  <S**2>=0.000
     312 -> 313        0.70678

 The electronic state is 1-A.
 Alpha  occ. eigenvalues --  -46.87684 -46.87308 -19.26779 -19.26176 -19.19761
 Alpha  occ. eigenvalues --  -19.18974 -19.18728 -19.18540 -19.18195 -19.17772
 Alpha  occ. eigenvalues --  -14.42355 -14.42159 -14.41341 -14.40960 -14.39293
 Alpha  occ. eigenvalues --  -14.39017 -14.38487 -14.38242 -10.39665 -10.38893
 Alpha  occ. eigenvalues --  -10.35360 -10.35227 -10.34438 -10.33948 -10.32079
 Alpha  occ. eigenvalues --  -10.31622 -10.31345 -10.30959 -10.30879 -10.30741
 Alpha  occ. eigenvalues --  -10.30479 -10.30410 -10.30054 -10.30033 -10.29986
 Alpha  occ. eigenvalues --  -10.29815 -10.29706 -10.29531 -10.29473 -10.29120
 Alpha  occ. eigenvalues --  -10.29094 -10.29051 -10.28799 -10.28710 -10.28489
 Alpha  occ. eigenvalues --  -10.28475 -10.28307 -10.28104 -10.28101 -10.27876
 Alpha  occ. eigenvalues --  -10.27690 -10.27672 -10.27619 -10.27477 -10.27384
 Alpha  occ. eigenvalues --  -10.27332 -10.27327 -10.27294 -10.27289 -10.27270
 Alpha  occ. eigenvalues --  -10.27213 -10.27156 -10.27142 -10.26864 -10.26850
 Alpha  occ. eigenvalues --  -10.26819 -10.26790 -10.26487 -10.26355 -10.26315
 Alpha  occ. eigenvalues --  -10.26210 -10.25877 -10.25866 -10.25784 -10.25663
 Alpha  occ. eigenvalues --  -10.25453 -10.25360 -10.25304 -10.25055 -10.24929
 Alpha  occ. eigenvalues --  -10.24756 -10.24696 -10.24548 -10.24337 -10.24266
 Alpha  occ. eigenvalues --  -10.23167  -3.16424  -3.16059  -1.91305  -1.90941
 Alpha  occ. eigenvalues --   -1.90892  -1.90735  -1.90529  -1.90366  -1.17149
 Alpha  occ. eigenvalues --   -1.16465  -1.08699  -1.08385  -1.07284  -1.07131
 Alpha  occ. eigenvalues --   -1.06806  -1.06755  -1.04505  -1.04168  -1.03656
 Alpha  occ. eigenvalues --   -1.03306  -1.03128  -1.02655  -1.02309  -1.01746
 Alpha  occ. eigenvalues --   -0.91978  -0.91664  -0.89374  -0.89190  -0.88990
 Alpha  occ. eigenvalues --   -0.88833  -0.88132  -0.87756  -0.87626  -0.87590
 Alpha  occ. eigenvalues --   -0.87416  -0.87324  -0.87146  -0.86852  -0.84986
 Alpha  occ. eigenvalues --   -0.84712  -0.83802  -0.83268  -0.82841  -0.82657
 Alpha  occ. eigenvalues --   -0.82639  -0.82272  -0.81694  -0.81285  -0.80587
 Alpha  occ. eigenvalues --   -0.80130  -0.78676  -0.78312  -0.77135  -0.76959
 Alpha  occ. eigenvalues --   -0.76811  -0.76468  -0.75934  -0.75528  -0.74793
 Alpha  occ. eigenvalues --   -0.74333  -0.72669  -0.72307  -0.71619  -0.71244
 Alpha  occ. eigenvalues --   -0.69683  -0.68998  -0.68842  -0.68494  -0.67598
 Alpha  occ. eigenvalues --   -0.67279  -0.67227  -0.66963  -0.65309  -0.64984
 Alpha  occ. eigenvalues --   -0.64879  -0.64585  -0.64414  -0.64299  -0.64130
 Alpha  occ. eigenvalues --   -0.63595  -0.62457  -0.61947  -0.60320  -0.60014
 Alpha  occ. eigenvalues --   -0.59775  -0.59502  -0.58941  -0.58624  -0.58487
 Alpha  occ. eigenvalues --   -0.58063  -0.57784  -0.57279  -0.57223  -0.56829
 Alpha  occ. eigenvalues --   -0.56383  -0.56097  -0.55865  -0.55627  -0.55522
 Alpha  occ. eigenvalues --   -0.55356  -0.55203  -0.54839  -0.54608  -0.53985
 Alpha  occ. eigenvalues --   -0.53930  -0.53647  -0.53253  -0.53213  -0.53070
 Alpha  occ. eigenvalues --   -0.52935  -0.52777  -0.52681  -0.52579  -0.52464
 Alpha  occ. eigenvalues --   -0.52193  -0.51827  -0.51634  -0.51526  -0.51407
 Alpha  occ. eigenvalues --   -0.51368  -0.51164  -0.50749  -0.50417  -0.50234
 Alpha  occ. eigenvalues --   -0.49957  -0.49791  -0.49704  -0.49602  -0.49300
 Alpha  occ. eigenvalues --   -0.49236  -0.49139  -0.49024  -0.48934  -0.48776
 Alpha  occ. eigenvalues --   -0.48605  -0.48433  -0.48334  -0.48284  -0.48122
 Alpha  occ. eigenvalues --   -0.47921  -0.47650  -0.47258  -0.47222  -0.46810
 Alpha  occ. eigenvalues --   -0.46718  -0.46580  -0.46353  -0.46308  -0.46201
 Alpha  occ. eigenvalues --   -0.46093  -0.45882  -0.45849  -0.45686  -0.45483
 Alpha  occ. eigenvalues --   -0.45082  -0.44730  -0.44602  -0.44434  -0.44261
 Alpha  occ. eigenvalues --   -0.44139  -0.44110  -0.44020  -0.43950  -0.43871
 Alpha  occ. eigenvalues --   -0.43692  -0.43650  -0.43508  -0.43326  -0.43186
 Alpha  occ. eigenvalues --   -0.43077  -0.42959  -0.42849  -0.42639  -0.42552
 Alpha  occ. eigenvalues --   -0.42483  -0.42036  -0.41899  -0.41664  -0.41512
 Alpha  occ. eigenvalues --   -0.41386  -0.41310  -0.41087  -0.40927  -0.40828
 Alpha  occ. eigenvalues --   -0.40759  -0.40669  -0.40532  -0.40418  -0.40355
 Alpha  occ. eigenvalues --   -0.40282  -0.40013  -0.39773  -0.39194  -0.38557
 Alpha  occ. eigenvalues --   -0.38338  -0.37824  -0.37776  -0.37392  -0.37259
 Alpha  occ. eigenvalues --   -0.37200  -0.37061  -0.36910  -0.36718  -0.36504
 Alpha  occ. eigenvalues --   -0.36189  -0.35750  -0.34368  -0.34156  -0.33896
 Alpha  occ. eigenvalues --   -0.33641  -0.33113  -0.32810  -0.31262  -0.31099
 Alpha  occ. eigenvalues --   -0.30975  -0.30625  -0.30072  -0.29673  -0.29340
 Alpha  occ. eigenvalues --   -0.29224  -0.29022  -0.28873  -0.24008  -0.23675
 Alpha  occ. eigenvalues --   -0.21020  -0.20753
 Alpha virt. eigenvalues --   -0.08679  -0.08454  -0.01651  -0.01327   0.00017
 Alpha virt. eigenvalues --    0.00225   0.02240   0.02506   0.02555   0.04421
 Alpha virt. eigenvalues --    0.04520   0.04724   0.05058   0.05374   0.05833

 Mulliken charges:
               1
     1  Mg   0.838087
     2  C   -0.004126
     3  C   -0.092794
     4  C   -0.045474
     5  C   -0.062044
     6  N   -0.256575
     7  C   -0.053658
     8  C   -0.011179
     9  C   -0.087663
    10  C    0.047457
    11  C    0.104819
    12  C    0.040507
    13  C   -0.070964
    14  H    0.033656
    15  N   -0.433320
    16  C    0.170107
    17  C   -0.175054
    18  C   -0.003391
    19  C    0.148940
    20  C    0.109693
    21  C    0.012273
    22  O   -0.250287
    23  C    0.061517
    24  N   -0.340793
    25  C    0.041466
    26  C   -0.028000
    27  C   -0.024167
    28  C    0.074766
    29  C    0.076323
    30  C    0.034821
    31  C   -0.005522
    32  N   -0.310694
    33  C    0.081278
    34  C   -0.168463
    35  C    0.006139
    36  C    0.082510
    37  C    0.127161
    38  C    0.048111
    39  O   -0.188613
    40  C   -0.010273
    41  C    0.222421
    42  O   -0.256641
    43  O   -0.302834
    44  C    0.156287
    45  H   -0.017737
    46  H   -0.016958
    47  H   -0.040035
    48  H   -0.000381
    49  H   -0.003430
    50  H    0.025189
    51  H    0.017101
    52  H    0.016760
    53  H    0.017710
    54  H    0.044911
    55  H    0.018279
    56  H    0.019738
    57  H    0.006097
    58  H    0.025799
    59  H    0.044122
    60  H    0.037601
    61  H    0.033968
    62  H    0.033643
    63  H    0.016652
    64  H    0.009141
    65  H    0.022837
    66  H    0.012055
    67  H    0.004809
    68  H    0.005584
    69  H    0.006282
    70  H    0.006592
    71  H    0.025869
    72  H    0.028085
    73  H    0.048284
    74  H    0.011077
    75  H    0.045358
    76  H    0.035447
    77  H    0.045201
    78  H    0.048087
    79  H    0.052520
    80  Mg   0.836646
    81  C   -0.018089
    82  C   -0.088398
    83  C   -0.046506
    84  C   -0.061820
    85  N   -0.254692
    86  C   -0.049797
    87  C   -0.015107
    88  C   -0.090360
    89  C    0.045372
    90  C    0.114635
    91  C    0.062615
    92  C   -0.077349
    93  H    0.033533
    94  N   -0.423221
    95  C    0.162539
    96  C   -0.175197
    97  C   -0.008687
    98  C    0.151822
    99  C    0.099410
   100  C    0.014002
   101  O   -0.256143
   102  C    0.061352
   103  N   -0.350772
   104  C    0.038321
   105  C   -0.018566
   106  C   -0.035683
   107  C    0.090316
   108  C    0.075098
   109  C    0.039035
   110  C   -0.032339
   111  N   -0.324560
   112  C    0.079222
   113  C   -0.160608
   114  C    0.001432
   115  C    0.096852
   116  C    0.130526
   117  C    0.042307
   118  O   -0.188390
   119  C    0.000950
   120  C    0.211324
   121  O   -0.252019
   122  O   -0.305486
   123  C    0.152397
   124  H   -0.020897
   125  H   -0.017520
   126  H   -0.034669
   127  H   -0.001222
   128  H   -0.004975
   129  H    0.022014
   130  H    0.014370
   131  H    0.015388
   132  H    0.014249
   133  H    0.037018
   134  H    0.020584
   135  H    0.019509
   136  H    0.008378
   137  H    0.024663
   138  H    0.039191
   139  H    0.038762
   140  H    0.032236
   141  H    0.034198
   142  H    0.012650
   143  H    0.009732
   144  H    0.021632
   145  H    0.010101
   146  H    0.004770
   147  H   -0.003302
   148  H    0.014684
   149  H    0.000039
   150  H    0.055067
   151  H    0.019042
   152  H    0.046682
   153  H    0.014490
   154  H    0.045287
   155  H    0.034390
   156  H    0.043559
   157  H    0.049298
   158  H    0.052615
 Sum of Mulliken charges =  -0.00000

 Dipole moment (field-independent basis, Debye):
    X=              0.9837    Y=              6.4217    Z=             -2.0804  Tot=              6.8215
 Quadrupole moment (field-independent basis, Debye-Ang):
   XX=           -454.6484   YY=           -538.0489   ZZ=           -485.9484
   XY=            -18.5642   XZ=            -18.9060   YZ=              5.3255

 Normal termination of Gaussian 16 at Wed Sep  8 17:00:11 2021.
