 Gaussian 16, Revision A.03,
 Gaussian 16:  ES64L-G16RevA.03 25-Dec-2016

 -----------------------------------
 #p cam-b3lyp/Def2SVP td=(nstates=5)
 -----------------------------------

 --------------------------------
 TDDFT excited states in gaussian
 --------------------------------
 Symbolic Z-matrix:
 Charge =  0 Multiplicity = 1

                         Standard orientation:
 ---------------------------------------------------------------------
 Center     Atomic      Atomic             Coordinates (Angstroms)
 Number     Number       Type             X           Y           Z
 ---------------------------------------------------------------------
      1         12           0       -3.945246   -0.367184    0.152227
      2          6           0       -3.766378    3.192010    0.487427
      3          6           0       -4.835610    0.133318   -3.103509
      4          6           0       -4.550232   -3.473815   -0.046417
      5          6           0       -4.158491   -0.535812    3.626669
      6          7           0       -4.229399    1.475792   -1.040812
      7          6           0       -4.071210    2.775417   -0.810330
      8          6           0       -4.185504    3.649144   -2.095209
      9          6           0       -5.063994    2.665524   -2.991169
     10          6           0       -4.660224    1.341826   -2.366094
     11          6           0       -6.566598    2.855772   -2.810919
     12          6           0       -2.790963    3.928741   -2.750045
     13          6           0       -2.776791    5.033544   -3.810500
     14          1           0       -1.606217    5.891929   -3.911891
     15          7           0       -4.119723   -1.539984   -1.427947
     16          6           0       -4.475732   -1.164345   -2.679921
     17          6           0       -4.461322   -2.397969   -3.495179
     18          6           0       -4.252950   -3.549646   -2.574140
     19          6           0       -4.326442   -2.894539   -1.293198
     20          6           0       -4.585373   -2.399209   -4.987948
     21          6           0       -4.034390   -5.010628   -2.810567
     22          8           0       -4.107597   -5.870692   -1.867432
     23          6           0       -3.816962   -5.424555   -4.208577
     24          7           0       -4.524513   -1.794046    1.561535
     25          6           0       -4.661598   -3.081070    1.224251
     26          6           0       -4.802036   -3.951555    2.437705
     27          6           0       -4.487661   -3.015117    3.692298
     28          6           0       -4.290161   -1.674543    2.942548
     29          6           0       -6.171635   -4.617717    2.628595
     30          6           0       -3.376018   -3.488546    4.662109
     31          6           0       -2.034118   -3.442715    3.966190
     32          7           0       -3.785173    1.034851    1.801383
     33          6           0       -3.930219    0.750428    3.166938
     34          6           0       -3.845208    2.034301    3.887016
     35          6           0       -3.672075    2.984433    2.882467
     36          6           0       -3.676606    2.338139    1.613382
     37          6           0       -3.985533    2.212895    5.291596
     38          6           0       -3.508980    4.398083    2.584388
     39          8           0       -3.338982    5.413082    3.261419
     40          6           0       -3.685572    4.602891    1.015090
     41          6           0       -2.550358    5.467728    0.539009
     42          8           0       -1.374601    5.050096    0.562356
     43          8           0       -3.045542    6.547805   -0.084504
     44          6           0       -1.971039    7.433333   -0.607415
     45          1           0       -5.347727    0.172448   -4.066913
     46          1           0       -4.653219   -4.560839   -0.060958
     47          1           0       -4.131912   -0.519643    4.717763
     48          1           0       -4.709949    4.594755   -1.956642
     49          1           0       -4.767313    2.695736   -4.039400
     50          1           0       -6.785838    3.549028   -1.998976
     51          1           0       -6.960060    1.865101   -2.582332
     52          1           0       -7.034492    3.154833   -3.749223
     53          1           0       -2.505946    3.076206   -3.366496
     54          1           0       -2.044246    4.151695   -1.987136
     55          1           0       -3.687450    5.632145   -3.774633
     56          1           0       -2.800125    4.563522   -4.793726
     57          1           0       -4.892813   -1.424635   -5.365082
     58          1           0       -5.414298   -3.061070   -5.238011
     59          1           0       -3.675297   -2.749636   -5.475078
     60          1           0       -4.679202   -5.132778   -4.808541
     61          1           0       -3.590033   -6.489557   -4.175027
     62          1           0       -2.964243   -4.876588   -4.610511
     63          1           0       -4.085563   -4.771681    2.415689
     64          1           0       -5.360176   -2.882387    4.332435
     65          1           0       -6.123961   -5.704734    2.698067
     66          1           0       -6.815397   -4.306254    1.806493
     67          1           0       -6.735594   -4.264199    3.491378
     68          1           0       -3.547709   -4.522345    4.959982
     69          1           0       -3.312259   -2.888123    5.569675
     70          1           0       -2.006928   -4.389119    3.427291
     71          1           0       -1.227714   -3.386945    4.698182
     72          1           0       -1.997267   -2.644367    3.224726
     73          1           0       -3.203501    2.911022    5.589948
     74          1           0       -3.894295    1.265457    5.822294
     75          1           0       -4.993194    2.624993    5.343078
     76          1           0       -4.653687    5.080730    0.868309
     77          1           0       -2.139926    8.425135   -0.187844
     78          1           0       -1.988070    7.333506   -1.692841
     79          1           0       -0.961110    7.228192   -0.250623
     80         12           0        3.954347   -1.199178   -0.007932
     81          6           0        4.127648    2.383754    0.099738
     82          6           0        3.039649   -0.907536   -3.280984
     83          6           0        3.356307   -4.315224   -0.015353
     84          6           0        3.757483   -1.155610    3.471305
     85          7           0        3.657017    0.564125   -1.309694
     86          6           0        3.811815    1.872800   -1.176435
     87          6           0        3.696107    2.672427   -2.501856
     88          6           0        2.805521    1.628195   -3.335721
     89          6           0        3.213617    0.338304   -2.626980
     90          6           0        1.310798    1.825443   -3.145341
     91          6           0        5.090688    2.908764   -3.181053
     92          6           0        5.089315    3.941721   -4.310105
     93          1           0        6.263905    4.793425   -4.475693
     94          7           0        3.774647   -2.468780   -1.522653
     95          6           0        3.416031   -2.177256   -2.790595
     96          6           0        3.412120   -3.459096   -3.512428
     97          6           0        3.637283   -4.552375   -2.528173
     98          6           0        3.576068   -3.806550   -1.287168
     99          6           0        3.287186   -3.551794   -5.005491
    100          6           0        3.856956   -6.027300   -2.678281
    101          8           0        3.793196   -6.823055   -1.675508
    102          6           0        4.056322   -6.524428   -4.047437
    103          7           0        3.394691   -2.531044    1.487161
    104          6           0        3.251373   -3.842354    1.226698
    105          6           0        3.116956   -4.640243    2.501732
    106          6           0        3.443599   -3.616159    3.685842
    107          6           0        3.631279   -2.325069    2.859245
    108          6           0        1.750308   -5.280102    2.745114
    109          6           0        4.563186   -4.025595    4.681610
    110          6           0        5.901453   -4.034086    3.978509
    111          7           0        4.126873    0.297101    1.541081
    112          6           0        3.984945    0.104395    2.932774
    113          6           0        4.073285    1.435308    3.567824
    114          6           0        4.238748    2.319462    2.491074
    115          6           0        4.232323    1.593119    1.269648
    116          6           0        3.952283    1.702069    4.960782
    117          6           0        4.406747    3.703192    2.109270
    118          8           0        4.572281    4.758719    2.719339
    119          6           0        4.215530    3.820017    0.535687
    120          6           0        5.345662    4.649713   -0.009214
    121          8           0        6.517197    4.236129    0.046099
    122          8           0        4.837769    5.688801   -0.696757
    123          6           0        5.920114    6.535130   -1.266048
    124          1           0        2.528245   -0.921075   -4.243877
    125          1           0        3.254821   -5.401168    0.047082
    126          1           0        3.803458   -1.067907    4.558896
    127          1           0        3.176807    3.619498   -2.417166
    128          1           0        3.104259    1.600190   -4.380382
    129          1           0        1.095160    2.562199   -2.385842
    130          1           0        0.920982    0.858353   -2.855823
    131          1           0        0.837676    2.067169   -4.101402
    132          1           0        5.369577    2.011193   -3.747915
    133          1           0        5.830389    3.172917   -2.450507
    134          1           0        4.173330    4.544942   -4.315781
    135          1           0        5.067065    3.411646   -5.265371
    136          1           0        2.969139   -2.597225   -5.442567
    137          1           0        2.458012   -4.236186   -5.215105
    138          1           0        4.191937   -3.936743   -5.480774
    139          1           0        3.191891   -6.266640   -4.654690
    140          1           0        4.285900   -7.586548   -3.942164
    141          1           0        4.915515   -6.005204   -4.486531
    142          1           0        3.835947   -5.449808    2.528931
    143          1           0        2.570279   -3.450363    4.333667
    144          1           0        1.800040   -6.376819    2.882262
    145          1           0        1.103423   -5.029661    1.914839
    146          1           0        1.199087   -4.882481    3.595558
    147          1           0        4.395604   -5.043448    5.042251
    148          1           0        4.623617   -3.381281    5.552356
    149          1           0        5.920597   -5.015969    3.496202
    150          1           0        6.712263   -3.931337    4.696897
    151          1           0        5.934670   -3.277034    3.186404
    152          1           0        4.727548    2.414402    5.209862
    153          1           0        4.043854    0.791596    5.549371
    154          1           0        2.939257    2.111923    4.993601
    155          1           0        3.244426    4.283352    0.357182
    156          1           0        5.749410    7.555312   -0.908603
    157          1           0        5.883224    6.371733   -2.359529
    158          1           0        6.931167    6.355986   -0.919458
 ---------------------------------------------------------------------

 SCF Done:  E(RCAM-B3LYP) =  -4069.81138361     A.U. after   19 cycles

 Excitation energies and oscillator strengths:

 Excited State   1:      Singlet-A      1.6380 eV  756.94 nm  f=0.0019  <S**2>=0.000
     309 -> 315       -0.11393
     310 -> 316        0.11834
     311 -> 313       -0.47486
     312 -> 314        0.49821
 This state for optimization and/or second-order correction.
 Total Energy, E(TD-HF/TD-DFT) =  -4069.75118985
 Copying the excited state density for this state as the 1-particle RhoCI density.

 Excited State   2:      Singlet-A      1.7118 eV  724.30 nm  f=0.6760  <S**2>=0.000
     309 -> 315        0.13338
     310 -> 316        0.12595
     311 -> 313        0.49482
     312 -> 314        0.47169

 Excited State   3:      Singlet-A      2.1776 eV  569.36 nm  f=0.0089  <S**2>=0.000
     309 -> 313       -0.34896
     310 -> 314        0.54405
     311 -> 315        0.14260
     312 -> 316       -0.22403

 Excited State   4:      Singlet-A      2.1977 eV  564.15 nm  f=0.1587  <S**2>=0.000
     309 -> 313        0.53769
     310 -> 314        0.34271
     311 -> 315       -0.23889
     312 -> 316       -0.15398

 Excited State   5:      Singlet-A      2.2327 eV  555.30 nm  f=0.0000  <S**2>=0.000
     312 -> 313        0.70708

 The electronic state is 1-A.
 Alpha  occ. eigenvalues --  -46.87917 -46.87382 -19.26368 -19.26047 -19.19120
 Alpha  occ. eigenvalues --  -19.18900 -19.18847 -19.18471 -19.18236 -19.17654
 Alpha  occ. eigenvalues --  -14.42585 -14.42224 -14.41572 -14.41084 -14.39521
 Alpha  occ. eigenvalues --  -14.39076 -14.38699 -14.38297 -10.39180 -10.38761
 Alpha  occ. eigenvalues --  -10.35536 -10.35156 -10.34460 -10.33821 -10.31738
 Alpha  occ. eigenvalues --  -10.31542 -10.31527 -10.31054 -10.31013 -10.30750
 Alpha  occ. eigenvalues --  -10.30693 -10.30613 -10.30334 -10.30096 -10.30056
 Alpha  occ. eigenvalues --  -10.30028 -10.29910 -10.29743 -10.29600 -10.29374
 Alpha  occ. eigenvalues --  -10.29181 -10.29109 -10.28948 -10.28843 -10.28517
 Alpha  occ. eigenvalues --  -10.28481 -10.28448 -10.28295 -10.28098 -10.27900
 Alpha  occ. eigenvalues --  -10.27891 -10.27864 -10.27701 -10.27698 -10.27660
 Alpha  occ. eigenvalues --  -10.27635 -10.27558 -10.27527 -10.27416 -10.27331
 Alpha  occ. eigenvalues --  -10.27321 -10.27253 -10.27188 -10.27179 -10.27146
 Alpha  occ. eigenvalues --  -10.27000 -10.26592 -10.26527 -10.26490 -10.26383
 Alpha  occ. eigenvalues --  -10.26359 -10.26247 -10.26145 -10.25976 -10.25921
 Alpha  occ. eigenvalues --  -10.25740 -10.25673 -10.25524 -10.25501 -10.25158
 Alpha  occ. eigenvalues --  -10.24935 -10.24917 -10.24898 -10.24566 -10.24548
 Alpha  occ. eigenvalues --  -10.24399  -3.16659  -3.16132  -1.91540  -1.91128
 Alpha  occ. eigenvalues --   -1.91015  -1.90969  -1.90603  -1.90440  -1.16719
 Alpha  occ. eigenvalues --   -1.16337  -1.08690  -1.08248  -1.07296  -1.06737
 Alpha  occ. eigenvalues --   -1.06725  -1.06630  -1.04716  -1.04212  -1.03884
 Alpha  occ. eigenvalues --   -1.03383  -1.03349  -1.02758  -1.02529  -1.01822
 Alpha  occ. eigenvalues --   -0.92086  -0.91653  -0.89653  -0.89374  -0.89242
 Alpha  occ. eigenvalues --   -0.88896  -0.88415  -0.87979  -0.87974  -0.87821
 Alpha  occ. eigenvalues --   -0.87478  -0.87421  -0.87401  -0.86890  -0.85157
 Alpha  occ. eigenvalues --   -0.84750  -0.84070  -0.83637  -0.83092  -0.82799
 Alpha  occ. eigenvalues --   -0.82722  -0.82404  -0.81693  -0.81309  -0.80716
 Alpha  occ. eigenvalues --   -0.80167  -0.78922  -0.78378  -0.77370  -0.77086
 Alpha  occ. eigenvalues --   -0.76899  -0.76644  -0.76054  -0.75561  -0.75018
 Alpha  occ. eigenvalues --   -0.74547  -0.72896  -0.72416  -0.71796  -0.71303
 Alpha  occ. eigenvalues --   -0.70061  -0.69546  -0.69033  -0.68577  -0.67760
 Alpha  occ. eigenvalues --   -0.67408  -0.67324  -0.66976  -0.65452  -0.65003
 Alpha  occ. eigenvalues --   -0.64974  -0.64754  -0.64498  -0.64401  -0.64385
 Alpha  occ. eigenvalues --   -0.63956  -0.62397  -0.61994  -0.60564  -0.60094
 Alpha  occ. eigenvalues --   -0.59963  -0.59526  -0.59109  -0.58711  -0.58621
 Alpha  occ. eigenvalues --   -0.58135  -0.57684  -0.57424  -0.57192  -0.56955
 Alpha  occ. eigenvalues --   -0.56428  -0.56094  -0.55932  -0.55640  -0.55615
 Alpha  occ. eigenvalues --   -0.55458  -0.55195  -0.54985  -0.54641  -0.54229
 Alpha  occ. eigenvalues --   -0.54079  -0.53666  -0.53421  -0.53369  -0.53042
 Alpha  occ. eigenvalues --   -0.52973  -0.52905  -0.52882  -0.52641  -0.52594
 Alpha  occ. eigenvalues --   -0.52456  -0.52194  -0.52008  -0.51786  -0.51545
 Alpha  occ. eigenvalues --   -0.51418  -0.51316  -0.50910  -0.50718  -0.50287
 Alpha  occ. eigenvalues --   -0.50183  -0.50055  -0.49743  -0.49661  -0.49630
 Alpha  occ. eigenvalues --   -0.49336  -0.49244  -0.49239  -0.48917  -0.48809
 Alpha  occ. eigenvalues --   -0.48709  -0.48572  -0.48543  -0.48277  -0.48129
 Alpha  occ. eigenvalues --   -0.48073  -0.47833  -0.47419  -0.47352  -0.46942
 Alpha  occ. eigenvalues --   -0.46884  -0.46729  -0.46483  -0.46458  -0.46318
 Alpha  occ. eigenvalues --   -0.46271  -0.46019  -0.45926  -0.45799  -0.45519
 Alpha  occ. eigenvalues --   -0.45319  -0.44951  -0.44686  -0.44661  -0.44284
 Alpha  occ. eigenvalues --   -0.44253  -0.44244  -0.44208  -0.44127  -0.43861
 Alpha  occ. eigenvalues --   -0.43838  -0.43659  -0.43602  -0.43532  -0.43283
 Alpha  occ. eigenvalues --   -0.43150  -0.43116  -0.42824  -0.42765  -0.42649
 Alpha  occ. eigenvalues --   -0.42597  -0.42323  -0.42161  -0.41823  -0.41727
 Alpha  occ. eigenvalues --   -0.41706  -0.41350  -0.41269  -0.41218  -0.41042
 Alpha  occ. eigenvalues --   -0.40954  -0.40726  -0.40701  -0.40498  -0.40470
 Alpha  occ. eigenvalues --   -0.40457  -0.40246  -0.40011  -0.39598  -0.39222
 Alpha  occ. eigenvalues --   -0.38612  -0.38118  -0.37961  -0.37454  -0.37438
 Alpha  occ. eigenvalues --   -0.37423  -0.37016  -0.36937  -0.36817  -0.36488
 Alpha  occ. eigenvalues --   -0.36316  -0.35956  -0.34406  -0.33968  -0.33872
 Alpha  occ. eigenvalues --   -0.33548  -0.33305  -0.32892  -0.31431  -0.31157
 Alpha  occ. eigenvalues --   -0.31030  -0.30683  -0.30096  -0.29559  -0.29552
 Alpha  occ. eigenvalues --   -0.29423  -0.29055  -0.28880  -0.24202  -0.23740
 Alpha  occ. eigenvalues --   -0.21251  -0.20837
 Alpha virt. eigenvalues --   -0.08890  -0.08500  -0.01870  -0.01412  -0.00171
 Alpha virt. eigenvalues --    0.00239   0.02100   0.02392   0.02642   0.03607
 Alpha virt. eigenvalues --    0.04548   0.04931   0.05035   0.05497   0.05899

 Mulliken charges:
               1
     1  Mg   0.838519
     2  C   -0.003340
     3  C   -0.095466
     4  C   -0.045024
     5  C   -0.063851
     6  N   -0.256602
     7  C   -0.053278
     8  C   -0.013556
     9  C   -0.086846
    10  C    0.046009
    11  C    0.104799
    12  C    0.050816
    13  C   -0.071268
    14  H    0.034570
    15  N   -0.433318
    16  C    0.168303
    17  C   -0.178103
    18  C   -0.003686
    19  C    0.149241
    20  C    0.110410
    21  C    0.013399
    22  O   -0.248253
    23  C    0.062571
    24  N   -0.340909
    25  C    0.040983
    26  C   -0.028662
    27  C   -0.024253
    28  C    0.074677
    29  C    0.076006
    30  C    0.036949
    31  C   -0.012486
    32  N   -0.310748
    33  C    0.080843
    34  C   -0.169560
    35  C    0.008956
    36  C    0.083416
    37  C    0.127138
    38  C    0.046910
    39  O   -0.186625
    40  C   -0.005935
    41  C    0.213905
    42  O   -0.257966
    43  O   -0.304875
    44  C    0.156616
    45  H   -0.017928
    46  H   -0.016217
    47  H   -0.041484
    48  H    0.001566
    49  H   -0.005053
    50  H    0.025879
    51  H    0.016855
    52  H    0.016646
    53  H    0.010351
    54  H    0.044654
    55  H    0.019342
    56  H    0.016819
    57  H    0.005287
    58  H    0.027309
    59  H    0.037490
    60  H    0.037078
    61  H    0.036694
    62  H    0.029670
    63  H    0.017303
    64  H    0.009879
    65  H    0.023704
    66  H    0.012696
    67  H    0.004880
    68  H    0.006588
    69  H    0.004159
    70  H    0.012591
    71  H    0.019178
    72  H    0.031078
    73  H    0.048485
    74  H    0.008803
    75  H    0.046379
    76  H    0.035375
    77  H    0.044246
    78  H    0.045063
    79  H    0.055540
    80  Mg   0.836912
    81  C   -0.014763
    82  C   -0.088238
    83  C   -0.045115
    84  C   -0.065311
    85  N   -0.254564
    86  C   -0.047783
    87  C   -0.014939
    88  C   -0.091938
    89  C    0.045659
    90  C    0.110649
    91  C    0.062753
    92  C   -0.076969
    93  H    0.034008
    94  N   -0.423413
    95  C    0.162635
    96  C   -0.176067
    97  C   -0.007896
    98  C    0.151446
    99  C    0.100215
   100  C    0.015350
   101  O   -0.253215
   102  C    0.061552
   103  N   -0.350180
   104  C    0.036956
   105  C   -0.020226
   106  C   -0.034653
   107  C    0.089491
   108  C    0.073395
   109  C    0.034757
   110  C   -0.007394
   111  N   -0.324931
   112  C    0.079645
   113  C   -0.162088
   114  C    0.005126
   115  C    0.095775
   116  C    0.130512
   117  C    0.046173
   118  O   -0.186304
   119  C   -0.001541
   120  C    0.210252
   121  O   -0.252236
   122  O   -0.304719
   123  C    0.152371
   124  H   -0.022218
   125  H   -0.015673
   126  H   -0.041180
   127  H    0.001207
   128  H   -0.006428
   129  H    0.033084
   130  H    0.013921
   131  H    0.011794
   132  H    0.013323
   133  H    0.037736
   134  H    0.019882
   135  H    0.018499
   136  H    0.007050
   137  H    0.023375
   138  H    0.039019
   139  H    0.037045
   140  H    0.035932
   141  H    0.033336
   142  H    0.013783
   143  H    0.010931
   144  H    0.024062
   145  H    0.014190
   146  H    0.003935
   147  H    0.005454
   148  H    0.003147
   149  H    0.010791
   150  H    0.017453
   151  H    0.030561
   152  H    0.045610
   153  H    0.006877
   154  H    0.050940
   155  H    0.045480
   156  H    0.043259
   157  H    0.048281
   158  H    0.053061
 Sum of Mulliken charges =  -0.00000

 Dipole moment (field-independent basis, Debye):
    X=             -4.5567    Y=             -1.4608    Z=             -7.0709  Tot=              8.5379
 Quadrupole moment (field-independent basis, Debye-Ang):
   XX=           -519.8513   YY=           -549.2448   ZZ=           -449.4737
   XY=             -9.2094   XZ=             -2.9305   YZ=            -47.5118

 Normal termination of Gaussian 16 at Fri Sep  3 17:03:05 2021.
