 Gaussian 16, Revision A.03,
 Gaussian 16:  ES64L-G16RevA.03 25-Dec-2016

 -----------------------------------
 #p cam-b3lyp/Def2SVP td=(nstates=5)
 -----------------------------------

 --------------------------------
 TDDFT excited states in gaussian
 --------------------------------
 Symbolic Z-matrix:
 Charge =  0 Multiplicity = 1

                         Standard orientation:
 ---------------------------------------------------------------------
 Center     Atomic      Atomic             Coordinates (Angstroms)
 Number     Number       Type             X           Y           Z
 ---------------------------------------------------------------------
      1         12           0       -4.255449   -1.161558    0.334770
      2          6           0       -4.774745    2.376856    0.483668
      3          6           0       -5.333202   -1.033588   -2.900216
      4          6           0       -4.238826   -4.332688    0.318004
      5          6           0       -4.317446   -1.168543    3.819274
      6          7           0       -4.938070    0.518126   -0.935401
      7          6           0       -5.033176    1.834600   -0.777212
      8          6           0       -5.360287    2.593532   -2.097967
      9          6           0       -6.055169    1.406820   -2.904719
     10          6           0       -5.376845    0.226233   -2.232399
     11          6           0       -7.558964    1.308696   -2.669193
     12          6           0       -4.070979    3.103079   -2.825825
     13          6           0       -4.310713    4.126320   -3.939765
     14          1           0       -3.337452    5.190347   -4.134590
     15          7           0       -4.245518   -2.434736   -1.175783
     16          6           0       -4.709616   -2.208892   -2.428337
     17          6           0       -4.477611   -3.460549   -3.180805
     18          6           0       -4.015131   -4.494046   -2.213287
     19          6           0       -4.175137   -3.793484   -0.964692
     20          6           0       -4.647641   -3.571985   -4.664861
     21          6           0       -3.519168   -5.894913   -2.385689
     22          8           0       -3.389607   -6.696912   -1.398478
     23          6           0       -3.269787   -6.337891   -3.769388
     24          7           0       -4.494062   -2.590825    1.837400
     25          6           0       -4.384267   -3.896969    1.571097
     26          6           0       -4.309673   -4.706803    2.831472
     27          6           0       -4.146341   -3.656288    4.022898
     28          6           0       -4.243069   -2.348419    3.199251
     29          6           0       -5.513079   -5.616553    3.114631
     30          6           0       -2.931845   -3.845880    4.966017
     31          6           0       -1.649113   -3.577852    4.211128
     32          7           0       -4.322673    0.337159    1.903328
     33          6           0       -4.363788    0.108861    3.286391
     34          6           0       -4.511466    1.423731    3.937064
     35          6           0       -4.562997    2.329963    2.879740
     36          6           0       -4.480783    1.623406    1.645920
     37          6           0       -4.638456    1.651846    5.335732
     38          6           0       -4.693162    3.728604    2.504617
     39          8           0       -4.705699    4.794470    3.122084
     40          6           0       -4.958003    3.804157    0.936186
     41          6           0       -4.032897    4.846007    0.368702
     42          8           0       -2.797566    4.669153    0.361863
     43          8           0       -4.752433    5.770277   -0.285924
     44          6           0       -3.892432    6.817778   -0.898536
     45          1           0       -5.874101   -1.151164   -3.841251
     46          1           0       -4.124731   -5.417797    0.362267
     47          1           0       -4.258978   -1.084725    4.906017
     48          1           0       -6.056944    3.424284   -1.984196
     49          1           0       -5.804759    1.434274   -3.965032
     50          1           0       -7.884626    1.991028   -1.884153
     51          1           0       -7.740580    0.274920   -2.374549
     52          1           0       -8.107243    1.455681   -3.600086
     53          1           0       -3.642924    2.288981   -3.410697
     54          1           0       -3.358757    3.511684   -2.108115
     55          1           0       -5.320285    4.535725   -3.894381
     56          1           0       -4.272521    3.605073   -4.896343
     57          1           0       -5.154302   -2.699989   -5.076521
     58          1           0       -5.336650   -4.396847   -4.845356
     59          1           0       -3.702569   -3.764535   -5.172892
     60          1           0       -4.191879   -6.255917   -4.345214
     61          1           0       -2.835295   -7.333965   -3.692549
     62          1           0       -2.556190   -5.657364   -4.234803
     63          1           0       -3.445966   -5.370347    2.819399
     64          1           0       -5.006471   -3.660668    4.692846
     65          1           0       -5.248650   -6.667270    3.236187
     66          1           0       -6.232303   -5.485237    2.306693
     67          1           0       -6.107433   -5.331475    3.982324
     68          1           0       -2.885399   -4.874388    5.322331
     69          1           0       -2.958754   -3.193410    5.838834
     70          1           0       -1.452492   -4.529947    3.719511
     71          1           0       -0.846294   -3.322973    4.903753
     72          1           0       -1.795470   -2.831794    3.429806
     73          1           0       -4.000996    2.505789    5.564632
     74          1           0       -4.343954    0.772843    5.908641
     75          1           0       -5.705577    1.860558    5.410220
     76          1           0       -6.005889    4.073572    0.807846
     77          1           0       -4.240757    7.779653   -0.522107
     78          1           0       -3.924780    6.654266   -1.975858
     79          1           0       -2.850777    6.835587   -0.576083
     80         12           0        4.693422   -0.338098   -0.187127
     81          6           0        3.698102    3.102007    0.045381
     82          6           0        3.207284   -0.405391   -3.256565
     83          6           0        5.157132   -3.476625   -0.232894
     84          6           0        5.069651   -0.319062    3.277531
     85          7           0        3.624284    1.211808   -1.347721
     86          6           0        3.361354    2.499693   -1.184758
     87          6           0        2.773096    3.199791   -2.439100
     88          6           0        2.149378    1.909788   -3.164179
     89          6           0        3.068631    0.835957   -2.585789
     90          6           0        0.725628    1.604561   -2.729304
     91          6           0        3.880988    3.875119   -3.321444
     92          6           0        3.355015    4.835621   -4.390333
     93          1           0        4.141253    6.025394   -4.704561
     94          7           0        4.692633   -1.614393   -1.706878
     95          6           0        4.054408   -1.473359   -2.887586
     96          6           0        4.351880   -2.693340   -3.653949
     97          6           0        5.081945   -3.638641   -2.766176
     98          6           0        4.985169   -2.939643   -1.500427
     99          6           0        4.019875   -2.840532   -5.110497
    100          6           0        5.744954   -4.959949   -3.012679
    101          8           0        6.111779   -5.719658   -2.047739
    102          6           0        5.867605   -5.380184   -4.416196
    103          7           0        4.855814   -1.761505    1.319493
    104          6           0        5.109321   -3.049659    1.029139
    105          6           0        5.456003   -3.831361    2.273786
    106          6           0        5.619467   -2.742329    3.433475
    107          6           0        5.234625   -1.472019    2.643779
    108          6           0        4.434492   -4.883687    2.704516
    109          6           0        6.959346   -2.746637    4.219198
    110          6           0        8.091157   -2.321259    3.311748
    111          7           0        4.618922    1.150185    1.377327
    112          6           0        4.779497    0.938608    2.764250
    113          6           0        4.530180    2.231730    3.433655
    114          6           0        4.216807    3.107539    2.383308
    115          6           0        4.247496    2.404837    1.148502
    116          6           0        4.559857    2.460708    4.838224
    117          6           0        3.856619    4.464267    2.039410
    118          8           0        3.765249    5.522678    2.660014
    119          6           0        3.381001    4.491940    0.523030
    120          6           0        4.070556    5.641581   -0.159142
    121          8           0        5.305073    5.638913   -0.309399
    122          8           0        3.144172    6.446005   -0.711476
    123          6           0        3.779799    7.595251   -1.409356
    124          1           0        2.577219   -0.598986   -4.125138
    125          1           0        5.428935   -4.534275   -0.201791
    126          1           0        5.262998   -0.207675    4.346587
    127          1           0        1.993575    3.923127   -2.231959
    128          1           0        2.264223    1.969138   -4.243369
    129          1           0        0.408776    2.238046   -1.914170
    130          1           0        0.727692    0.566639   -2.423100
    131          1           0        0.048648    1.664611   -3.586288
    132          1           0        4.341151    3.113133   -3.963603
    133          1           0        4.602985    4.377784   -2.707699
    134          1           0        2.304263    5.102302   -4.223773
    135          1           0        3.350552    4.316197   -5.351689
    136          1           0        3.339086   -2.050069   -5.449762
    137          1           0        3.438260   -3.762929   -5.214266
    138          1           0        4.909341   -2.910849   -5.740245
    139          1           0        4.878837   -5.429915   -4.866000
    140          1           0        6.446634   -6.305465   -4.394664
    141          1           0        6.424317   -4.611750   -4.964096
    142          1           0        6.394679   -4.357582    2.151037
    143          1           0        4.859521   -2.866339    4.218933
    144          1           0        4.862827   -5.900628    2.784702
    145          1           0        3.613746   -4.871250    1.999707
    146          1           0        3.931617   -4.679994    3.648357
    147          1           0        7.196518   -3.758173    4.557872
    148          1           0        6.947962   -2.107834    5.095997
    149          1           0        8.351251   -3.247582    2.790818
    150          1           0        8.930188   -1.947595    3.895214
    151          1           0        7.743338   -1.605574    2.557782
    152          1           0        5.088663    3.392169    4.990718
    153          1           0        5.040489    1.638940    5.364959
    154          1           0        3.488559    2.513312    5.049943
    155          1           0        2.296332    4.606250    0.521939
    156          1           0        3.345569    8.506118   -0.985724
    157          1           0        3.618745    7.415360   -2.488919
    158          1           0        4.836204    7.764436   -1.236657
 ---------------------------------------------------------------------

 SCF Done:  E(RCAM-B3LYP) =  -4069.81137103     A.U. after   19 cycles

 Excitation energies and oscillator strengths:

 Excited State   1:      Singlet-A      1.6469 eV  752.83 nm  f=0.0011  <S**2>=0.000
     309 -> 315       -0.11487
     310 -> 316        0.12059
     311 -> 313       -0.47173
     312 -> 314        0.50048
 This state for optimization and/or second-order correction.
 Total Energy, E(TD-HF/TD-DFT) =  -4069.75084805
 Copying the excited state density for this state as the 1-particle RhoCI density.

 Excited State   2:      Singlet-A      1.7046 eV  727.34 nm  f=0.6961  <S**2>=0.000
     309 -> 315        0.13267
     310 -> 316        0.12375
     311 -> 313        0.49778
     312 -> 314        0.46926

 Excited State   3:      Singlet-A      2.1800 eV  568.75 nm  f=0.0174  <S**2>=0.000
     309 -> 313       -0.31038
     310 -> 314        0.56567
     311 -> 315        0.12814
     312 -> 316       -0.23503

 Excited State   4:      Singlet-A      2.1962 eV  564.55 nm  f=0.1578  <S**2>=0.000
     309 -> 313        0.56063
     310 -> 314        0.30574
     311 -> 315       -0.24742
     312 -> 316       -0.13614

 Excited State   5:      Singlet-A      2.3267 eV  532.86 nm  f=0.0000  <S**2>=0.000
     312 -> 313        0.70702

 The electronic state is 1-A.
 Alpha  occ. eigenvalues --  -46.87943 -46.87414 -19.26414 -19.26027 -19.19163
 Alpha  occ. eigenvalues --  -19.18939 -19.18850 -19.18515 -19.18263 -19.17706
 Alpha  occ. eigenvalues --  -14.42609 -14.42249 -14.41589 -14.41116 -14.39548
 Alpha  occ. eigenvalues --  -14.39110 -14.38724 -14.38340 -10.39222 -10.38766
 Alpha  occ. eigenvalues --  -10.35575 -10.35198 -10.34487 -10.33873 -10.31792
 Alpha  occ. eigenvalues --  -10.31561 -10.31505 -10.31082 -10.31040 -10.30768
 Alpha  occ. eigenvalues --  -10.30712 -10.30636 -10.30347 -10.30142 -10.30098
 Alpha  occ. eigenvalues --  -10.30041 -10.29935 -10.29764 -10.29643 -10.29397
 Alpha  occ. eigenvalues --  -10.29214 -10.29154 -10.28972 -10.28864 -10.28510
 Alpha  occ. eigenvalues --  -10.28503 -10.28426 -10.28315 -10.28137 -10.27922
 Alpha  occ. eigenvalues --  -10.27884 -10.27873 -10.27744 -10.27724 -10.27674
 Alpha  occ. eigenvalues --  -10.27614 -10.27553 -10.27552 -10.27440 -10.27342
 Alpha  occ. eigenvalues --  -10.27340 -10.27284 -10.27229 -10.27211 -10.27180
 Alpha  occ. eigenvalues --  -10.27026 -10.26632 -10.26561 -10.26481 -10.26400
 Alpha  occ. eigenvalues --  -10.26291 -10.26277 -10.26155 -10.25985 -10.25916
 Alpha  occ. eigenvalues --  -10.25706 -10.25681 -10.25583 -10.25526 -10.25212
 Alpha  occ. eigenvalues --  -10.24958 -10.24919 -10.24797 -10.24600 -10.24580
 Alpha  occ. eigenvalues --  -10.24441  -3.16686  -3.16164  -1.91568  -1.91155
 Alpha  occ. eigenvalues --   -1.91047  -1.90996  -1.90635  -1.90472  -1.16764
 Alpha  occ. eigenvalues --   -1.16324  -1.08718  -1.08300  -1.07338  -1.06780
 Alpha  occ. eigenvalues --   -1.06770  -1.06632  -1.04740  -1.04239  -1.03903
 Alpha  occ. eigenvalues --   -1.03415  -1.03372  -1.02795  -1.02550  -1.01860
 Alpha  occ. eigenvalues --   -0.92111  -0.91690  -0.89645  -0.89395  -0.89270
 Alpha  occ. eigenvalues --   -0.88887  -0.88410  -0.88010  -0.87988  -0.87839
 Alpha  occ. eigenvalues --   -0.87532  -0.87447  -0.87425  -0.86922  -0.85178
 Alpha  occ. eigenvalues --   -0.84757  -0.84052  -0.83667  -0.83108  -0.82819
 Alpha  occ. eigenvalues --   -0.82752  -0.82414  -0.81721  -0.81326  -0.80741
 Alpha  occ. eigenvalues --   -0.80190  -0.78942  -0.78414  -0.77377  -0.77098
 Alpha  occ. eigenvalues --   -0.76917  -0.76652  -0.76076  -0.75568  -0.75019
 Alpha  occ. eigenvalues --   -0.74579  -0.72909  -0.72453  -0.71814  -0.71325
 Alpha  occ. eigenvalues --   -0.70025  -0.69568  -0.69053  -0.68588  -0.67782
 Alpha  occ. eigenvalues --   -0.67433  -0.67358  -0.66990  -0.65473  -0.65009
 Alpha  occ. eigenvalues --   -0.64993  -0.64770  -0.64523  -0.64400  -0.64396
 Alpha  occ. eigenvalues --   -0.63983  -0.62426  -0.62002  -0.60582  -0.60128
 Alpha  occ. eigenvalues --   -0.59985  -0.59533  -0.59126  -0.58741  -0.58639
 Alpha  occ. eigenvalues --   -0.58165  -0.57711  -0.57437  -0.57227  -0.56988
 Alpha  occ. eigenvalues --   -0.56447  -0.56127  -0.55964  -0.55662  -0.55618
 Alpha  occ. eigenvalues --   -0.55458  -0.55219  -0.55008  -0.54648  -0.54242
 Alpha  occ. eigenvalues --   -0.54101  -0.53659  -0.53438  -0.53393  -0.53060
 Alpha  occ. eigenvalues --   -0.53002  -0.52927  -0.52900  -0.52654  -0.52554
 Alpha  occ. eigenvalues --   -0.52470  -0.52213  -0.52016  -0.51809  -0.51614
 Alpha  occ. eigenvalues --   -0.51427  -0.51328  -0.50939  -0.50737  -0.50309
 Alpha  occ. eigenvalues --   -0.50169  -0.50070  -0.49759  -0.49682  -0.49659
 Alpha  occ. eigenvalues --   -0.49358  -0.49261  -0.49257  -0.48937  -0.48820
 Alpha  occ. eigenvalues --   -0.48730  -0.48589  -0.48564  -0.48296  -0.48165
 Alpha  occ. eigenvalues --   -0.48104  -0.47848  -0.47438  -0.47364  -0.46944
 Alpha  occ. eigenvalues --   -0.46909  -0.46751  -0.46493  -0.46480  -0.46321
 Alpha  occ. eigenvalues --   -0.46286  -0.46048  -0.45945  -0.45835  -0.45546
 Alpha  occ. eigenvalues --   -0.45322  -0.44986  -0.44710  -0.44667  -0.44280
 Alpha  occ. eigenvalues --   -0.44266  -0.44255  -0.44243  -0.44151  -0.43874
 Alpha  occ. eigenvalues --   -0.43866  -0.43690  -0.43622  -0.43549  -0.43295
 Alpha  occ. eigenvalues --   -0.43162  -0.43137  -0.42824  -0.42776  -0.42668
 Alpha  occ. eigenvalues --   -0.42611  -0.42350  -0.42155  -0.41840  -0.41745
 Alpha  occ. eigenvalues --   -0.41722  -0.41382  -0.41287  -0.41226  -0.41051
 Alpha  occ. eigenvalues --   -0.40986  -0.40739  -0.40700  -0.40523  -0.40487
 Alpha  occ. eigenvalues --   -0.40475  -0.40266  -0.40008  -0.39561  -0.39244
 Alpha  occ. eigenvalues --   -0.38610  -0.38143  -0.37982  -0.37457  -0.37449
 Alpha  occ. eigenvalues --   -0.37439  -0.37043  -0.36955  -0.36845  -0.36491
 Alpha  occ. eigenvalues --   -0.36333  -0.35973  -0.34428  -0.34001  -0.33913
 Alpha  occ. eigenvalues --   -0.33559  -0.33327  -0.32926  -0.31469  -0.31179
 Alpha  occ. eigenvalues --   -0.31073  -0.30715  -0.30123  -0.29602  -0.29587
 Alpha  occ. eigenvalues --   -0.29446  -0.29094  -0.28936  -0.24225  -0.23776
 Alpha  occ. eigenvalues --   -0.21271  -0.20872
 Alpha virt. eigenvalues --   -0.08913  -0.08541  -0.01891  -0.01444  -0.00201
 Alpha virt. eigenvalues --    0.00204   0.02084   0.02484   0.02741   0.03500
 Alpha virt. eigenvalues --    0.04532   0.04907   0.04983   0.05487   0.05900

 Mulliken charges:
               1
     1  Mg   0.837751
     2  C   -0.003757
     3  C   -0.095459
     4  C   -0.045259
     5  C   -0.063576
     6  N   -0.256689
     7  C   -0.053112
     8  C   -0.013720
     9  C   -0.086805
    10  C    0.045779
    11  C    0.104768
    12  C    0.052748
    13  C   -0.071351
    14  H    0.034505
    15  N   -0.433200
    16  C    0.168013
    17  C   -0.178059
    18  C   -0.003969
    19  C    0.148782
    20  C    0.110324
    21  C    0.012663
    22  O   -0.248728
    23  C    0.062694
    24  N   -0.341048
    25  C    0.041093
    26  C   -0.028304
    27  C   -0.024045
    28  C    0.074960
    29  C    0.076031
    30  C    0.035024
    31  C   -0.004534
    32  N   -0.310717
    33  C    0.080727
    34  C   -0.169003
    35  C    0.009007
    36  C    0.083099
    37  C    0.127047
    38  C    0.046832
    39  O   -0.186642
    40  C   -0.005702
    41  C    0.213772
    42  O   -0.258158
    43  O   -0.304733
    44  C    0.156831
    45  H   -0.017819
    46  H   -0.016359
    47  H   -0.040990
    48  H    0.001618
    49  H   -0.004968
    50  H    0.025865
    51  H    0.016874
    52  H    0.016717
    53  H    0.009555
    54  H    0.043314
    55  H    0.019367
    56  H    0.017095
    57  H    0.005383
    58  H    0.027311
    59  H    0.037710
    60  H    0.037320
    61  H    0.036397
    62  H    0.029910
    63  H    0.016979
    64  H    0.009780
    65  H    0.023571
    66  H    0.012567
    67  H    0.004950
    68  H    0.006572
    69  H    0.004852
    70  H    0.009159
    71  H    0.017348
    72  H    0.029456
    73  H    0.048918
    74  H    0.009219
    75  H    0.046315
    76  H    0.035444
    77  H    0.044142
    78  H    0.045222
    79  H    0.055018
    80  Mg   0.837375
    81  C   -0.015927
    82  C   -0.088010
    83  C   -0.045497
    84  C   -0.065569
    85  N   -0.254564
    86  C   -0.048184
    87  C   -0.015470
    88  C   -0.091650
    89  C    0.045797
    90  C    0.111049
    91  C    0.062652
    92  C   -0.076974
    93  H    0.033763
    94  N   -0.423373
    95  C    0.162734
    96  C   -0.175519
    97  C   -0.008108
    98  C    0.151805
    99  C    0.099953
   100  C    0.015308
   101  O   -0.253498
   102  C    0.061427
   103  N   -0.350092
   104  C    0.037253
   105  C   -0.019631
   106  C   -0.034688
   107  C    0.089319
   108  C    0.073747
   109  C    0.034851
   110  C   -0.007555
   111  N   -0.324515
   112  C    0.079212
   113  C   -0.162990
   114  C    0.003902
   115  C    0.095723
   116  C    0.131109
   117  C    0.044476
   118  O   -0.186308
   119  C   -0.000754
   120  C    0.210304
   121  O   -0.252345
   122  O   -0.303885
   123  C    0.152489
   124  H   -0.021673
   125  H   -0.016000
   126  H   -0.041024
   127  H    0.003301
   128  H   -0.006484
   129  H    0.034031
   130  H    0.012861
   131  H    0.012668
   132  H    0.013109
   133  H    0.037632
   134  H    0.020425
   135  H    0.018304
   136  H    0.007282
   137  H    0.024294
   138  H    0.039013
   139  H    0.037438
   140  H    0.035878
   141  H    0.033450
   142  H    0.013937
   143  H    0.011611
   144  H    0.024675
   145  H    0.012693
   146  H    0.004522
   147  H    0.005715
   148  H    0.003329
   149  H    0.010751
   150  H    0.017521
   151  H    0.030441
   152  H    0.045859
   153  H    0.007446
   154  H    0.048789
   155  H    0.044759
   156  H    0.043545
   157  H    0.048211
   158  H    0.052857
 Sum of Mulliken charges =  -0.00000

 Dipole moment (field-independent basis, Debye):
    X=             -4.6619    Y=             -2.8853    Z=             -6.5906  Tot=              8.5729
 Quadrupole moment (field-independent basis, Debye-Ang):
   XX=           -516.5401   YY=           -555.3353   ZZ=           -448.7851
   XY=             -4.8291   XZ=             17.0816   YZ=            -43.0763

 Normal termination of Gaussian 16 at Fri Sep 10 04:06:15 2021.
