 Gaussian 16, Revision A.03,
 Gaussian 16:  ES64L-G16RevA.03 25-Dec-2016

 -----------------------------------
 #p cam-b3lyp/Def2SVP td=(nstates=5)
 -----------------------------------

 --------------------------------
 TDDFT excited states in gaussian
 --------------------------------
 Symbolic Z-matrix:
 Charge =  0 Multiplicity = 1

                         Standard orientation:
 ---------------------------------------------------------------------
 Center     Atomic      Atomic             Coordinates (Angstroms)
 Number     Number       Type             X           Y           Z
 ---------------------------------------------------------------------
      1         12           0        7.801927    0.901348    0.253792
      2          6           0        8.421329   -2.567283   -0.376410
      3          6           0        8.644973    1.489994   -2.999797
      4          6           0        7.702726    4.003826    0.902957
      5          6           0        8.116464    0.188617    3.650664
      6          7           0        8.433455   -0.449806   -1.382118
      7          6           0        8.573557   -1.765565   -1.509865
      8          6           0        8.823321   -2.220544   -2.978873
      9          6           0        9.427121   -0.865427   -3.562895
     10          6           0        8.769298    0.121935   -2.615103
     11          6           0       10.941029   -0.757787   -3.411242
     12          6           0        7.498093   -2.619682   -3.711124
     13          6           0        7.682536   -3.379386   -5.028009
     14          1           0        6.725340   -4.418242   -5.377152
     15          7           0        7.649704    2.458452   -0.952487
     16          6           0        8.027313    2.515930   -2.252254
     17          6           0        7.709249    3.885970   -2.708882
     18          6           0        7.291831    4.677073   -1.518079
     19          6           0        7.559971    3.740007   -0.457237
     20          6           0        7.768202    4.309262   -4.144534
     21          6           0        6.748864    6.062135   -1.360210
     22          8           0        6.670749    6.636278   -0.220547
     23          6           0        6.388422    6.771820   -2.600964
     24          7           0        8.112199    1.996641    2.003563
     25          6           0        7.949870    3.324115    2.024634
     26          6           0        7.946184    3.851524    3.428830
     27          6           0        7.896779    2.571222    4.381792
     28          6           0        7.967017    1.467393    3.297865
     29          6           0        9.143214    4.730540    3.816722
     30          6           0        6.749472    2.512222    5.421323
     31          6           0        5.422638    2.355027    4.712874
     32          7           0        8.021273   -0.885925    1.465644
     33          6           0        8.156786   -0.947713    2.860094
     34          6           0        8.385009   -2.361842    3.209700
     35          6           0        8.382911   -3.026480    1.984916
     36          6           0        8.193253   -2.083485    0.934640
     37          6           0        8.618992   -2.869534    4.518109
     38          6           0        8.521370   -4.310633    1.317355
     39          8           0        8.606049   -5.479927    1.695606
     40          6           0        8.673529   -4.048815   -0.246016
     41          6           0        7.736728   -4.986833   -0.957236
     42          8           0        6.500027   -4.862273   -0.845785
     43          8           0        8.430344   -5.725661   -1.836765
     44          6           0        7.555324   -6.657231   -2.597469
     45          1           0        9.112948    1.821694   -3.928729
     46          1           0        7.564324    5.050718    1.180985
     47          1           0        8.139198   -0.120859    4.697163
     48          1           0        9.547496   -3.028109   -3.087660
     49          1           0        9.101203   -0.682626   -4.586655
     50          1           0       11.340220   -1.574310   -2.809695
     51          1           0       11.116951    0.198949   -2.919104
     52          1           0       11.423890   -0.686492   -4.386198
     53          1           0        7.007960   -1.719963   -4.083059
     54          1           0        6.850567   -3.196472   -3.049801
     55          1           0        8.702916   -3.748332   -5.135766
     56          1           0        7.561648   -2.673201   -5.849525
     57          1           0        8.265867    3.562614   -4.762103
     58          1           0        8.420889    5.180674   -4.193011
     59          1           0        6.784119    4.564705   -4.537804
     60          1           0        7.268089    6.848133   -3.240426
     61          1           0        5.935225    7.712037   -2.288784
     62          1           0        5.660635    6.174346   -3.150781
     63          1           0        7.067130    4.467852    3.612761
     64          1           0        8.802869    2.471300    4.979866
     65          1           0        8.861418    5.721748    4.172817
     66          1           0        9.805035    4.798554    2.953787
     67          1           0        9.806100    4.296009    4.564507
     68          1           0        6.702621    3.441850    5.987489
     69          1           0        6.856400    1.694674    6.134367
     70          1           0        5.166477    3.379625    4.445645
     71          1           0        4.679016    1.930050    5.387879
     72          1           0        5.531006    1.793576    3.784695
     73          1           0        8.021961   -3.777327    4.604334
     74          1           0        8.344380   -2.140910    5.280539
     75          1           0        9.693710   -3.046023    4.477021
     76          1           0        9.715907   -4.243384   -0.496439
     77          1           0        7.954631   -7.661414   -2.454621
     78          1           0        7.505187   -6.272861   -3.616366
     79          1           0        6.540621   -6.783388   -2.218258
     80         12           0       -7.970973   -0.955967    0.108791
     81          6           0       -8.157824    2.470945   -0.940230
     82          6           0       -7.253825    0.196827    3.237903
     83          6           0       -7.356829   -3.949391    0.962997
     84          6           0       -7.568193   -1.815581   -3.244502
     85          7           0       -7.761397    1.091269    0.919449
     86          6           0       -7.915416    2.316577    0.440657
     87          6           0       -7.883085    3.435938    1.515614
     88          6           0       -7.037683    2.663694    2.641576
     89          6           0       -7.395701    1.225512    2.272612
     90          6           0       -5.535438    2.835835    2.490051
     91          6           0       -9.316834    3.811684    2.030583
     92          6           0       -9.388321    5.102764    2.848986
     93          1           0      -10.575464    5.943406    2.720585
     94          7           0       -7.874333   -1.783386    1.910067
     95          6           0       -7.593248   -1.164370    3.075866
     96          6           0       -7.624947   -2.213708    4.106427
     97          6           0       -7.785121   -3.529999    3.430820
     98          6           0       -7.654569   -3.131867    2.043538
     99          6           0       -7.588333   -1.911866    5.576451
    100          6           0       -8.004978   -4.919252    3.948341
    101          8           0       -7.877317   -5.947114    3.193344
    102          6           0       -8.282440   -5.046857    5.386477
    103          7           0       -7.316047   -2.619116   -0.952994
    104          6           0       -7.181035   -3.814100   -0.351576
    105          6           0       -6.966667   -4.913423   -1.364453
    106          6           0       -7.228242   -4.239999   -2.791225
    107          6           0       -7.471941   -2.782465   -2.342251
    108          6           0       -5.584388   -5.565816   -1.355636
    109          6           0       -8.284414   -4.917921   -3.706412
    110          6           0       -9.661985   -4.771087   -3.101338
    111          7           0       -8.059708    0.081491   -1.784321
    112          6           0       -7.834337   -0.463869   -3.067238
    113          6           0       -7.892345    0.653659   -4.031697
    114          6           0       -8.126430    1.783976   -3.234153
    115          6           0       -8.188408    1.400977   -1.867055
    116          6           0       -7.690389    0.551041   -5.436975
    117          6           0       -8.324605    3.215559   -3.236908
    118          8           0       -8.459598    4.072158   -4.109691
    119          6           0       -8.227788    3.742009   -1.740290
    120          6           0       -9.392932    4.661098   -1.494914
    121          8           0      -10.556773    4.222933   -1.505627
    122          8           0       -8.932629    5.853759   -1.075323
    123          6           0      -10.051615    6.796250   -0.808116
    124          1           0       -6.800406    0.445159    4.197919
    125          1           0       -7.245684   -5.011778    1.192064
    126          1           0       -7.550037   -2.015032   -4.318073
    127          1           0       -7.365034    4.338956    1.215685
    128          1           0       -7.397734    2.902374    3.638956
    129          1           0       -5.279262    3.353803    1.577787
    130          1           0       -5.123665    1.835101    2.485336
    131          1           0       -5.121275    3.327986    3.374682
    132          1           0       -9.623811    3.087018    2.795673
    133          1           0      -10.013351    3.860993    1.216298
    134          1           0       -8.477707    5.705706    2.748073
    135          1           0       -9.419819    4.840248    3.909229
    136          1           0       -7.302190   -0.869973    5.766156
    137          1           0       -6.769201   -2.500561    6.003450
    138          1           0       -8.517516   -2.178662    6.084498
    139          1           0       -7.457046   -4.621806    5.952616
    140          1           0       -8.499360   -6.104319    5.549550
    141          1           0       -9.169109   -4.449323    5.626074
    142          1           0       -7.678199   -5.717032   -1.219406
    143          1           0       -6.318964   -4.230330   -3.410062
    144          1           0       -5.619706   -6.661208   -1.204206
    145          1           0       -4.989355   -5.094364   -0.584789
    146          1           0       -4.985920   -5.391860   -2.248257
    147          1           0       -8.089981   -5.990818   -3.778821
    148          1           0       -8.296701   -4.523928   -4.717169
    149          1           0       -9.704182   -5.593719   -2.381215
    150          1           0      -10.429297   -4.875915   -3.865733
    151          1           0       -9.746440   -3.834795   -2.537533
    152          1           0       -8.453523    1.157569   -5.906292
    153          1           0       -7.741727   -0.482976   -5.771559
    154          1           0       -6.679548    0.959344   -5.519079
    155          1           0       -7.271623    4.256069   -1.635057
    156          1           0       -9.865762    7.691537   -1.409457
    157          1           0      -10.078780    6.923975    0.290383
    158          1           0      -11.039296    6.511920   -1.151785
 ---------------------------------------------------------------------

 SCF Done:  E(RCAM-B3LYP) =  -4069.81180856     A.U. after   19 cycles

 Excitation energies and oscillator strengths:

 Excited State   1:      Singlet-A      1.6707 eV  742.13 nm  f=0.0574  <S**2>=0.000
     309 -> 315        0.10006
     310 -> 316        0.14079
     311 -> 313        0.39668
     312 -> 314        0.56008
 This state for optimization and/or second-order correction.
 Total Energy, E(TD-HF/TD-DFT) =  -4069.75041279
 Copying the excited state density for this state as the 1-particle RhoCI density.

 Excited State   2:      Singlet-A      1.6847 eV  735.96 nm  f=0.6982  <S**2>=0.000
     309 -> 315        0.14422
     310 -> 316       -0.10168
     311 -> 313        0.55930
     312 -> 314       -0.39619

 Excited State   3:      Singlet-A      2.1857 eV  567.24 nm  f=0.0634  <S**2>=0.000
     309 -> 313        0.13441
     310 -> 314        0.62856
     312 -> 316       -0.26667

 Excited State   4:      Singlet-A      2.1932 eV  565.32 nm  f=0.1307  <S**2>=0.000
     309 -> 313        0.62651
     310 -> 314       -0.13342
     311 -> 315       -0.27242

 Excited State   5:      Singlet-A      2.7662 eV  448.21 nm  f=0.0000  <S**2>=0.000
     312 -> 313        0.70710

 The electronic state is 1-A.
 Alpha  occ. eigenvalues --  -46.87835 -46.87591 -19.26310 -19.26310 -19.19118
 Alpha  occ. eigenvalues --  -19.19048 -19.18846 -19.18636 -19.18202 -19.17999
 Alpha  occ. eigenvalues --  -14.42486 -14.42428 -14.41491 -14.41288 -14.39440
 Alpha  occ. eigenvalues --  -14.39282 -14.38625 -14.38533 -10.39108 -10.39046
 Alpha  occ. eigenvalues --  -10.35478 -10.35312 -10.34422 -10.34177 -10.31723
 Alpha  occ. eigenvalues --  -10.31702 -10.31440 -10.31245 -10.30953 -10.30941
 Alpha  occ. eigenvalues --  -10.30607 -10.30547 -10.30330 -10.30298 -10.30250
 Alpha  occ. eigenvalues --  -10.30065 -10.29966 -10.29823 -10.29667 -10.29364
 Alpha  occ. eigenvalues --  -10.29336 -10.29291 -10.28776 -10.28656 -10.28606
 Alpha  occ. eigenvalues --  -10.28558 -10.28399 -10.28337 -10.28143 -10.28073
 Alpha  occ. eigenvalues --  -10.27936 -10.27828 -10.27762 -10.27618 -10.27599
 Alpha  occ. eigenvalues --  -10.27561 -10.27506 -10.27499 -10.27441 -10.27439
 Alpha  occ. eigenvalues --  -10.27417 -10.27399 -10.27392 -10.27289 -10.27189
 Alpha  occ. eigenvalues --  -10.26997 -10.26729 -10.26638 -10.26425 -10.26333
 Alpha  occ. eigenvalues --  -10.26265 -10.26258 -10.26074 -10.26062 -10.25947
 Alpha  occ. eigenvalues --  -10.25886 -10.25867 -10.25811 -10.25488 -10.25281
 Alpha  occ. eigenvalues --  -10.24868 -10.24828 -10.24810 -10.24783 -10.24672
 Alpha  occ. eigenvalues --  -10.24616  -3.16578  -3.16341  -1.91460  -1.91223
 Alpha  occ. eigenvalues --   -1.91046  -1.90888  -1.90811  -1.90648  -1.16659
 Alpha  occ. eigenvalues --   -1.16602  -1.08659  -1.08609  -1.07247  -1.06902
 Alpha  occ. eigenvalues --   -1.06887  -1.06671  -1.04616  -1.04427  -1.03800
 Alpha  occ. eigenvalues --   -1.03593  -1.03272  -1.02969  -1.02450  -1.02042
 Alpha  occ. eigenvalues --   -0.92007  -0.91924  -0.89572  -0.89425  -0.89216
 Alpha  occ. eigenvalues --   -0.89086  -0.88339  -0.88145  -0.87908  -0.87737
 Alpha  occ. eigenvalues --   -0.87708  -0.87616  -0.87303  -0.87048  -0.85013
 Alpha  occ. eigenvalues --   -0.84934  -0.83993  -0.83802  -0.83000  -0.82855
 Alpha  occ. eigenvalues --   -0.82680  -0.82586  -0.81618  -0.81542  -0.80630
 Alpha  occ. eigenvalues --   -0.80381  -0.78829  -0.78568  -0.77259  -0.77079
 Alpha  occ. eigenvalues --   -0.76969  -0.76835  -0.75954  -0.75777  -0.74945
 Alpha  occ. eigenvalues --   -0.74723  -0.72813  -0.72634  -0.71709  -0.71508
 Alpha  occ. eigenvalues --   -0.69971  -0.69686  -0.68904  -0.68763  -0.67677
 Alpha  occ. eigenvalues --   -0.67535  -0.67247  -0.67136  -0.65319  -0.65210
 Alpha  occ. eigenvalues --   -0.64892  -0.64706  -0.64659  -0.64591  -0.64319
 Alpha  occ. eigenvalues --   -0.64133  -0.62332  -0.62224  -0.60477  -0.60267
 Alpha  occ. eigenvalues --   -0.59835  -0.59731  -0.59026  -0.58925  -0.58541
 Alpha  occ. eigenvalues --   -0.58361  -0.57617  -0.57502  -0.57350  -0.57168
 Alpha  occ. eigenvalues --   -0.56344  -0.56142  -0.56008  -0.55833  -0.55552
 Alpha  occ. eigenvalues --   -0.55388  -0.55387  -0.55181  -0.54567  -0.54425
 Alpha  occ. eigenvalues --   -0.53924  -0.53848  -0.53335  -0.53251  -0.53161
 Alpha  occ. eigenvalues --   -0.53078  -0.52951  -0.52842  -0.52783  -0.52595
 Alpha  occ. eigenvalues --   -0.52505  -0.52336  -0.51954  -0.51836  -0.51644
 Alpha  occ. eigenvalues --   -0.51595  -0.51236  -0.51142  -0.50597  -0.50399
 Alpha  occ. eigenvalues --   -0.50083  -0.49948  -0.49909  -0.49789  -0.49544
 Alpha  occ. eigenvalues --   -0.49419  -0.49247  -0.49139  -0.49126  -0.49043
 Alpha  occ. eigenvalues --   -0.48627  -0.48505  -0.48498  -0.48476  -0.48302
 Alpha  occ. eigenvalues --   -0.48266  -0.47729  -0.47527  -0.47331  -0.47046
 Alpha  occ. eigenvalues --   -0.46839  -0.46643  -0.46584  -0.46488  -0.46399
 Alpha  occ. eigenvalues --   -0.46203  -0.46203  -0.46019  -0.45857  -0.45768
 Alpha  occ. eigenvalues --   -0.45250  -0.45126  -0.44613  -0.44541  -0.44455
 Alpha  occ. eigenvalues --   -0.44411  -0.44189  -0.44119  -0.44063  -0.44050
 Alpha  occ. eigenvalues --   -0.44011  -0.43873  -0.43529  -0.43499  -0.43423
 Alpha  occ. eigenvalues --   -0.43319  -0.43065  -0.42878  -0.42839  -0.42742
 Alpha  occ. eigenvalues --   -0.42701  -0.42481  -0.42059  -0.41900  -0.41741
 Alpha  occ. eigenvalues --   -0.41606  -0.41566  -0.41394  -0.41177  -0.40918
 Alpha  occ. eigenvalues --   -0.40908  -0.40853  -0.40653  -0.40629  -0.40621
 Alpha  occ. eigenvalues --   -0.40421  -0.40260  -0.40165  -0.39510  -0.39356
 Alpha  occ. eigenvalues --   -0.38519  -0.38274  -0.37778  -0.37594  -0.37368
 Alpha  occ. eigenvalues --   -0.37294  -0.37196  -0.37135  -0.36749  -0.36720
 Alpha  occ. eigenvalues --   -0.36232  -0.36150  -0.34324  -0.34186  -0.33814
 Alpha  occ. eigenvalues --   -0.33801  -0.33224  -0.33108  -0.31376  -0.31194
 Alpha  occ. eigenvalues --   -0.31073  -0.30903  -0.30061  -0.29905  -0.29483
 Alpha  occ. eigenvalues --   -0.29358  -0.29258  -0.29149  -0.24119  -0.23967
 Alpha  occ. eigenvalues --   -0.21165  -0.21048
 Alpha virt. eigenvalues --   -0.08810  -0.08724  -0.01789  -0.01612  -0.00089
 Alpha virt. eigenvalues --    0.00042   0.02164   0.02268   0.03074   0.03291
 Alpha virt. eigenvalues --    0.04684   0.04798   0.05069   0.05211   0.06151

 Mulliken charges:
               1
     1  Mg   0.838625
     2  C   -0.002919
     3  C   -0.093939
     4  C   -0.046000
     5  C   -0.064080
     6  N   -0.256772
     7  C   -0.052483
     8  C   -0.014017
     9  C   -0.087018
    10  C    0.046311
    11  C    0.104779
    12  C    0.053436
    13  C   -0.071857
    14  H    0.036129
    15  N   -0.433191
    16  C    0.168408
    17  C   -0.176987
    18  C   -0.003967
    19  C    0.148748
    20  C    0.110115
    21  C    0.012265
    22  O   -0.249782
    23  C    0.062451
    24  N   -0.341105
    25  C    0.041252
    26  C   -0.028173
    27  C   -0.023897
    28  C    0.074701
    29  C    0.076170
    30  C    0.035216
    31  C   -0.004429
    32  N   -0.310452
    33  C    0.080323
    34  C   -0.169846
    35  C    0.008396
    36  C    0.082908
    37  C    0.127341
    38  C    0.046088
    39  O   -0.188385
    40  C   -0.005320
    41  C    0.212908
    42  O   -0.257151
    43  O   -0.304764
    44  C    0.157661
    45  H   -0.017410
    46  H   -0.016917
    47  H   -0.041690
    48  H    0.000999
    49  H   -0.003879
    50  H    0.025495
    51  H    0.016440
    52  H    0.016805
    53  H    0.011256
    54  H    0.044060
    55  H    0.017932
    56  H    0.018082
    57  H    0.006000
    58  H    0.026956
    59  H    0.039883
    60  H    0.037471
    61  H    0.035753
    62  H    0.031742
    63  H    0.016305
    64  H    0.009491
    65  H    0.023126
    66  H    0.012724
    67  H    0.004760
    68  H    0.006166
    69  H    0.004642
    70  H    0.008584
    71  H    0.017479
    72  H    0.029205
    73  H    0.047520
    74  H    0.008887
    75  H    0.046067
    76  H    0.035227
    77  H    0.043026
    78  H    0.046441
    79  H    0.053679
    80  Mg   0.837985
    81  C   -0.016898
    82  C   -0.087729
    83  C   -0.045245
    84  C   -0.064811
    85  N   -0.254596
    86  C   -0.049845
    87  C   -0.015105
    88  C   -0.090526
    89  C    0.045817
    90  C    0.114336
    91  C    0.062535
    92  C   -0.077825
    93  H    0.034653
    94  N   -0.423590
    95  C    0.163055
    96  C   -0.174380
    97  C   -0.007576
    98  C    0.152190
    99  C    0.099263
   100  C    0.015739
   101  O   -0.252901
   102  C    0.061170
   103  N   -0.350003
   104  C    0.037710
   105  C   -0.020001
   106  C   -0.034684
   107  C    0.088867
   108  C    0.073435
   109  C    0.034756
   110  C   -0.007646
   111  N   -0.324038
   112  C    0.078364
   113  C   -0.163322
   114  C    0.002104
   115  C    0.096141
   116  C    0.131523
   117  C    0.042170
   118  O   -0.188367
   119  C    0.000983
   120  C    0.211205
   121  O   -0.251100
   122  O   -0.305621
   123  C    0.152094
   124  H   -0.019525
   125  H   -0.015248
   126  H   -0.040712
   127  H   -0.000712
   128  H   -0.004416
   129  H    0.022464
   130  H    0.014815
   131  H    0.016327
   132  H    0.013888
   133  H    0.037573
   134  H    0.020814
   135  H    0.019578
   136  H    0.008731
   137  H    0.026539
   138  H    0.039712
   139  H    0.038485
   140  H    0.036484
   141  H    0.033687
   142  H    0.014315
   143  H    0.012436
   144  H    0.025315
   145  H    0.012471
   146  H    0.005908
   147  H    0.006279
   148  H    0.003367
   149  H    0.010984
   150  H    0.017683
   151  H    0.030076
   152  H    0.045735
   153  H    0.008374
   154  H    0.046616
   155  H    0.034929
   156  H    0.043728
   157  H    0.049534
   158  H    0.053479
 Sum of Mulliken charges =  -0.00000

 Dipole moment (field-independent basis, Debye):
    X=              3.7947    Y=              2.3568    Z=              0.5264  Tot=              4.4979
 Quadrupole moment (field-independent basis, Debye-Ang):
   XX=           -521.0938   YY=           -544.7318   ZZ=           -453.1290
   XY=             22.4169   XZ=            -68.2224   YZ=             41.2517

 Normal termination of Gaussian 16 at Sat Sep  4 13:27:58 2021.
