 Gaussian 16, Revision A.03,
 Gaussian 16:  ES64L-G16RevA.03 25-Dec-2016

 -----------------------------------
 #p cam-b3lyp/Def2SVP td=(nstates=5)
 -----------------------------------

 --------------------------------
 TDDFT excited states in gaussian
 --------------------------------
 Symbolic Z-matrix:
 Charge =  0 Multiplicity = 1

                         Standard orientation:
 ---------------------------------------------------------------------
 Center     Atomic      Atomic             Coordinates (Angstroms)
 Number     Number       Type             X           Y           Z
 ---------------------------------------------------------------------
      1         12           0        6.869352    0.392742    0.707093
      2          6           0        7.169057   -2.630602   -1.185467
      3          6           0        7.987119    2.056567   -2.054310
      4          6           0        7.046832    3.009642    2.489495
      5          6           0        6.877818   -1.579245    3.580567
      6          7           0        7.467581   -0.308586   -1.305594
      7          6           0        7.479594   -1.485862   -1.922883
      8          6           0        7.780076   -1.380736   -3.448017
      9          6           0        8.558569    0.010625   -3.455885
     10          6           0        7.943361    0.640179   -2.218506
     11          6           0       10.061731   -0.131037   -3.239239
     12          6           0        6.473436   -1.310989   -4.307992
     13          6           0        6.667366   -1.535105   -5.810496
     14          1           0        5.634020   -2.241754   -6.552245
     15          7           0        6.960591    2.295549    0.183785
     16          6           0        7.429315    2.792099   -0.986267
     17          6           0        7.285894    4.260868   -0.892308
     18          6           0        6.872550    4.589530    0.500252
     19          6           0        6.970132    3.296904    1.128722
     20          6           0        7.485325    5.183167   -2.055640
     21          6           0        6.465854    5.867916    1.162414
     22          8           0        6.370315    5.975472    2.432799
     23          6           0        6.265421    7.030651    0.278719
     24          7           0        7.171627    0.702104    2.749288
     25          6           0        7.145994    1.933009    3.271975
     26          6           0        7.101569    1.889001    4.770651
     27          6           0        6.855951    0.360240    5.160926
     28          6           0        6.885278   -0.253825    3.739541
     29          6           0        8.353809    2.405201    5.492762
     30          6           0        5.640887    0.053548    6.071958
     31          6           0        4.355988    0.336729    5.326344
     32          7           0        6.820611   -1.731688    1.149208
     33          6           0        6.854229   -2.330017    2.417099
     34          6           0        6.911200   -3.788089    2.205321
     35          6           0        6.923577   -3.936983    0.819853
     36          6           0        6.903772   -2.652398    0.205245
     37          6           0        7.002386   -4.775469    3.225713
     38          6           0        6.973797   -4.881732   -0.284133
     39          8           0        6.911627   -6.108342   -0.379291
     40          6           0        7.257726   -4.070925   -1.624955
     41          6           0        6.279553   -4.551071   -2.662234
     42          8           0        5.057594   -4.328824   -2.540627
     43          8           0        6.951283   -4.982413   -3.740781
     44          6           0        6.038436   -5.445486   -4.819868
     45          1           0        8.548667    2.654358   -2.774902
     46          1           0        6.998598    3.883183    3.142976
     47          1           0        6.797554   -2.260350    4.429747
     48          1           0        8.422817   -2.169178   -3.840022
     49          1           0        8.323361    0.603555   -4.339533
     50          1           0       10.332915   -1.155854   -2.985999
     51          1           0       10.301615    0.540988   -2.415023
     52          1           0       10.614318    0.243124   -4.101462
     53          1           0        6.105024   -0.285219   -4.319447
     54          1           0        5.726570   -2.011337   -3.932454
     55          1           0        7.649207   -1.956984   -6.027092
     56          1           0        6.675886   -0.562496   -6.302594
     57          1           0        7.944044    4.669726   -2.899737
     58          1           0        8.226165    5.922671   -1.752327
     59          1           0        6.561750    5.685098   -2.344440
     60          1           0        7.189565    7.234996   -0.262344
     61          1           0        5.891483    7.831494    0.915642
     62          1           0        5.518842    6.777158   -0.474481
     63          1           0        6.280321    2.492270    5.155415
     64          1           0        7.704287   -0.066541    5.696517
     65          1           0        8.152245    3.215571    6.193745
     66          1           0        9.076059    2.712479    4.736968
     67          1           0        8.916152    1.644190    6.033178
     68          1           0        5.651889    0.699785    6.949001
     69          1           0        5.614381   -0.978795    6.420978
     70          1           0        4.225543    1.409411    5.464796
     71          1           0        3.528488   -0.217702    5.770257
     72          1           0        4.468528    0.157518    4.256903
     73          1           0        6.310467   -5.569345    2.944681
     74          1           0        6.753341   -4.360160    4.201980
     75          1           0        8.053478   -5.052284    3.145490
     76          1           0        8.289045   -4.281590   -1.906243
     77          1           0        6.321466   -6.469916   -5.062089
     78          1           0        6.097357   -4.702672   -5.615583
     79          1           0        4.992782   -5.581236   -4.541446
     80         12           0       -6.324907    0.613130   -0.302045
     81          6           0       -8.985596   -1.691351    0.397330
     82          6           0       -8.705548    2.799225   -1.392064
     83          6           0       -3.985746    2.485733   -1.345678
     84          6           0       -4.143321   -2.104079   -0.245814
     85          7           0       -8.527625    0.458991   -0.430539
     86          6           0       -9.433143   -0.441138   -0.078193
     87          6           0      -10.901525    0.053981   -0.169180
     88          6           0      -10.696391    1.216067   -1.258390
     89          6           0       -9.228223    1.543047   -0.993392
     90          6           0      -10.825740    0.727325   -2.691479
     91          6           0      -11.423666    0.629889    1.193796
     92          6           0      -12.937120    0.845235    1.263347
     93          1           0      -13.615932    0.610008    2.534704
     94          7           0       -6.335644    2.541672   -0.770220
     95          6           0       -7.394767    3.275907   -1.170754
     96          6           0       -6.876569    4.631500   -1.411595
     97          6           0       -5.394668    4.597590   -1.279203
     98          6           0       -5.174659    3.171598   -1.144116
     99          6           0       -7.770201    5.813236   -1.653140
    100          6           0       -4.347587    5.669858   -1.287331
    101          8           0       -3.100863    5.392733   -1.395539
    102          6           0       -4.830668    7.058130   -1.258930
    103          7           0       -4.386018    0.222985   -0.943020
    104          6           0       -3.559161    1.223741   -1.293341
    105          6           0       -2.141186    0.729355   -1.452479
    106          6           0       -2.144459   -0.770746   -0.898167
    107          6           0       -3.649020   -0.920898   -0.583298
    108          6           0       -1.587530    0.743996   -2.877137
    109          6           0       -1.118329   -1.111149    0.217106
    110          6           0       -1.472250   -0.371652    1.487249
    111          7           0       -6.466121   -1.484878    0.194422
    112          6           0       -5.436965   -2.449223    0.124013
    113          6           0       -6.042612   -3.756842    0.449212
    114          6           0       -7.397512   -3.463656    0.665459
    115          6           0       -7.624443   -2.074796    0.467813
    116          6           0       -5.362767   -5.007297    0.466329
    117          6           0       -8.689431   -4.014996    1.005577
    118          8           0       -9.095207   -5.119424    1.365178
    119          6           0       -9.799392   -2.912831    0.723410
    120          6           0      -10.707263   -2.850667    1.921084
    121          8           0      -10.276747   -2.461579    3.021026
    122          8           0      -11.976679   -3.051195    1.522634
    123          6           0      -12.916100   -2.987817    2.673840
    124          1           0       -9.346173    3.469093   -1.966305
    125          1           0       -3.121725    3.104294   -1.599296
    126          1           0       -3.510838   -2.984169   -0.111365
    127          1           0      -11.606739   -0.681108   -0.538074
    128          1           0      -11.323920    2.076467   -1.040966
    129          1           0      -10.917518   -0.347365   -2.743909
    130          1           0       -9.926587    1.055336   -3.196437
    131          1           0      -11.654723    1.237466   -3.190360
    132          1           0      -11.081243    1.667417    1.298790
    133          1           0      -11.108263    0.014021    2.013462
    134          1           0      -13.463779    0.336724    0.446654
    135          1           0      -13.144820    1.905100    1.097304
    136          1           0       -8.801812    5.502044   -1.858948
    137          1           0       -7.436496    6.281171   -2.585638
    138          1           0       -7.719313    6.551032   -0.849569
    139          1           0       -5.474844    7.233972   -2.117173
    140          1           0       -3.935216    7.677571   -1.179355
    141          1           0       -5.451439    7.194355   -0.366348
    142          1           0       -1.456091    1.321926   -0.858675
    143          1           0       -1.915074   -1.498394   -1.690469
    144          1           0       -0.657259    1.334371   -2.977836
    145          1           0       -2.354290    1.126963   -3.537400
    146          1           0       -1.384126   -0.236774   -3.303645
    147          1           0       -0.119874   -0.773074   -0.070900
    148          1           0       -1.049600   -2.172428    0.431517
    149          1           0       -1.028612    0.615968    1.329583
    150          1           0       -1.036370   -0.866536    2.352780
    151          1           0       -2.556504   -0.235853    1.574484
    152          1           0       -5.696200   -5.530852    1.352454
    153          1           0       -4.283083   -4.872878    0.465677
    154          1           0       -5.723343   -5.438186   -0.471529
    155          1           0      -10.333402   -3.209498   -0.180140
    156          1           0      -13.479185   -3.926221    2.678745
    157          1           0      -13.493837   -2.054420    2.536949
    158          1           0      -12.489201   -2.992123    3.669927
 ---------------------------------------------------------------------

 SCF Done:  E(RCAM-B3LYP) =  -4069.81207345     A.U. after   19 cycles

 Excitation energies and oscillator strengths:

 Excited State   1:      Singlet-A      1.6642 eV  745.01 nm  f=0.0106  <S**2>=0.000
     309 -> 315       -0.10773
     310 -> 316        0.13302
     311 -> 313       -0.43052
     312 -> 314        0.53495
 This state for optimization and/or second-order correction.
 Total Energy, E(TD-HF/TD-DFT) =  -4069.75091567
 Copying the excited state density for this state as the 1-particle RhoCI density.

 Excited State   2:      Singlet-A      1.6896 eV  733.80 nm  f=0.7302  <S**2>=0.000
     309 -> 315        0.13895
     310 -> 316        0.11107
     311 -> 313        0.53375
     312 -> 314        0.42959

 Excited State   3:      Singlet-A      2.1850 eV  567.42 nm  f=0.1056  <S**2>=0.000
     310 -> 314        0.64219
     312 -> 316       -0.27230

 Excited State   4:      Singlet-A      2.1942 eV  565.06 nm  f=0.0966  <S**2>=0.000
     309 -> 313        0.64009
     311 -> 315       -0.27880

 Excited State   5:      Singlet-A      2.6557 eV  466.86 nm  f=0.0000  <S**2>=0.000
     312 -> 313        0.70682

 The electronic state is 1-A.
 Alpha  occ. eigenvalues --  -46.87813 -46.87529 -19.26343 -19.26259 -19.19090
 Alpha  occ. eigenvalues --  -19.19064 -19.18770 -19.18622 -19.18189 -19.17935
 Alpha  occ. eigenvalues --  -14.42464 -14.42372 -14.41458 -14.41213 -14.39410
 Alpha  occ. eigenvalues --  -14.39225 -14.38605 -14.38467 -10.39144 -10.38992
 Alpha  occ. eigenvalues --  -10.35400 -10.35303 -10.34412 -10.34112 -10.31739
 Alpha  occ. eigenvalues --  -10.31676 -10.31425 -10.31182 -10.30918 -10.30912
 Alpha  occ. eigenvalues --  -10.30585 -10.30515 -10.30262 -10.30226 -10.30201
 Alpha  occ. eigenvalues --  -10.29984 -10.29930 -10.29739 -10.29632 -10.29308
 Alpha  occ. eigenvalues --  -10.29272 -10.29252 -10.28774 -10.28622 -10.28579
 Alpha  occ. eigenvalues --  -10.28579 -10.28375 -10.28286 -10.28135 -10.28040
 Alpha  occ. eigenvalues --  -10.27873 -10.27797 -10.27736 -10.27579 -10.27545
 Alpha  occ. eigenvalues --  -10.27490 -10.27446 -10.27438 -10.27418 -10.27376
 Alpha  occ. eigenvalues --  -10.27359 -10.27344 -10.27276 -10.27188 -10.27182
 Alpha  occ. eigenvalues --  -10.26940 -10.26751 -10.26605 -10.26352 -10.26320
 Alpha  occ. eigenvalues --  -10.26245 -10.26170 -10.26024 -10.25935 -10.25851
 Alpha  occ. eigenvalues --  -10.25815 -10.25770 -10.25670 -10.25418 -10.25220
 Alpha  occ. eigenvalues --  -10.24843 -10.24791 -10.24746 -10.24682 -10.24555
 Alpha  occ. eigenvalues --  -10.24474  -3.16556  -3.16279  -1.91438  -1.91161
 Alpha  occ. eigenvalues --   -1.91024  -1.90866  -1.90749  -1.90586  -1.16693
 Alpha  occ. eigenvalues --   -1.16551  -1.08651  -1.08543  -1.07169  -1.06877
 Alpha  occ. eigenvalues --   -1.06849  -1.06709  -1.04595  -1.04372  -1.03768
 Alpha  occ. eigenvalues --   -1.03530  -1.03242  -1.02898  -1.02421  -1.01976
 Alpha  occ. eigenvalues --   -0.91989  -0.91862  -0.89520  -0.89315  -0.89209
 Alpha  occ. eigenvalues --   -0.89043  -0.88285  -0.88030  -0.87879  -0.87684
 Alpha  occ. eigenvalues --   -0.87650  -0.87553  -0.87251  -0.87013  -0.84997
 Alpha  occ. eigenvalues --   -0.84888  -0.83935  -0.83685  -0.82931  -0.82816
 Alpha  occ. eigenvalues --   -0.82652  -0.82539  -0.81613  -0.81478  -0.80607
 Alpha  occ. eigenvalues --   -0.80324  -0.78787  -0.78514  -0.77223  -0.77016
 Alpha  occ. eigenvalues --   -0.76954  -0.76763  -0.75941  -0.75725  -0.74899
 Alpha  occ. eigenvalues --   -0.74642  -0.72781  -0.72558  -0.71681  -0.71449
 Alpha  occ. eigenvalues --   -0.69902  -0.69535  -0.68882  -0.68712  -0.67645
 Alpha  occ. eigenvalues --   -0.67475  -0.67228  -0.67101  -0.65307  -0.65159
 Alpha  occ. eigenvalues --   -0.64870  -0.64634  -0.64632  -0.64526  -0.64271
 Alpha  occ. eigenvalues --   -0.64019  -0.62330  -0.62154  -0.60427  -0.60214
 Alpha  occ. eigenvalues --   -0.59820  -0.59684  -0.58997  -0.58855  -0.58514
 Alpha  occ. eigenvalues --   -0.58290  -0.57615  -0.57438  -0.57311  -0.57089
 Alpha  occ. eigenvalues --   -0.56313  -0.56074  -0.56014  -0.55778  -0.55509
 Alpha  occ. eigenvalues --   -0.55351  -0.55346  -0.55086  -0.54544  -0.54328
 Alpha  occ. eigenvalues --   -0.53916  -0.53808  -0.53296  -0.53221  -0.53098
 Alpha  occ. eigenvalues --   -0.53026  -0.52936  -0.52782  -0.52734  -0.52576
 Alpha  occ. eigenvalues --   -0.52433  -0.52161  -0.51926  -0.51728  -0.51625
 Alpha  occ. eigenvalues --   -0.51559  -0.51210  -0.51060  -0.50528  -0.50374
 Alpha  occ. eigenvalues --   -0.50023  -0.49902  -0.49868  -0.49696  -0.49513
 Alpha  occ. eigenvalues --   -0.49383  -0.49220  -0.49110  -0.49092  -0.48986
 Alpha  occ. eigenvalues --   -0.48613  -0.48462  -0.48445  -0.48424  -0.48241
 Alpha  occ. eigenvalues --   -0.48214  -0.47695  -0.47469  -0.47293  -0.46994
 Alpha  occ. eigenvalues --   -0.46805  -0.46573  -0.46562  -0.46441  -0.46366
 Alpha  occ. eigenvalues --   -0.46175  -0.46127  -0.45937  -0.45845  -0.45690
 Alpha  occ. eigenvalues --   -0.45198  -0.45051  -0.44595  -0.44496  -0.44404
 Alpha  occ. eigenvalues --   -0.44342  -0.44144  -0.44099  -0.44017  -0.44014
 Alpha  occ. eigenvalues --   -0.43920  -0.43835  -0.43518  -0.43425  -0.43395
 Alpha  occ. eigenvalues --   -0.43261  -0.43036  -0.42819  -0.42767  -0.42737
 Alpha  occ. eigenvalues --   -0.42659  -0.42379  -0.42019  -0.41795  -0.41715
 Alpha  occ. eigenvalues --   -0.41548  -0.41539  -0.41327  -0.41149  -0.40880
 Alpha  occ. eigenvalues --   -0.40864  -0.40792  -0.40626  -0.40572  -0.40568
 Alpha  occ. eigenvalues --   -0.40301  -0.40257  -0.40136  -0.39435  -0.39201
 Alpha  occ. eigenvalues --   -0.38471  -0.38176  -0.37774  -0.37548  -0.37323
 Alpha  occ. eigenvalues --   -0.37283  -0.37105  -0.37075  -0.36756  -0.36655
 Alpha  occ. eigenvalues --   -0.36215  -0.36064  -0.34299  -0.34119  -0.33831
 Alpha  occ. eigenvalues --   -0.33759  -0.33199  -0.33042  -0.31304  -0.31180
 Alpha  occ. eigenvalues --   -0.31043  -0.30843  -0.30051  -0.29838  -0.29446
 Alpha  occ. eigenvalues --   -0.29332  -0.29209  -0.29083  -0.24093  -0.23903
 Alpha  occ. eigenvalues --   -0.21135  -0.20983
 Alpha virt. eigenvalues --   -0.08777  -0.08665  -0.01754  -0.01549  -0.00045
 Alpha virt. eigenvalues --    0.00078   0.02189   0.02338   0.03030   0.03357
 Alpha virt. eigenvalues --    0.04700   0.04850   0.05041   0.05265   0.06145

 Mulliken charges:
               1
     1  Mg   0.837425
     2  C   -0.003487
     3  C   -0.094016
     4  C   -0.045632
     5  C   -0.063971
     6  N   -0.256828
     7  C   -0.052835
     8  C   -0.013876
     9  C   -0.086991
    10  C    0.046211
    11  C    0.104762
    12  C    0.053419
    13  C   -0.071784
    14  H    0.035701
    15  N   -0.433320
    16  C    0.168464
    17  C   -0.176784
    18  C   -0.003547
    19  C    0.148738
    20  C    0.110056
    21  C    0.012951
    22  O   -0.249278
    23  C    0.062128
    24  N   -0.341082
    25  C    0.041228
    26  C   -0.028293
    27  C   -0.023928
    28  C    0.074570
    29  C    0.076115
    30  C    0.035095
    31  C   -0.004514
    32  N   -0.310301
    33  C    0.079806
    34  C   -0.170110
    35  C    0.008235
    36  C    0.082257
    37  C    0.127408
    38  C    0.045620
    39  O   -0.188633
    40  C   -0.005110
    41  C    0.213124
    42  O   -0.258344
    43  O   -0.304517
    44  C    0.157760
    45  H   -0.017392
    46  H   -0.016444
    47  H   -0.041408
    48  H    0.000973
    49  H   -0.003897
    50  H    0.025513
    51  H    0.016581
    52  H    0.016796
    53  H    0.011167
    54  H    0.043243
    55  H    0.018112
    56  H    0.018265
    57  H    0.005791
    58  H    0.026957
    59  H    0.040612
    60  H    0.036998
    61  H    0.036205
    62  H    0.032828
    63  H    0.016927
    64  H    0.009558
    65  H    0.023476
    66  H    0.012536
    67  H    0.004830
    68  H    0.006747
    69  H    0.004766
    70  H    0.009430
    71  H    0.018166
    72  H    0.027998
    73  H    0.047242
    74  H    0.009201
    75  H    0.046138
    76  H    0.035328
    77  H    0.043224
    78  H    0.046524
    79  H    0.053094
    80  Mg   0.837641
    81  C   -0.017092
    82  C   -0.088113
    83  C   -0.045552
    84  C   -0.064735
    85  N   -0.254575
    86  C   -0.049842
    87  C   -0.015115
    88  C   -0.090447
    89  C    0.045668
    90  C    0.114482
    91  C    0.062589
    92  C   -0.077744
    93  H    0.034649
    94  N   -0.423382
    95  C    0.162787
    96  C   -0.174995
    97  C   -0.008144
    98  C    0.152081
    99  C    0.099509
   100  C    0.015387
   101  O   -0.253764
   102  C    0.061300
   103  N   -0.350134
   104  C    0.037544
   105  C   -0.019923
   106  C   -0.035678
   107  C    0.088703
   108  C    0.073984
   109  C    0.034967
   110  C   -0.007921
   111  N   -0.324173
   112  C    0.078548
   113  C   -0.162740
   114  C    0.002132
   115  C    0.096369
   116  C    0.131280
   117  C    0.042457
   118  O   -0.187905
   119  C    0.000908
   120  C    0.211227
   121  O   -0.251058
   122  O   -0.305668
   123  C    0.152096
   124  H   -0.020152
   125  H   -0.016038
   126  H   -0.038584
   127  H   -0.000819
   128  H   -0.004602
   129  H    0.022371
   130  H    0.014361
   131  H    0.015910
   132  H    0.013892
   133  H    0.037673
   134  H    0.020675
   135  H    0.019438
   136  H    0.008538
   137  H    0.025571
   138  H    0.039452
   139  H    0.037919
   140  H    0.035748
   141  H    0.034003
   142  H    0.014127
   143  H    0.014573
   144  H    0.024095
   145  H    0.010519
   146  H    0.007176
   147  H    0.008201
   148  H    0.006474
   149  H    0.010170
   150  H    0.018182
   151  H    0.028930
   152  H    0.045969
   153  H    0.010130
   154  H    0.047033
   155  H    0.034832
   156  H    0.043780
   157  H    0.049351
   158  H    0.053515
 Sum of Mulliken charges =  -0.00000

 Dipole moment (field-independent basis, Debye):
    X=              0.7212    Y=              6.5118    Z=             -4.7604  Tot=              8.0985
 Quadrupole moment (field-independent basis, Debye-Ang):
   XX=           -435.7115   YY=           -545.4516   ZZ=           -480.9963
   XY=            -29.5547   XZ=              3.0238   YZ=             -9.4722

 Normal termination of Gaussian 16 at Sat Sep 11 03:12:38 2021.
