 Gaussian 16, Revision A.03,
 Gaussian 16:  ES64L-G16RevA.03 25-Dec-2016

 -----------------------------------
 #p cam-b3lyp/Def2SVP td=(nstates=5)
 -----------------------------------

 --------------------------------
 TDDFT excited states in gaussian
 --------------------------------
 Symbolic Z-matrix:
 Charge =  0 Multiplicity = 1

                         Standard orientation:
 ---------------------------------------------------------------------
 Center     Atomic      Atomic             Coordinates (Angstroms)
 Number     Number       Type             X           Y           Z
 ---------------------------------------------------------------------
      1         12           0        4.639772    0.380917    1.081218
      2          6           0        5.187735   -2.605755   -0.813971
      3          6           0        6.116125    2.095000   -1.473262
      4          6           0        4.579253    2.961931    2.922773
      5          6           0        4.264560   -1.646870    3.890658
      6          7           0        5.500528   -0.282749   -0.847329
      7          6           0        5.594202   -1.447768   -1.480676
      8          6           0        6.095232   -1.313764   -2.949821
      9          6           0        6.868388    0.075120   -2.826417
     10          6           0        6.094066    0.682230   -1.669798
     11          6           0        8.329232   -0.075302   -2.414338
     12          6           0        4.914837   -1.223265   -3.974617
     13          6           0        5.307119   -1.418559   -5.442040
     14          1           0        4.381522   -2.107443   -6.328639
     15          7           0        4.800674    2.293303    0.612453
     16          6           0        5.421296    2.811204   -0.474696
     17          6           0        5.267221    4.278284   -0.371651
     18          6           0        4.672171    4.580917    0.959672
     19          6           0        4.684640    3.275965    1.569856
     20          6           0        5.620227    5.222534   -1.479590
     21          6           0        4.181394    5.847344    1.586914
     22          8           0        3.917503    5.930339    2.835132
     23          6           0        4.100940    7.027729    0.707563
     24          7           0        4.667406    0.649390    3.151192
     25          6           0        4.572857    1.869915    3.690044
     26          6           0        4.329151    1.796760    5.168285
     27          6           0        4.033119    0.261415    5.492063
     28          6           0        4.251303   -0.324839    4.075386
     29          6           0        5.474231    2.294953    6.060814
     30          6           0        2.707393   -0.059341    6.226899
     31          6           0        1.533394    0.242249    5.322538
     32          7           0        4.531718   -1.751591    1.470807
     33          6           0        4.395884   -2.374685    2.719798
     34          6           0        4.479980   -3.828505    2.488705
     35          6           0        4.676766   -3.950329    1.114559
     36          6           0        4.739530   -2.653924    0.528311
     37          6           0        4.434019   -4.835911    3.492426
     38          6           0        4.873239   -4.873469    0.008634
     39          8           0        4.823812   -6.097791   -0.118192
     40          6           0        5.333590   -4.037476   -1.266128
     41          6           0        4.502136   -4.494292   -2.433738
     42          8           0        3.274957   -4.270763   -2.471597
     43          8           0        5.311395   -4.906504   -3.421524
     44          6           0        4.550261   -5.345632   -4.621523
     45          1           0        6.768905    2.705056   -2.100678
     46          1           0        4.444738    3.822676    3.581151
     47          1           0        4.071609   -2.344196    4.707946
     48          1           0        6.784154   -2.096337   -3.268239
     49          1           0        6.753237    0.685917   -3.721620
     50          1           0        8.563852   -1.105690   -2.147550
     51          1           0        8.457440    0.579756   -1.552390
     52          1           0        8.991911    0.313963   -3.187711
     53          1           0        4.551644   -0.196356   -4.014754
     54          1           0        4.124319   -1.928554   -3.715823
     55          1           0        6.308895   -1.839098   -5.534234
     56          1           0        5.381510   -0.436549   -5.909289
     57          1           0        6.187106    4.724302   -2.265056
     58          1           0        6.314349    5.953721   -1.065743
     59          1           0        4.743560    5.732810   -1.878846
     60          1           0        5.089011    7.239810    0.298555
     61          1           0        3.645802    7.817100    1.304716
     62          1           0        3.461260    6.791268   -0.143228
     63          1           0        3.464205    2.394879    5.452092
     64          1           0        4.802369   -0.178321    6.127327
     65          1           0        5.181399    3.092075    6.744590
     66          1           0        6.290856    2.614754    5.414175
     67          1           0        5.959261    1.521825    6.656159
     68          1           0        2.601710    0.569594    7.110199
     69          1           0        2.634213   -1.098224    6.548798
     70          1           0        1.386094    1.312410    5.463567
     71          1           0        0.653909   -0.318243    5.641231
     72          1           0        1.787335    0.083633    4.274282
     73          1           0        3.785392   -5.622043    3.106098
     74          1           0        4.057297   -4.439009    4.434844
     75          1           0        5.486318   -5.114288    3.547455
     76          1           0        6.393106   -4.245726   -1.411658
     77          1           0        4.862629   -6.365985   -4.844098
     78          1           0        4.714962   -4.587590   -5.387455
     79          1           0        3.476782   -5.483629   -4.487592
     80         12           0       -4.160360    0.573286   -0.787010
     81          6           0       -6.823164   -1.571925    0.302285
     82          6           0       -6.525012    2.959413   -1.378114
     83          6           0       -1.904997    2.324088   -2.171018
     84          6           0       -2.209677   -2.285964   -1.193510
     85          7           0       -6.357302    0.574715   -0.530775
     86          6           0       -7.252333   -0.275577   -0.050899
     87          6           0       -8.673443    0.321579    0.131924
     88          6           0       -8.574466    1.511092   -0.942382
     89          6           0       -7.062441    1.726263   -0.930212
     90          6           0       -8.986001    1.092012   -2.343935
     91          6           0       -8.907405    0.874756    1.581491
     92          6           0      -10.365724    1.189434    1.922138
     93          1           0      -10.829589    0.948503    3.285685
     94          7           0       -4.108953    2.515812   -1.190154
     95          6           0       -5.164026    3.336302   -1.376950
     96          6           0       -4.596287    4.662327   -1.665883
     97          6           0       -3.120515    4.522295   -1.797033
     98          6           0       -2.986812    3.080281   -1.743925
     99          6           0       -5.428089    5.911070   -1.712411
    100          6           0       -2.014066    5.520298   -1.958101
    101          8           0       -0.828971    5.163779   -2.291692
    102          6           0       -2.380592    6.935846   -1.805187
    103          7           0       -2.396173    0.079084   -1.769748
    104          6           0       -1.570593    1.034939   -2.230903
    105          6           0       -0.242262    0.452300   -2.650975
    106          6           0       -0.260719   -1.065761   -2.148246
    107          6           0       -1.694919   -1.126164   -1.578322
    108          6           0        0.055774    0.488207   -4.149733
    109          6           0        0.914973   -1.521005   -1.240968
    110          6           0        0.842267   -0.812353    0.092421
    111          7           0       -4.368654   -1.529000   -0.334210
    112          6           0       -3.441667   -2.557350   -0.612207
    113          6           0       -4.077123   -3.833095   -0.223502
    114          6           0       -5.348546   -3.457679    0.235869
    115          6           0       -5.502630   -2.049610    0.121352
    116          6           0       -3.499247   -5.126516   -0.362234
    117          6           0       -6.599292   -3.933505    0.781692
    118          8           0       -7.017434   -5.021723    1.174978
    119          6           0       -7.656499   -2.747695    0.730917
    120          6           0       -8.336025   -2.673568    2.070790
    121          8           0       -7.693818   -2.360501    3.088719
    122          8           0       -9.666594   -2.770655    1.896023
    123          6           0      -10.385069   -2.691253    3.195760
    124          1           0       -7.203947    3.694481   -1.811246
    125          1           0       -1.054498    2.892443   -2.554568
    126          1           0       -1.630501   -3.211816   -1.197771
    127          1           0       -9.484459   -0.347972   -0.128345
    128          1           0       -9.089273    2.402431   -0.593308
    129          1           0       -9.164939    0.029135   -2.410409
    130          1           0       -8.166102    1.378744   -2.989375
    131          1           0       -9.848711    1.677541   -2.674422
    132          1           0       -8.475966    1.881360    1.654583
    133          1           0       -8.501343    0.205479    2.314848
    134          1           0      -11.062141    0.752143    1.196378
    135          1           0      -10.519850    2.266926    1.825835
    136          1           0       -6.499949    5.679514   -1.742603
    137          1           0       -5.227191    6.393416   -2.675141
    138          1           0       -5.184191    6.609812   -0.909324
    139          1           0       -3.148846    7.190439   -2.531423
    140          1           0       -1.441455    7.489141   -1.866385
    141          1           0       -2.825519    7.076908   -0.813839
    142          1           0        0.577381    0.971835   -2.169967
    143          1           0       -0.226664   -1.773913   -2.989198
    144          1           0        0.995721    1.017622   -4.395278
    145          1           0       -0.783215    0.949407   -4.653641
    146          1           0        0.108906   -0.485636   -4.633479
    147          1           0        1.870727   -1.239967   -1.690091
    148          1           0        0.940896   -2.592457   -1.072701
    149          1           0        1.323909    0.148506   -0.112197
    150          1           0        1.383572   -1.371108    0.853217
    151          1           0       -0.197380   -0.606874    0.372733
    152          1           0       -3.712042   -5.662406    0.553218
    153          1           0       -2.429050   -5.065912   -0.548749
    154          1           0       -4.047785   -5.492723   -1.234157
    155          1           0       -8.359466   -2.969730   -0.072892
    156          1           0      -11.006815   -3.588601    3.272461
    157          1           0      -10.906928   -1.715870    3.189531
    158          1           0       -9.793579   -2.765788    4.100768
 ---------------------------------------------------------------------

 SCF Done:  E(RCAM-B3LYP) =  -4069.81643416     A.U. after   19 cycles

 Excitation energies and oscillator strengths:

 Excited State   1:      Singlet-A      1.6414 eV  755.36 nm  f=0.0036  <S**2>=0.000
     309 -> 315       -0.11225
     310 -> 316        0.12116
     311 -> 313       -0.46474
     312 -> 314        0.50699
 This state for optimization and/or second-order correction.
 Total Energy, E(TD-HF/TD-DFT) =  -4069.75611412
 Copying the excited state density for this state as the 1-particle RhoCI density.

 Excited State   2:      Singlet-A      1.7036 eV  727.78 nm  f=0.6886  <S**2>=0.000
     309 -> 315        0.13439
     310 -> 316        0.12165
     311 -> 313        0.50454
     312 -> 314        0.46231

 Excited State   3:      Singlet-A      2.1812 eV  568.42 nm  f=0.0915  <S**2>=0.000
     309 -> 313        0.14436
     310 -> 314        0.62760
     312 -> 316       -0.26192

 Excited State   4:      Singlet-A      2.1966 eV  564.44 nm  f=0.1056  <S**2>=0.000
     309 -> 313        0.62402
     310 -> 314       -0.14172
     311 -> 315       -0.27319

 Excited State   5:      Singlet-A      2.3613 eV  525.06 nm  f=0.0000  <S**2>=0.000
     312 -> 313        0.70621

 The electronic state is 1-A.
 Alpha  occ. eigenvalues --  -46.87818 -46.87370 -19.26615 -19.26173 -19.19497
 Alpha  occ. eigenvalues --  -19.18972 -19.18683 -19.18575 -19.18241 -19.17813
 Alpha  occ. eigenvalues --  -14.42484 -14.42220 -14.41427 -14.41030 -14.39378
 Alpha  occ. eigenvalues --  -14.39077 -14.38609 -14.38307 -10.39463 -10.38896
 Alpha  occ. eigenvalues --  -10.35307 -10.35259 -10.34479 -10.33989 -10.31957
 Alpha  occ. eigenvalues --  -10.31605 -10.31472 -10.31023 -10.30952 -10.30790
 Alpha  occ. eigenvalues --  -10.30600 -10.30504 -10.30132 -10.30099 -10.30056
 Alpha  occ. eigenvalues --  -10.29920 -10.29763 -10.29616 -10.29545 -10.29211
 Alpha  occ. eigenvalues --  -10.29153 -10.29117 -10.28874 -10.28730 -10.28513
 Alpha  occ. eigenvalues --  -10.28501 -10.28385 -10.28197 -10.28154 -10.27922
 Alpha  occ. eigenvalues --  -10.27776 -10.27729 -10.27727 -10.27541 -10.27464
 Alpha  occ. eigenvalues --  -10.27404 -10.27392 -10.27376 -10.27311 -10.27302
 Alpha  occ. eigenvalues --  -10.27272 -10.27212 -10.27202 -10.26950 -10.26946
 Alpha  occ. eigenvalues --  -10.26852 -10.26822 -10.26511 -10.26341 -10.26288
 Alpha  occ. eigenvalues --  -10.26140 -10.26031 -10.25991 -10.25828 -10.25818
 Alpha  occ. eigenvalues --  -10.25524 -10.25422 -10.25370 -10.25106 -10.25049
 Alpha  occ. eigenvalues --  -10.24847 -10.24776 -10.24603 -10.24483 -10.24401
 Alpha  occ. eigenvalues --  -10.24332  -3.16513  -3.16120  -1.91394  -1.91003
 Alpha  occ. eigenvalues --   -1.90984  -1.90826  -1.90591  -1.90428  -1.16973
 Alpha  occ. eigenvalues --   -1.16463  -1.08728  -1.08423  -1.07078  -1.07046
 Alpha  occ. eigenvalues --   -1.06836  -1.06755  -1.04617  -1.04226  -1.03750
 Alpha  occ. eigenvalues --   -1.03369  -1.03226  -1.02722  -1.02409  -1.01811
 Alpha  occ. eigenvalues --   -0.92036  -0.91716  -0.89472  -0.89281  -0.89072
 Alpha  occ. eigenvalues --   -0.88899  -0.88233  -0.87869  -0.87756  -0.87694
 Alpha  occ. eigenvalues --   -0.87475  -0.87387  -0.87169  -0.86901  -0.85049
 Alpha  occ. eigenvalues --   -0.84760  -0.83887  -0.83447  -0.82852  -0.82711
 Alpha  occ. eigenvalues --   -0.82651  -0.82396  -0.81701  -0.81340  -0.80632
 Alpha  occ. eigenvalues --   -0.80189  -0.78736  -0.78373  -0.77217  -0.77004
 Alpha  occ. eigenvalues --   -0.76874  -0.76606  -0.75988  -0.75591  -0.74871
 Alpha  occ. eigenvalues --   -0.74480  -0.72767  -0.72384  -0.71693  -0.71299
 Alpha  occ. eigenvalues --   -0.69810  -0.69215  -0.68914  -0.68573  -0.67657
 Alpha  occ. eigenvalues --   -0.67329  -0.67263  -0.67000  -0.65376  -0.65030
 Alpha  occ. eigenvalues --   -0.64913  -0.64656  -0.64464  -0.64363  -0.64227
 Alpha  occ. eigenvalues --   -0.63732  -0.62441  -0.61992  -0.60364  -0.60070
 Alpha  occ. eigenvalues --   -0.59866  -0.59551  -0.59008  -0.58684  -0.58533
 Alpha  occ. eigenvalues --   -0.58120  -0.57747  -0.57310  -0.57287  -0.56894
 Alpha  occ. eigenvalues --   -0.56348  -0.56123  -0.55913  -0.55654  -0.55494
 Alpha  occ. eigenvalues --   -0.55376  -0.55238  -0.54909  -0.54603  -0.54138
 Alpha  occ. eigenvalues --   -0.53990  -0.53688  -0.53302  -0.53220  -0.53029
 Alpha  occ. eigenvalues --   -0.52977  -0.52866  -0.52663  -0.52636  -0.52492
 Alpha  occ. eigenvalues --   -0.52331  -0.51934  -0.51804  -0.51655  -0.51530
 Alpha  occ. eigenvalues --   -0.51448  -0.51230  -0.50889  -0.50400  -0.50279
 Alpha  occ. eigenvalues --   -0.49972  -0.49866  -0.49754  -0.49564  -0.49459
 Alpha  occ. eigenvalues --   -0.49284  -0.49229  -0.49151  -0.48973  -0.48849
 Alpha  occ. eigenvalues --   -0.48668  -0.48471  -0.48357  -0.48323  -0.48163
 Alpha  occ. eigenvalues --   -0.48053  -0.47689  -0.47325  -0.47267  -0.46859
 Alpha  occ. eigenvalues --   -0.46803  -0.46635  -0.46402  -0.46382  -0.46282
 Alpha  occ. eigenvalues --   -0.46177  -0.45961  -0.45901  -0.45760  -0.45536
 Alpha  occ. eigenvalues --   -0.45158  -0.44909  -0.44640  -0.44484  -0.44302
 Alpha  occ. eigenvalues --   -0.44174  -0.44171  -0.44077  -0.43984  -0.43908
 Alpha  occ. eigenvalues --   -0.43733  -0.43717  -0.43587  -0.43422  -0.43276
 Alpha  occ. eigenvalues --   -0.43117  -0.43043  -0.42910  -0.42703  -0.42609
 Alpha  occ. eigenvalues --   -0.42587  -0.42169  -0.42003  -0.41745  -0.41594
 Alpha  occ. eigenvalues --   -0.41568  -0.41386  -0.41171  -0.41152  -0.40906
 Alpha  occ. eigenvalues --   -0.40759  -0.40721  -0.40561  -0.40521  -0.40423
 Alpha  occ. eigenvalues --   -0.40316  -0.40052  -0.39932  -0.39329  -0.38950
 Alpha  occ. eigenvalues --   -0.38437  -0.37938  -0.37858  -0.37425  -0.37323
 Alpha  occ. eigenvalues --   -0.37296  -0.36974  -0.36960  -0.36830  -0.36522
 Alpha  occ. eigenvalues --   -0.36256  -0.35841  -0.34305  -0.34124  -0.33951
 Alpha  occ. eigenvalues --   -0.33653  -0.33206  -0.32877  -0.31233  -0.31135
 Alpha  occ. eigenvalues --   -0.31044  -0.30688  -0.30115  -0.29714  -0.29417
 Alpha  occ. eigenvalues --   -0.29308  -0.29079  -0.28933  -0.24098  -0.23740
 Alpha  occ. eigenvalues --   -0.21126  -0.20820
 Alpha virt. eigenvalues --   -0.08759  -0.08516  -0.01741  -0.01397  -0.00013
 Alpha virt. eigenvalues --    0.00180   0.02169   0.02470   0.03144   0.03893
 Alpha virt. eigenvalues --    0.04640   0.04724   0.04996   0.05368   0.06011

 Mulliken charges:
               1
     1  Mg   0.813787
     2  C   -0.004513
     3  C   -0.092338
     4  C   -0.043921
     5  C   -0.062555
     6  N   -0.254380
     7  C   -0.059078
     8  C   -0.013070
     9  C   -0.087038
    10  C    0.045793
    11  C    0.104747
    12  C    0.046136
    13  C   -0.071705
    14  H    0.035304
    15  N   -0.430893
    16  C    0.168029
    17  C   -0.174082
    18  C   -0.001597
    19  C    0.149198
    20  C    0.109288
    21  C    0.015127
    22  O   -0.249811
    23  C    0.059574
    24  N   -0.337784
    25  C    0.041770
    26  C   -0.028376
    27  C   -0.023358
    28  C    0.074096
    29  C    0.076192
    30  C    0.034916
    31  C   -0.005692
    32  N   -0.309898
    33  C    0.078896
    34  C   -0.171251
    35  C    0.007831
    36  C    0.078219
    37  C    0.127701
    38  C    0.044188
    39  O   -0.189083
    40  C   -0.005661
    41  C    0.215784
    42  O   -0.260390
    43  O   -0.303377
    44  C    0.157235
    45  H   -0.017612
    46  H   -0.016486
    47  H   -0.041630
    48  H    0.000602
    49  H   -0.003496
    50  H    0.025550
    51  H    0.017218
    52  H    0.017022
    53  H    0.011790
    54  H    0.046679
    55  H    0.018934
    56  H    0.019303
    57  H    0.005303
    58  H    0.026319
    59  H    0.045781
    60  H    0.036101
    61  H    0.034722
    62  H    0.039451
    63  H    0.017302
    64  H    0.009299
    65  H    0.023415
    66  H    0.012330
    67  H    0.004906
    68  H    0.006418
    69  H    0.005033
    70  H    0.008761
    71  H    0.020010
    72  H    0.029950
    73  H    0.046798
    74  H    0.010007
    75  H    0.045999
    76  H    0.035897
    77  H    0.044423
    78  H    0.047272
    79  H    0.052417
    80  Mg   0.837209
    81  C   -0.017649
    82  C   -0.088496
    83  C   -0.045982
    84  C   -0.065671
    85  N   -0.254693
    86  C   -0.049746
    87  C   -0.015149
    88  C   -0.090334
    89  C    0.045487
    90  C    0.114599
    91  C    0.062640
    92  C   -0.077525
    93  H    0.034207
    94  N   -0.423172
    95  C    0.162459
    96  C   -0.175351
    97  C   -0.008825
    98  C    0.152151
    99  C    0.099551
   100  C    0.015416
   101  O   -0.256782
   102  C    0.061870
   103  N   -0.349890
   104  C    0.037214
   105  C   -0.020424
   106  C   -0.040943
   107  C    0.086389
   108  C    0.075095
   109  C    0.036459
   110  C   -0.037456
   111  N   -0.324266
   112  C    0.078935
   113  C   -0.161992
   114  C    0.001837
   115  C    0.096595
   116  C    0.130210
   117  C    0.042431
   118  O   -0.188133
   119  C    0.000956
   120  C    0.211177
   121  O   -0.251332
   122  O   -0.305645
   123  C    0.152215
   124  H   -0.020764
   125  H   -0.017554
   126  H   -0.032415
   127  H   -0.001049
   128  H   -0.004935
   129  H    0.022165
   130  H    0.014293
   131  H    0.015489
   132  H    0.013922
   133  H    0.037518
   134  H    0.020566
   135  H    0.019318
   136  H    0.008352
   137  H    0.024811
   138  H    0.039040
   139  H    0.038035
   140  H    0.032953
   141  H    0.034900
   142  H    0.013485
   143  H    0.018676
   144  H    0.020796
   145  H    0.009588
   146  H    0.006962
   147  H    0.014404
   148  H    0.022187
   149  H    0.014079
   150  H    0.046858
   151  H    0.025630
   152  H    0.045598
   153  H    0.014665
   154  H    0.046387
   155  H    0.034526
   156  H    0.043584
   157  H    0.049254
   158  H    0.053278
 Sum of Mulliken charges =  -0.00000

 Dipole moment (field-independent basis, Debye):
    X=              1.0413    Y=              6.5824    Z=             -3.8982  Tot=              7.7206
 Quadrupole moment (field-independent basis, Debye-Ang):
   XX=           -450.6231   YY=           -540.0338   ZZ=           -483.5793
   XY=            -27.5062   XZ=             -6.8742   YZ=             -4.3969

 Normal termination of Gaussian 16 at Thu Sep  9 13:55:06 2021.
