 Gaussian 16, Revision A.03,
 Gaussian 16:  ES64L-G16RevA.03 25-Dec-2016

 -----------------------------------
 #p cam-b3lyp/Def2SVP td=(nstates=5)
 -----------------------------------

 --------------------------------
 TDDFT excited states in gaussian
 --------------------------------
 Symbolic Z-matrix:
 Charge =  0 Multiplicity = 1

                         Standard orientation:
 ---------------------------------------------------------------------
 Center     Atomic      Atomic             Coordinates (Angstroms)
 Number     Number       Type             X           Y           Z
 ---------------------------------------------------------------------
      1         12           0       15.780993    0.590033    0.518150
      2          6           0       16.109492   -2.374530   -1.460656
      3          6           0       16.593971    2.367831   -2.278556
      4          6           0       15.942381    3.178736    2.342757
      5          6           0       16.115099   -1.431977    3.336928
      6          7           0       16.266345   -0.037232   -1.548639
      7          6           0       16.298945   -1.199964   -2.192194
      8          6           0       16.478537   -1.048793   -3.732410
      9          6           0       17.174285    0.385383   -3.765155
     10          6           0       16.618331    0.954644   -2.471795
     11          6           0       18.695012    0.327306   -3.662595
     12          6           0       15.109612   -1.038934   -4.492463
     13          6           0       15.203439   -1.223012   -6.009917
     14          1           0       14.159358   -1.974436   -6.690068
     15          7           0       15.725158    2.504457    0.033682
     16          6           0       16.076555    3.049405   -1.155788
     17          6           0       15.857639    4.505315   -1.017648
     18          6           0       15.531253    4.783058    0.408685
     19          6           0       15.748383    3.486670    0.998269
     20          6           0       15.917330    5.459429   -2.170840
     21          6           0       15.103323    6.022915    1.128243
     22          8           0       15.096759    6.100750    2.404359
     23          6           0       14.772129    7.188489    0.288725
     24          7           0       16.216578    0.877871    2.539301
     25          6           0       16.160334    2.095123    3.090770
     26          6           0       16.230247    2.020344    4.587253
     27          6           0       16.101301    0.472798    4.959042
     28          6           0       16.059359   -0.111601    3.525519
     29          6           0       17.501577    2.594774    5.227379
     30          6           0       14.976795    0.078841    5.949348
     31          6           0       13.625957    0.300842    5.306657
     32          7           0       15.885635   -1.541598    0.913430
     33          6           0       16.047424   -2.160770    2.161278
     34          6           0       16.170887   -3.608807    1.912251
     35          6           0       16.088419   -3.730568    0.526532
     36          6           0       15.950212   -2.437945   -0.055117
     37          6           0       16.393572   -4.608286    2.900121
     38          6           0       16.109640   -4.649806   -0.599705
     39          8           0       16.110072   -5.875942   -0.718375
     40          6           0       16.246545   -3.798713   -1.938632
     41          6           0       15.222559   -4.315275   -2.912247
     42          8           0       14.002441   -4.166793   -2.696303
     43          8           0       15.835402   -4.686404   -4.046808
     44          6           0       14.872375   -5.181338   -5.066501
     45          1           0       17.065539    3.010749   -3.024358
     46          1           0       15.893606    4.035512    3.018030
     47          1           0       16.136997   -2.132494    4.173738
     48          1           0       17.133875   -1.790991   -4.188587
     49          1           0       16.840721    0.980195   -4.615246
     50          1           0       19.041871   -0.684602   -3.453666
     51          1           0       18.957215    0.996476   -2.842867
     52          1           0       19.159764    0.749163   -4.554121
     53          1           0       14.683910   -0.036290   -4.453174
     54          1           0       14.433636   -1.788486   -4.079482
     55          1           0       16.188713   -1.582924   -6.307585
     56          1           0       15.120216   -0.242445   -6.478704
     57          1           0       16.340210    4.989545   -3.057929
     58          1           0       16.635666    6.234908   -1.905630
     59          1           0       14.947884    5.912165   -2.379494
     60          1           0       15.640346    7.456396   -0.313748
     61          1           0       14.401959    7.954075    0.969682
     62          1           0       13.987058    6.906265   -0.413387
     63          1           0       15.407124    2.567473    5.045014
     64          1           0       17.009971    0.086042    5.421008
     65          1           0       17.307258    3.378685    5.959792
     66          1           0       18.146962    2.957732    4.427986
     67          1           0       18.144783    1.857692    5.707392
     68          1           0       15.016514    0.707965    6.837926
     69          1           0       15.034832   -0.959697    6.275419
     70          1           0       13.445691    1.361321    5.479054
     71          1           0       12.866535   -0.309045    5.797094
     72          1           0       13.668473    0.148683    4.227989
     73          1           0       15.728680   -5.435610    2.652285
     74          1           0       16.194847   -4.226651    3.901353
     75          1           0       17.449743   -4.821951    2.736700
     76          1           0       17.264307   -3.943708   -2.299546
     77          1           0       15.194095   -6.182825   -5.352426
     78          1           0       14.829718   -4.421477   -5.847012
     79          1           0       13.859733   -5.382890   -4.715401
     80         12           0      -15.951135   -0.683582    0.422393
     81          6           0      -15.846986    2.031497   -1.922084
     82          6           0      -15.172295    1.580786    2.851517
     83          6           0      -15.592119   -3.112290    2.432353
     84          6           0      -15.587718   -2.850542   -2.282764
     85          7           0      -15.582658    1.496148    0.350051
     86          6           0      -15.631330    2.431244   -0.586746
     87          6           0      -15.517932    3.884042   -0.051869
     88          6           0      -14.749403    3.574506    1.323788
     89          6           0      -15.220259    2.139192    1.549221
     90          6           0      -13.236715    3.563738    1.178818
     91          6           0      -16.921038    4.536441    0.208258
     92          6           0      -16.894581    6.049583    0.435098
     93          1           0      -18.007704    6.848645   -0.069801
     94          7           0      -15.939846   -0.717562    2.406656
     95          6           0      -15.620328    0.297936    3.236090
     96          6           0      -15.747659   -0.240626    4.599134
     97          6           0      -16.008432   -1.702661    4.503361
     98          6           0      -15.832397   -1.909124    3.079815
     99          6           0      -15.700650    0.625803    5.824081
    100          6           0      -16.346136   -2.745112    5.525830
    101          8           0      -16.295701   -3.996574    5.253569
    102          6           0      -16.646954   -2.260950    6.881044
    103          7           0      -15.424217   -2.675761    0.146834
    104          6           0      -15.393186   -3.532313    1.182823
    105          6           0      -15.259691   -4.959257    0.707000
    106          6           0      -15.451554   -4.902772   -0.879687
    107          6           0      -15.579556   -3.374796   -1.064874
    108          6           0      -13.935552   -5.648769    1.035038
    109          6           0      -16.550762   -5.815797   -1.488620
    110          6           0      -17.917480   -5.339763   -1.051728
    111          7           0      -15.936489   -0.495688   -1.729932
    112          6           0      -15.744116   -1.527235   -2.674924
    113          6           0      -15.701247   -0.893418   -4.008651
    114          6           0      -15.849776    0.476227   -3.743093
    115          6           0      -15.956039    0.683468   -2.341218
    116          6           0      -15.494828   -1.568921   -5.244457
    117          6           0      -15.930169    1.794834   -4.329174
    118          8           0      -15.986247    2.233171   -5.477409
    119          6           0      -15.805047    2.872595   -3.167632
    120          6           0      -16.893449    3.892610   -3.361219
    121          8           0      -18.089053    3.571217   -3.243625
    122          8           0      -16.341211    5.117192   -3.437400
    123          6           0      -17.381895    6.164100   -3.618507
    124          1           0      -14.709351    2.162857    3.648874
    125          1           0      -15.570440   -3.996609    3.073438
    126          1           0      -15.575577   -3.467352   -3.183915
    127          1           0      -14.924902    4.549742   -0.667430
    128          1           0      -15.098325    4.220574    2.125173
    129          1           0      -12.930262    3.649525    0.146894
    130          1           0      -12.908140    2.619907    1.593857
    131          1           0      -12.792236    4.340526    1.807598
    132          1           0      -17.293609    4.206286    1.186482
    133          1           0      -17.603314    4.301926   -0.585553
    134          1           0      -15.936777    6.494147    0.138579
    135          1           0      -16.957655    6.240615    1.509124
    136          1           0      -15.332104    1.632381    5.590914
    137          1           0      -14.936560    0.203240    6.485505
    138          1           0      -16.653394    0.653584    6.357171
    139          1           0      -15.795055   -1.703175    7.262644
    140          1           0      -16.951183   -3.144164    7.446069
    141          1           0      -17.484053   -1.556302    6.823026
    142          1           0      -16.035929   -5.583135    1.132846
    143          1           0      -14.538614   -5.208400   -1.411634
    144          1           0      -14.061782   -6.584153    1.612253
    145          1           0      -13.311407   -4.949652    1.575598
    146          1           0      -13.316284   -5.893088    0.173628
    147          1           0      -16.444033   -6.837366   -1.115594
    148          1           0      -16.521045   -5.863812   -2.572041
    149          1           0      -18.033741   -5.796205   -0.064193
    150          1           0      -18.683395   -5.689667   -1.740924
    151          1           0      -17.930510   -4.252104   -0.915756
    152          1           0      -16.201244   -1.151156   -5.949407
    153          1           0      -15.627322   -2.643490   -5.137158
    154          1           0      -14.453231   -1.301395   -5.441363
    155          1           0      -14.811106    3.316129   -3.237946
    156          1           0      -17.117659    6.724578   -4.520568
    157          1           0      -17.409102    6.726202   -2.666113
    158          1           0      -18.386151    5.836036   -3.859930
 ---------------------------------------------------------------------

 SCF Done:  E(RCAM-B3LYP) =  -4069.81178419     A.U. after   19 cycles

 Excitation energies and oscillator strengths:

 Excited State   1:      Singlet-A      1.6755 eV  739.96 nm  f=0.3745  <S**2>=0.000
     310 -> 316        0.17318
     312 -> 313        0.68431
     310 <- 316        0.10438
 This state for optimization and/or second-order correction.
 Total Energy, E(TD-HF/TD-DFT) =  -4069.75020906
 Copying the excited state density for this state as the 1-particle RhoCI density.

 Excited State   2:      Singlet-A      1.6799 eV  738.06 nm  f=0.4018  <S**2>=0.000
     309 -> 315        0.17509
     311 -> 314        0.68396
     309 <- 315        0.10485

 Excited State   3:      Singlet-A      2.1861 eV  567.15 nm  f=0.1017  <S**2>=0.000
     310 -> 313        0.64244
     312 -> 316       -0.27310

 Excited State   4:      Singlet-A      2.1925 eV  565.49 nm  f=0.0992  <S**2>=0.000
     309 -> 314        0.64066
     311 -> 315       -0.27825

 Excited State   5:      Singlet-A      3.0656 eV  404.43 nm  f=0.0000  <S**2>=0.000
     311 -> 313        0.70711

 The electronic state is 1-A.
 Alpha  occ. eigenvalues --  -46.87796 -46.87661 -19.26355 -19.26279 -19.19166
 Alpha  occ. eigenvalues --  -19.19015 -19.18816 -19.18712 -19.18168 -19.18054
 Alpha  occ. eigenvalues --  -14.42498 -14.42449 -14.41449 -14.41359 -14.39402
 Alpha  occ. eigenvalues --  -14.39352 -14.38601 -14.38586 -10.39095 -10.39075
 Alpha  occ. eigenvalues --  -10.35449 -10.35390 -10.34388 -10.34231 -10.31763
 Alpha  occ. eigenvalues --  -10.31672 -10.31403 -10.31310 -10.31024 -10.30907
 Alpha  occ. eigenvalues --  -10.30569 -10.30507 -10.30398 -10.30362 -10.30207
 Alpha  occ. eigenvalues --  -10.30140 -10.29921 -10.29895 -10.29630 -10.29436
 Alpha  occ. eigenvalues --  -10.29401 -10.29254 -10.28745 -10.28721 -10.28658
 Alpha  occ. eigenvalues --  -10.28530 -10.28405 -10.28364 -10.28142 -10.28113
 Alpha  occ. eigenvalues --  -10.28002 -10.27792 -10.27726 -10.27670 -10.27584
 Alpha  occ. eigenvalues --  -10.27516 -10.27504 -10.27484 -10.27480 -10.27467
 Alpha  occ. eigenvalues --  -10.27464 -10.27452 -10.27402 -10.27373 -10.27155
 Alpha  occ. eigenvalues --  -10.27053 -10.26699 -10.26696 -10.26412 -10.26411
 Alpha  occ. eigenvalues --  -10.26230 -10.26188 -10.26136 -10.26026 -10.26019
 Alpha  occ. eigenvalues --  -10.25934 -10.25853 -10.25844 -10.25439 -10.25392
 Alpha  occ. eigenvalues --  -10.24874 -10.24832 -10.24788 -10.24730 -10.24692
 Alpha  occ. eigenvalues --  -10.24690  -3.16539  -3.16411  -1.91420  -1.91293
 Alpha  occ. eigenvalues --   -1.91007  -1.90882  -1.90849  -1.90718  -1.16649
 Alpha  occ. eigenvalues --   -1.16628  -1.08662  -1.08625  -1.07217  -1.06965
 Alpha  occ. eigenvalues --   -1.06950  -1.06638  -1.04580  -1.04496  -1.03760
 Alpha  occ. eigenvalues --   -1.03663  -1.03233  -1.03039  -1.02411  -1.02112
 Alpha  occ. eigenvalues --   -0.91989  -0.91971  -0.89521  -0.89494  -0.89184
 Alpha  occ. eigenvalues --   -0.89153  -0.88288  -0.88219  -0.87870  -0.87795
 Alpha  occ. eigenvalues --   -0.87685  -0.87671  -0.87273  -0.87119  -0.85001
 Alpha  occ. eigenvalues --   -0.84979  -0.83938  -0.83875  -0.82968  -0.82930
 Alpha  occ. eigenvalues --   -0.82653  -0.82646  -0.81599  -0.81583  -0.80595
 Alpha  occ. eigenvalues --   -0.80444  -0.78796  -0.78636  -0.77218  -0.77145
 Alpha  occ. eigenvalues --   -0.76932  -0.76900  -0.75920  -0.75840  -0.74899
 Alpha  occ. eigenvalues --   -0.74802  -0.72774  -0.72700  -0.71671  -0.71581
 Alpha  occ. eigenvalues --   -0.69910  -0.69756  -0.68871  -0.68828  -0.67640
 Alpha  occ. eigenvalues --   -0.67602  -0.67216  -0.67201  -0.65284  -0.65273
 Alpha  occ. eigenvalues --   -0.64852  -0.64771  -0.64655  -0.64619  -0.64270
 Alpha  occ. eigenvalues --   -0.64203  -0.62295  -0.62281  -0.60442  -0.60339
 Alpha  occ. eigenvalues --   -0.59802  -0.59798  -0.58993  -0.58987  -0.58503
 Alpha  occ. eigenvalues --   -0.58426  -0.57582  -0.57557  -0.57309  -0.57237
 Alpha  occ. eigenvalues --   -0.56309  -0.56205  -0.55974  -0.55889  -0.55519
 Alpha  occ. eigenvalues --   -0.55453  -0.55340  -0.55248  -0.54522  -0.54489
 Alpha  occ. eigenvalues --   -0.53914  -0.53891  -0.53298  -0.53228  -0.53220
 Alpha  occ. eigenvalues --   -0.53143  -0.52913  -0.52904  -0.52755  -0.52667
 Alpha  occ. eigenvalues --   -0.52441  -0.52400  -0.51914  -0.51887  -0.51660
 Alpha  occ. eigenvalues --   -0.51614  -0.51203  -0.51195  -0.50572  -0.50474
 Alpha  occ. eigenvalues --   -0.50033  -0.49980  -0.49918  -0.49866  -0.49513
 Alpha  occ. eigenvalues --   -0.49488  -0.49213  -0.49204  -0.49106  -0.49093
 Alpha  occ. eigenvalues --   -0.48591  -0.48560  -0.48462  -0.48444  -0.48375
 Alpha  occ. eigenvalues --   -0.48338  -0.47693  -0.47595  -0.47296  -0.47118
 Alpha  occ. eigenvalues --   -0.46796  -0.46710  -0.46555  -0.46552  -0.46359
 Alpha  occ. eigenvalues --   -0.46271  -0.46162  -0.46086  -0.45825  -0.45820
 Alpha  occ. eigenvalues --   -0.45207  -0.45202  -0.44576  -0.44516  -0.44506
 Alpha  occ. eigenvalues --   -0.44477  -0.44145  -0.44128  -0.44086  -0.44078
 Alpha  occ. eigenvalues --   -0.44018  -0.43940  -0.43556  -0.43492  -0.43387
 Alpha  occ. eigenvalues --   -0.43384  -0.43026  -0.42933  -0.42903  -0.42697
 Alpha  occ. eigenvalues --   -0.42655  -0.42553  -0.42009  -0.41965  -0.41703
 Alpha  occ. eigenvalues --   -0.41671  -0.41531  -0.41460  -0.41140  -0.40990
 Alpha  occ. eigenvalues --   -0.40867  -0.40823  -0.40722  -0.40699  -0.40572
 Alpha  occ. eigenvalues --   -0.40493  -0.40229  -0.40229  -0.39444  -0.39424
 Alpha  occ. eigenvalues --   -0.38470  -0.38349  -0.37744  -0.37656  -0.37321
 Alpha  occ. eigenvalues --   -0.37266  -0.37261  -0.37201  -0.36775  -0.36710
 Alpha  occ. eigenvalues --   -0.36218  -0.36191  -0.34285  -0.34254  -0.33866
 Alpha  occ. eigenvalues --   -0.33767  -0.33185  -0.33176  -0.31346  -0.31271
 Alpha  occ. eigenvalues --   -0.31035  -0.30973  -0.30027  -0.29959  -0.29449
 Alpha  occ. eigenvalues --   -0.29327  -0.29321  -0.29213  -0.24080  -0.24037
 Alpha  occ. eigenvalues --   -0.21127  -0.21117
 Alpha virt. eigenvalues --   -0.08792  -0.08774  -0.01749  -0.01684  -0.00057
 Alpha virt. eigenvalues --   -0.00029   0.02201   0.02206   0.03120   0.03227
 Alpha virt. eigenvalues --    0.04720   0.04729   0.05102   0.05161   0.06180

 Mulliken charges:
               1
     1  Mg   0.838666
     2  C   -0.002946
     3  C   -0.094085
     4  C   -0.045893
     5  C   -0.063969
     6  N   -0.256778
     7  C   -0.052455
     8  C   -0.014009
     9  C   -0.087008
    10  C    0.046331
    11  C    0.104809
    12  C    0.053455
    13  C   -0.071834
    14  H    0.036199
    15  N   -0.433132
    16  C    0.168413
    17  C   -0.177134
    18  C   -0.004021
    19  C    0.148726
    20  C    0.110167
    21  C    0.012283
    22  O   -0.249671
    23  C    0.062475
    24  N   -0.341114
    25  C    0.041252
    26  C   -0.028175
    27  C   -0.023953
    28  C    0.074825
    29  C    0.076176
    30  C    0.035128
    31  C   -0.004489
    32  N   -0.310465
    33  C    0.080402
    34  C   -0.169723
    35  C    0.008358
    36  C    0.082990
    37  C    0.127315
    38  C    0.046119
    39  O   -0.188428
    40  C   -0.005348
    41  C    0.212898
    42  O   -0.257105
    43  O   -0.304802
    44  C    0.157686
    45  H   -0.017576
    46  H   -0.016870
    47  H   -0.041519
    48  H    0.000953
    49  H   -0.003994
    50  H    0.025476
    51  H    0.016431
    52  H    0.016687
    53  H    0.011216
    54  H    0.044126
    55  H    0.017873
    56  H    0.017978
    57  H    0.005909
    58  H    0.026826
    59  H    0.039576
    60  H    0.037365
    61  H    0.035614
    62  H    0.031521
    63  H    0.016516
    64  H    0.009451
    65  H    0.023176
    66  H    0.012563
    67  H    0.004745
    68  H    0.006324
    69  H    0.004722
    70  H    0.008748
    71  H    0.018102
    72  H    0.029016
    73  H    0.047566
    74  H    0.009084
    75  H    0.046010
    76  H    0.035164
    77  H    0.042957
    78  H    0.046429
    79  H    0.053699
    80  Mg   0.837882
    81  C   -0.016836
    82  C   -0.087780
    83  C   -0.045478
    84  C   -0.064868
    85  N   -0.254574
    86  C   -0.049862
    87  C   -0.015108
    88  C   -0.090497
    89  C    0.045748
    90  C    0.114371
    91  C    0.062543
    92  C   -0.077894
    93  H    0.034875
    94  N   -0.423515
    95  C    0.162931
    96  C   -0.174589
    97  C   -0.007771
    98  C    0.152128
    99  C    0.099346
   100  C    0.015591
   101  O   -0.253127
   102  C    0.061182
   103  N   -0.350046
   104  C    0.037534
   105  C   -0.019860
   106  C   -0.034810
   107  C    0.088902
   108  C    0.073625
   109  C    0.034735
   110  C   -0.007686
   111  N   -0.324105
   112  C    0.078441
   113  C   -0.163139
   114  C    0.002215
   115  C    0.096201
   116  C    0.131492
   117  C    0.042365
   118  O   -0.187926
   119  C    0.000900
   120  C    0.211252
   121  O   -0.251010
   122  O   -0.305636
   123  C    0.152036
   124  H   -0.019623
   125  H   -0.015518
   126  H   -0.040446
   127  H   -0.000667
   128  H   -0.004320
   129  H    0.022448
   130  H    0.014470
   131  H    0.016302
   132  H    0.013925
   133  H    0.037664
   134  H    0.020778
   135  H    0.019606
   136  H    0.008771
   137  H    0.026212
   138  H    0.039813
   139  H    0.038288
   140  H    0.036438
   141  H    0.033886
   142  H    0.014415
   143  H    0.012461
   144  H    0.025199
   145  H    0.011680
   146  H    0.005736
   147  H    0.006308
   148  H    0.003644
   149  H    0.010949
   150  H    0.017924
   151  H    0.030079
   152  H    0.045975
   153  H    0.008524
   154  H    0.046941
   155  H    0.035012
   156  H    0.043876
   157  H    0.049500
   158  H    0.053574
 Sum of Mulliken charges =  -0.00000

 Dipole moment (field-independent basis, Debye):
    X=              3.7989    Y=              4.9775    Z=              1.4023  Tot=              6.4166
 Quadrupole moment (field-independent basis, Debye-Ang):
   XX=           -518.0834   YY=           -513.2984   ZZ=           -485.4806
   XY=             31.2751   XZ=           -101.7040   YZ=             12.9469

 Normal termination of Gaussian 16 at Sat Sep  4 18:51:35 2021.
