 Gaussian 16, Revision A.03,
 Gaussian 16:  ES64L-G16RevA.03 25-Dec-2016

 -----------------------------------
 #p cam-b3lyp/Def2SVP td=(nstates=5)
 -----------------------------------

 --------------------------------
 TDDFT excited states in gaussian
 --------------------------------
 Symbolic Z-matrix:
 Charge =  0 Multiplicity = 1

                         Standard orientation:
 ---------------------------------------------------------------------
 Center     Atomic      Atomic             Coordinates (Angstroms)
 Number     Number       Type             X           Y           Z
 ---------------------------------------------------------------------
      1         12           0      -15.785128    0.537441   -0.583216
      2          6           0      -16.046324   -2.350765    1.514940
      3          6           0      -16.758474    2.396379    2.107511
      4          6           0      -16.001719    3.035499   -2.524714
      5          6           0      -15.946129   -1.616878   -3.317929
      6          7           0      -16.305895   -0.021062    1.494649
      7          6           0      -16.308191   -1.155302    2.187948
      8          6           0      -16.540961   -0.946020    3.714183
      9          6           0      -17.298260    0.456091    3.663390
     10          6           0      -16.728074    0.993131    2.362467
     11          6           0      -18.811264    0.326515    3.520097
     12          6           0      -15.197521   -0.842960    4.511854
     13          6           0      -15.329572   -0.965480    6.032678
     14          1           0      -14.275436   -1.640046    6.775043
     15          7           0      -15.826251    2.471550   -0.182741
     16          6           0      -16.236789    3.051160    0.970860
     17          6           0      -16.076414    4.508020    0.774591
     18          6           0      -15.718922    4.738226   -0.652749
     19          6           0      -15.862176    3.409322   -1.190214
     20          6           0      -16.212095    5.507344    1.882151
     21          6           0      -15.322835    5.963639   -1.414072
     22          8           0      -15.280724    5.986656   -2.691675
     23          6           0      -15.067682    7.177782   -0.617959
     24          7           0      -16.170854    0.718438   -2.626765
     25          6           0      -16.150093    1.912104   -3.229850
     26          6           0      -16.171090    1.769929   -4.722929
     27          6           0      -15.964612    0.215017   -5.021875
     28          6           0      -15.941354   -0.304676   -3.563229
     29          6           0      -17.445788    2.259521   -5.423968
     30          6           0      -14.794584   -0.171153   -5.961197
     31          6           0      -13.474728    0.137790   -5.290651
     32          7           0      -15.786145   -1.611776   -0.886387
     33          6           0      -15.883120   -2.290659   -2.109656
     34          6           0      -15.951891   -3.730667   -1.800277
     35          6           0      -15.906550   -3.788872   -0.408730
     36          6           0      -15.841706   -2.467555    0.118723
     37          6           0      -16.101289   -4.780626   -2.748802
     38          6           0      -15.922638   -4.658791    0.756104
     39          8           0      -15.874094   -5.877499    0.928982
     40          6           0      -16.136667   -3.757705    2.051505
     41          6           0      -15.121617   -4.186106    3.075934
     42          8           0      -13.902977   -3.993296    2.888567
     43          8           0      -15.752272   -4.534743    4.207865
     44          6           0      -14.800429   -4.942266    5.275607
     45          1           0      -17.279696    3.049356    2.810283
     46          1           0      -15.969180    3.863715   -3.235656
     47          1           0      -15.912446   -2.353067   -4.123127
     48          1           0      -17.177461   -1.696114    4.183920
     49          1           0      -17.016581    1.101121    4.495445
     50          1           0      -19.107871   -0.707790    3.346432
     51          1           0      -19.076822    0.947520    2.664337
     52          1           0      -19.320639    0.765429    4.378390
     53          1           0      -14.814218    0.174891    4.440311
     54          1           0      -14.477744   -1.579002    4.152009
     55          1           0      -16.307116   -1.355421    6.317743
     56          1           0      -15.302812    0.037086    6.459697
     57          1           0      -16.641272    5.057876    2.776763
     58          1           0      -16.954615    6.238184    1.562390
     59          1           0      -15.269771    6.011039    2.098133
     60          1           0      -15.964550    7.432764   -0.053015
     61          1           0      -14.710109    7.928938   -1.321347
     62          1           0      -14.292992    6.961023    0.118126
     63          1           0      -15.358624    2.332670   -5.180802
     64          1           0      -16.841355   -0.231047   -5.492006
     65          1           0      -17.263040    3.018982   -6.184579
     66          1           0      -18.130212    2.627700   -4.660228
     67          1           0      -18.041858    1.474751   -5.888998
     68          1           0      -14.834150    0.416747   -6.877577
     69          1           0      -14.798056   -1.224320   -6.242407
     70          1           0      -13.334944    1.196789   -5.504694
     71          1           0      -12.675250   -0.458501   -5.731654
     72          1           0      -13.543534    0.030499   -4.207950
     73          1           0      -15.409385   -5.566322   -2.445616
     74          1           0      -15.888693   -4.434059   -3.759888
     75          1           0      -17.151813   -5.033513   -2.606309
     76          1           0      -17.157800   -3.931849    2.389266
     77          1           0      -15.087461   -5.943746    5.596362
     78          1           0      -14.814212   -4.148354    6.022547
     79          1           0      -13.769843   -5.113811    4.962870
     80         12           0       15.954536    0.659164    0.483438
     81          6           0       15.842079   -1.924442   -2.004811
     82          6           0       15.010227   -1.698894    2.759926
     83          6           0       15.606711    2.991267    2.606584
     84          6           0       15.764704    2.975950   -2.113125
     85          7           0       15.513938   -1.498989    0.282183
     86          6           0       15.564344   -2.385135   -0.700946
     87          6           0       15.381513   -3.858742   -0.248607
     88          6           0       14.574621   -3.593584    1.114282
     89          6           0       15.086215   -2.190047    1.432110
     90          6           0       13.069483   -3.520249    0.918020
     91          6           0       16.750895   -4.574425    0.024545
     92          6           0       16.664004   -6.095367    0.169252
     93          1           0       17.766514   -6.906992   -0.338889
     94          7           0       15.872300    0.590066    2.465115
     95          6           0       15.487986   -0.454983    3.227638
     96          6           0       15.584188    0.006817    4.621071
     97          6           0       15.898567    1.461404    4.612524
     98          6           0       15.781630    1.748049    3.196810
     99          6           0       15.462815   -0.919996    5.795679
    100          6           0       16.234652    2.436168    5.700210
    101          8           0       16.237349    3.701129    5.493560
    102          6           0       16.469111    1.871416    7.037218
    103          7           0       15.507047    2.680843    0.296594
    104          6           0       15.467942    3.482798    1.375144
    105          6           0       15.401163    4.936513    0.971843
    106          6           0       15.648508    4.955867   -0.608035
    107          6           0       15.730361    3.435974   -0.870002
    108          6           0       14.090542    5.655702    1.290350
    109          6           0       16.799986    5.858789   -1.129101
    110          6           0       18.132674    5.311235   -0.671382
    111          7           0       16.011671    0.584362   -1.675083
    112          6           0       15.889498    1.670072   -2.569727
    113          6           0       15.873299    1.108606   -3.936082
    114          6           0       15.964725   -0.277509   -3.739039
    115          6           0       16.012734   -0.561264   -2.347394
    116          6           0       15.735375    1.854667   -5.140449
    117          6           0       16.020834   -1.565833   -4.391540
    118          8           0       16.103450   -1.945476   -5.558920
    119          6           0       15.816453   -2.697406   -3.294191
    120          6           0       16.875317   -3.744862   -3.504303
    121          8           0       18.076240   -3.473735   -3.328551
    122          8           0       16.284288   -4.942907   -3.664733
    123          6           0       17.294130   -6.016108   -3.865456
    124          1           0       14.498799   -2.304500    3.508640
    125          1           0       15.592265    3.841166    3.292832
    126          1           0       15.806626    3.638924   -2.979954
    127          1           0       14.788641   -4.469453   -0.918914
    128          1           0       14.871668   -4.292801    1.891595
    129          1           0       12.797961   -3.540931   -0.126958
    130          1           0       12.758795   -2.588005    1.371270
    131          1           0       12.575887   -4.312076    1.488747
    132          1           0       17.098824   -4.309480    1.031267
    133          1           0       17.469257   -4.323834   -0.731619
    134          1           0       15.702850   -6.488733   -0.183422
    135          1           0       16.681366   -6.344279    1.233091
    136          1           0       15.068474   -1.898979    5.496542
    137          1           0       14.690224   -0.504965    6.451962
    138          1           0       16.394012   -1.010158    6.359064
    139          1           0       15.585164    1.325872    7.358895
    140          1           0       16.782893    2.712321    7.658741
    141          1           0       17.282943    1.140762    6.970578
    142          1           0       16.182460    5.508697    1.456896
    143          1           0       14.766606    5.321810   -1.154086
    144          1           0       14.227913    6.554520    1.920686
    145          1           0       13.423403    4.952527    1.770995
    146          1           0       13.511809    5.966954    0.422371
    147          1           0       16.715074    6.862732   -0.705983
    148          1           0       16.811346    5.964260   -2.208801
    149          1           0       18.228638    5.711048    0.342539
    150          1           0       18.934753    5.668492   -1.314095
    151          1           0       18.103209    4.218212   -0.593285
    152          1           0       16.452116    1.448788   -5.841916
    153          1           0       15.900887    2.916642   -4.971433
    154          1           0       14.693013    1.635828   -5.387142
    155          1           0       14.811015   -3.100209   -3.422316
    156          1           0       17.043676   -6.518832   -4.804731
    157          1           0       17.267275   -6.627698   -2.944061
    158          1           0       18.317223   -5.712653   -4.054253
 ---------------------------------------------------------------------

 SCF Done:  E(RCAM-B3LYP) =  -4069.81178088     A.U. after   19 cycles

 Excitation energies and oscillator strengths:

 Excited State   1:      Singlet-A      1.6756 eV  739.95 nm  f=0.3833  <S**2>=0.000
     310 -> 316        0.17339
     312 -> 313        0.68530
     310 <- 316        0.10450
 This state for optimization and/or second-order correction.
 Total Energy, E(TD-HF/TD-DFT) =  -4069.75020469
 Copying the excited state density for this state as the 1-particle RhoCI density.

 Excited State   2:      Singlet-A      1.6799 eV  738.07 nm  f=0.3930  <S**2>=0.000
     309 -> 315        0.17537
     311 -> 314        0.68495
     309 <- 315        0.10503

 Excited State   3:      Singlet-A      2.1861 eV  567.15 nm  f=0.1021  <S**2>=0.000
     310 -> 313        0.64246
     312 -> 316       -0.27307

 Excited State   4:      Singlet-A      2.1926 eV  565.48 nm  f=0.0989  <S**2>=0.000
     309 -> 314        0.64068
     311 -> 315       -0.27831

 Excited State   5:      Singlet-A      3.0660 eV  404.38 nm  f=0.0000  <S**2>=0.000
     311 -> 313        0.70711

 The electronic state is 1-A.
 Alpha  occ. eigenvalues --  -46.87796 -46.87660 -19.26344 -19.26290 -19.19157
 Alpha  occ. eigenvalues --  -19.19025 -19.18813 -19.18715 -19.18171 -19.18050
 Alpha  occ. eigenvalues --  -14.42496 -14.42450 -14.41449 -14.41359 -14.39403
 Alpha  occ. eigenvalues --  -14.39352 -14.38599 -14.38587 -10.39087 -10.39084
 Alpha  occ. eigenvalues --  -10.35447 -10.35393 -10.34392 -10.34227 -10.31750
 Alpha  occ. eigenvalues --  -10.31687 -10.31406 -10.31307 -10.31021 -10.30909
 Alpha  occ. eigenvalues --  -10.30570 -10.30507 -10.30398 -10.30360 -10.30206
 Alpha  occ. eigenvalues --  -10.30142 -10.29920 -10.29895 -10.29631 -10.29437
 Alpha  occ. eigenvalues --  -10.29401 -10.29254 -10.28751 -10.28714 -10.28647
 Alpha  occ. eigenvalues --  -10.28543 -10.28404 -10.28365 -10.28135 -10.28118
 Alpha  occ. eigenvalues --  -10.28001 -10.27793 -10.27727 -10.27668 -10.27584
 Alpha  occ. eigenvalues --  -10.27521 -10.27499 -10.27483 -10.27480 -10.27467
 Alpha  occ. eigenvalues --  -10.27464 -10.27447 -10.27404 -10.27379 -10.27161
 Alpha  occ. eigenvalues --  -10.27047 -10.26708 -10.26688 -10.26416 -10.26407
 Alpha  occ. eigenvalues --  -10.26235 -10.26181 -10.26142 -10.26019 -10.26017
 Alpha  occ. eigenvalues --  -10.25935 -10.25851 -10.25844 -10.25433 -10.25401
 Alpha  occ. eigenvalues --  -10.24872 -10.24833 -10.24787 -10.24735 -10.24690
 Alpha  occ. eigenvalues --  -10.24684  -3.16539  -3.16410  -1.91421  -1.91292
 Alpha  occ. eigenvalues --   -1.91007  -1.90881  -1.90850  -1.90718  -1.16639
 Alpha  occ. eigenvalues --   -1.16638  -1.08657  -1.08630  -1.07214  -1.06968
 Alpha  occ. eigenvalues --   -1.06941  -1.06647  -1.04581  -1.04494  -1.03760
 Alpha  occ. eigenvalues --   -1.03663  -1.03234  -1.03039  -1.02411  -1.02111
 Alpha  occ. eigenvalues --   -0.91986  -0.91973  -0.89519  -0.89495  -0.89189
 Alpha  occ. eigenvalues --   -0.89147  -0.88286  -0.88222  -0.87871  -0.87793
 Alpha  occ. eigenvalues --   -0.87683  -0.87673  -0.87273  -0.87120  -0.84997
 Alpha  occ. eigenvalues --   -0.84983  -0.83935  -0.83878  -0.82966  -0.82932
 Alpha  occ. eigenvalues --   -0.82650  -0.82649  -0.81594  -0.81588  -0.80597
 Alpha  occ. eigenvalues --   -0.80441  -0.78797  -0.78635  -0.77219  -0.77143
 Alpha  occ. eigenvalues --   -0.76936  -0.76896  -0.75925  -0.75835  -0.74897
 Alpha  occ. eigenvalues --   -0.74804  -0.72774  -0.72699  -0.71672  -0.71580
 Alpha  occ. eigenvalues --   -0.69905  -0.69760  -0.68874  -0.68825  -0.67641
 Alpha  occ. eigenvalues --   -0.67601  -0.67221  -0.67197  -0.65288  -0.65269
 Alpha  occ. eigenvalues --   -0.64855  -0.64769  -0.64652  -0.64622  -0.64269
 Alpha  occ. eigenvalues --   -0.64205  -0.62301  -0.62276  -0.60441  -0.60340
 Alpha  occ. eigenvalues --   -0.59805  -0.59793  -0.58992  -0.58988  -0.58504
 Alpha  occ. eigenvalues --   -0.58425  -0.57587  -0.57552  -0.57309  -0.57237
 Alpha  occ. eigenvalues --   -0.56310  -0.56203  -0.55982  -0.55883  -0.55520
 Alpha  occ. eigenvalues --   -0.55451  -0.55340  -0.55248  -0.54525  -0.54487
 Alpha  occ. eigenvalues --   -0.53908  -0.53896  -0.53299  -0.53227  -0.53223
 Alpha  occ. eigenvalues --   -0.53140  -0.52916  -0.52900  -0.52756  -0.52667
 Alpha  occ. eigenvalues --   -0.52436  -0.52404  -0.51916  -0.51885  -0.51656
 Alpha  occ. eigenvalues --   -0.51618  -0.51200  -0.51197  -0.50571  -0.50475
 Alpha  occ. eigenvalues --   -0.50030  -0.49978  -0.49918  -0.49869  -0.49515
 Alpha  occ. eigenvalues --   -0.49486  -0.49215  -0.49200  -0.49101  -0.49097
 Alpha  occ. eigenvalues --   -0.48594  -0.48556  -0.48460  -0.48446  -0.48377
 Alpha  occ. eigenvalues --   -0.48338  -0.47695  -0.47593  -0.47297  -0.47118
 Alpha  occ. eigenvalues --   -0.46797  -0.46708  -0.46557  -0.46551  -0.46359
 Alpha  occ. eigenvalues --   -0.46270  -0.46163  -0.46086  -0.45824  -0.45821
 Alpha  occ. eigenvalues --   -0.45210  -0.45200  -0.44579  -0.44513  -0.44507
 Alpha  occ. eigenvalues --   -0.44474  -0.44144  -0.44125  -0.44089  -0.44078
 Alpha  occ. eigenvalues --   -0.44020  -0.43938  -0.43551  -0.43497  -0.43386
 Alpha  occ. eigenvalues --   -0.43384  -0.43027  -0.42928  -0.42900  -0.42701
 Alpha  occ. eigenvalues --   -0.42655  -0.42555  -0.42009  -0.41964  -0.41705
 Alpha  occ. eigenvalues --   -0.41668  -0.41535  -0.41457  -0.41141  -0.40988
 Alpha  occ. eigenvalues --   -0.40870  -0.40822  -0.40721  -0.40697  -0.40571
 Alpha  occ. eigenvalues --   -0.40494  -0.40236  -0.40223  -0.39439  -0.39428
 Alpha  occ. eigenvalues --   -0.38468  -0.38351  -0.37750  -0.37650  -0.37320
 Alpha  occ. eigenvalues --   -0.37266  -0.37265  -0.37197  -0.36768  -0.36716
 Alpha  occ. eigenvalues --   -0.36217  -0.36194  -0.34286  -0.34253  -0.33859
 Alpha  occ. eigenvalues --   -0.33774  -0.33187  -0.33175  -0.31343  -0.31274
 Alpha  occ. eigenvalues --   -0.31036  -0.30972  -0.30031  -0.29954  -0.29449
 Alpha  occ. eigenvalues --   -0.29327  -0.29322  -0.29211  -0.24081  -0.24036
 Alpha  occ. eigenvalues --   -0.21128  -0.21116
 Alpha virt. eigenvalues --   -0.08792  -0.08774  -0.01749  -0.01684  -0.00058
 Alpha virt. eigenvalues --   -0.00028   0.02200   0.02208   0.03121   0.03227
 Alpha virt. eigenvalues --    0.04717   0.04732   0.05094   0.05169   0.06174

 Mulliken charges:
               1
     1  Mg   0.838687
     2  C   -0.002976
     3  C   -0.094120
     4  C   -0.045835
     5  C   -0.063954
     6  N   -0.256766
     7  C   -0.052474
     8  C   -0.014015
     9  C   -0.087008
    10  C    0.046315
    11  C    0.104815
    12  C    0.053473
    13  C   -0.071791
    14  H    0.036071
    15  N   -0.433124
    16  C    0.168433
    17  C   -0.177141
    18  C   -0.003987
    19  C    0.148709
    20  C    0.110177
    21  C    0.012299
    22  O   -0.249594
    23  C    0.062463
    24  N   -0.341127
    25  C    0.041240
    26  C   -0.028185
    27  C   -0.023978
    28  C    0.074838
    29  C    0.076166
    30  C    0.035129
    31  C   -0.004509
    32  N   -0.310478
    33  C    0.080408
    34  C   -0.169727
    35  C    0.008337
    36  C    0.082988
    37  C    0.127316
    38  C    0.046104
    39  O   -0.188490
    40  C   -0.005321
    41  C    0.212854
    42  O   -0.257121
    43  O   -0.304787
    44  C    0.157715
    45  H   -0.017596
    46  H   -0.016811
    47  H   -0.041485
    48  H    0.000921
    49  H   -0.004032
    50  H    0.025468
    51  H    0.016462
    52  H    0.016660
    53  H    0.011216
    54  H    0.044097
    55  H    0.017869
    56  H    0.017965
    57  H    0.005872
    58  H    0.026843
    59  H    0.039572
    60  H    0.037352
    61  H    0.035685
    62  H    0.031511
    63  H    0.016580
    64  H    0.009466
    65  H    0.023240
    66  H    0.012543
    67  H    0.004761
    68  H    0.006395
    69  H    0.004729
    70  H    0.008802
    71  H    0.018158
    72  H    0.028959
    73  H    0.047540
    74  H    0.009124
    75  H    0.046003
    76  H    0.035144
    77  H    0.042915
    78  H    0.046402
    79  H    0.053645
    80  Mg   0.837872
    81  C   -0.016816
    82  C   -0.087777
    83  C   -0.045523
    84  C   -0.064893
    85  N   -0.254575
    86  C   -0.049838
    87  C   -0.015079
    88  C   -0.090490
    89  C    0.045754
    90  C    0.114350
    91  C    0.062512
    92  C   -0.077918
    93  H    0.034913
    94  N   -0.423503
    95  C    0.162919
    96  C   -0.174599
    97  C   -0.007812
    98  C    0.152118
    99  C    0.099360
   100  C    0.015559
   101  O   -0.253214
   102  C    0.061194
   103  N   -0.350067
   104  C    0.037532
   105  C   -0.019836
   106  C   -0.034815
   107  C    0.088923
   108  C    0.073654
   109  C    0.034741
   110  C   -0.007680
   111  N   -0.324104
   112  C    0.078456
   113  C   -0.163136
   114  C    0.002253
   115  C    0.096192
   116  C    0.131489
   117  C    0.042386
   118  O   -0.187844
   119  C    0.000916
   120  C    0.211252
   121  O   -0.251039
   122  O   -0.305605
   123  C    0.152028
   124  H   -0.019598
   125  H   -0.015594
   126  H   -0.040470
   127  H   -0.000590
   128  H   -0.004293
   129  H    0.022499
   130  H    0.014428
   131  H    0.016381
   132  H    0.013907
   133  H    0.037661
   134  H    0.020846
   135  H    0.019613
   136  H    0.008808
   137  H    0.026161
   138  H    0.039799
   139  H    0.038269
   140  H    0.036373
   141  H    0.033906
   142  H    0.014382
   143  H    0.012421
   144  H    0.025107
   145  H    0.011662
   146  H    0.005675
   147  H    0.006237
   148  H    0.003647
   149  H    0.010922
   150  H    0.017923
   151  H    0.030122
   152  H    0.046005
   153  H    0.008491
   154  H    0.046974
   155  H    0.035089
   156  H    0.043944
   157  H    0.049520
   158  H    0.053565
 Sum of Mulliken charges =  -0.00000

 Dipole moment (field-independent basis, Debye):
    X=             -4.2039    Y=              1.8842    Z=              5.7310  Tot=              7.3531
 Quadrupole moment (field-independent basis, Debye-Ang):
   XX=           -517.1206   YY=           -508.5563   ZZ=           -490.4062
   XY=            -76.9537   XZ=             22.5938   YZ=             -8.7696

 Normal termination of Gaussian 16 at Sat Sep  4 20:51:13 2021.
