 Gaussian 16, Revision A.03,
 Gaussian 16:  ES64L-G16RevA.03 25-Dec-2016

 -----------------------------------
 #p cam-b3lyp/Def2SVP td=(nstates=5)
 -----------------------------------

 --------------------------------
 TDDFT excited states in gaussian
 --------------------------------
 Symbolic Z-matrix:
 Charge =  0 Multiplicity = 1

                         Standard orientation:
 ---------------------------------------------------------------------
 Center     Atomic      Atomic             Coordinates (Angstroms)
 Number     Number       Type             X           Y           Z
 ---------------------------------------------------------------------
      1         12           0        6.522561   -0.669214    0.475104
      2          6           0        7.000179    1.941060   -1.927095
      3          6           0        7.614706    1.521770    2.852050
      4          6           0        6.542679   -3.081286    2.533776
      5          6           0        6.567447   -2.922307   -2.183320
      6          7           0        7.191977    1.437428    0.354324
      7          6           0        7.271077    2.341713   -0.616852
      8          6           0        7.595903    3.775512   -0.101022
      9          6           0        8.308427    3.393265    1.273094
     10          6           0        7.640488    2.053683    1.528631
     11          6           0        9.812077    3.174838    1.139564
     12          6           0        6.304397    4.627124    0.140846
     13          6           0        6.537779    6.128934    0.329142
     14          1           0        5.553256    7.062065   -0.197478
     15          7           0        6.534798   -0.667432    2.450629
     16          6           0        7.002427    0.315853    3.256706
     17          6           0        6.788620   -0.156273    4.641648
     18          6           0        6.333351   -1.572710    4.574338
     19          6           0        6.479088   -1.842125    3.166661
     20          6           0        6.967245    0.717021    5.845475
     21          6           0        5.854471   -2.534568    5.615315
     22          8           0        5.729322   -3.784962    5.379884
     23          6           0        5.617056   -1.981695    6.961052
     24          7           0        6.770265   -2.729304    0.246396
     25          6           0        6.676891   -3.556029    1.293674
     26          6           0        6.605447   -4.988335    0.853977
     27          6           0        6.424108   -4.955323   -0.732144
     28          6           0        6.509773   -3.424150   -0.947644
     29          6           0        7.817877   -5.859286    1.211002
     30          6           0        5.207248   -5.715511   -1.316768
     31          6           0        3.925242   -5.030946   -0.898520
     32          7           0        6.564719   -0.535781   -1.690874
     33          6           0        6.601647   -1.602286   -2.600752
     34          6           0        6.730905   -1.016666   -3.947752
     35          6           0        6.777172    0.358157   -3.725117
     36          6           0        6.709218    0.613899   -2.325735
     37          6           0        6.848349   -1.744047   -5.164945
     38          6           0        6.893008    1.669496   -4.342231
     39          8           0        6.890178    2.085533   -5.501713
     40          6           0        7.164691    2.740625   -3.195628
     41          6           0        6.230415    3.897513   -3.423763
     42          8           0        4.997260    3.759827   -3.290583
     43          8           0        6.942439    5.030082   -3.527934
     44          6           0        6.073418    6.220771   -3.725967
     45          1           0        8.161562    2.042126    3.640795
     46          1           0        6.440917   -3.939528    3.201236
     47          1           0        6.502655   -3.559735   -3.067029
     48          1           0        8.282341    4.340755   -0.731679
     49          1           0        8.062950    4.096911    2.068296
     50          1           0       10.125953    3.191505    0.095952
     51          1           0       10.004175    2.195946    1.579293
     52          1           0       10.363204    3.890822    1.749812
     53          1           0        5.888672    4.380065    1.117676
     54          1           0        5.583969    4.472234   -0.663093
     55          1           0        7.542315    6.418150    0.019029
     56          1           0        6.510333    6.347635    1.396670
     57          1           0        7.465816    1.651694    5.591786
     58          1           0        7.666625    0.207156    6.507756
     59          1           0        6.026980    0.892337    6.368444
     60          1           0        6.540967   -1.542349    7.337763
     61          1           0        5.193733   -2.794741    7.549784
     62          1           0        4.897944   -1.165520    6.885647
     63          1           0        5.749538   -5.492384    1.300946
     64          1           0        7.280916   -5.386042   -1.250830
     65          1           0        7.565016   -6.741970    1.798910
     66          1           0        8.539512   -5.233636    1.735498
     67          1           0        8.404609   -6.197936    0.357492
     68          1           0        5.170937   -6.731454   -0.924994
     69          1           0        5.222307   -5.779978   -2.404825
     70          1           0        3.742067   -5.442296    0.093483
     71          1           0        3.116124   -5.287613   -1.583108
     72          1           0        4.066817   -3.956032   -0.784494
     73          1           0        6.199940   -1.242902   -5.883546
     74          1           0        6.561206   -2.786909   -5.032314
     75          1           0        7.912606   -1.626617   -5.368474
     76          1           0        8.210014    3.035184   -3.283136
     77          1           0        6.408741    6.714765   -4.637977
     78          1           0        6.112968    6.791086   -2.797753
     79          1           0        5.030049    6.020455   -3.972123
     80         12           0       -6.631757    0.657730    0.425849
     81          6           0       -6.670680   -1.843061   -2.147793
     82          6           0       -7.387291   -1.823652    2.640917
     83          6           0       -7.048399    2.894620    2.637209
     84          6           0       -7.014557    3.046633   -2.082601
     85          7           0       -6.960704   -1.513307    0.160064
     86          6           0       -6.888669   -2.361821   -0.854425
     87          6           0       -6.979894   -3.857595   -0.449584
     88          6           0       -7.763609   -3.682940    0.941163
     89          6           0       -7.320080   -2.264991    1.295253
     90          6           0       -9.275168   -3.685493    0.784605
     91          6           0       -5.567241   -4.506070   -0.235354
     92          6           0       -5.568281   -6.033492   -0.141868
     93          1           0       -4.437495   -6.766062   -0.705035
     94          7           0       -6.657774    0.517665    2.405306
     95          6           0       -6.964993   -0.571883    3.140006
     96          6           0       -6.857007   -0.152616    4.545962
     97          6           0       -6.621723    1.316451    4.580608
     98          6           0       -6.791276    1.643693    3.179088
     99          6           0       -6.897249   -1.123639    5.690035
    100          6           0       -6.309978    2.271031    5.693165
    101          8           0       -6.380825    3.540469    5.530907
    102          6           0       -6.010210    1.675331    7.003426
    103          7           0       -7.192193    2.657042    0.320918
    104          6           0       -7.245902    3.418950    1.427504
    105          6           0       -7.401473    4.879563    1.077097
    106          6           0       -7.197342    4.965510   -0.506745
    107          6           0       -7.040747    3.462035   -0.823665
    108          6           0       -8.740028    5.514862    1.452669
    109          6           0       -6.110310    5.947074   -1.024000
    110          6           0       -4.738452    5.458167   -0.618581
    111          7           0       -6.627717    0.658769   -1.734721
    112          6           0       -6.831751    1.765625   -2.587547
    113          6           0       -6.853797    1.250352   -3.971903
    114          6           0       -6.682721   -0.134516   -3.825798
    115          6           0       -6.582751   -0.461845   -2.446540
    116          6           0       -7.063447    2.027807   -5.145670
    117          6           0       -6.574612   -1.395191   -4.524177
    118          8           0       -6.502539   -1.730281   -5.705804
    119          6           0       -6.688724   -2.572490   -3.462412
    120          6           0       -5.580930   -3.552794   -3.734990
    121          8           0       -4.392115   -3.222437   -3.579409
    122          8           0       -6.110639   -4.775303   -3.922691
    123          6           0       -5.050154   -5.784306   -4.185597
    124          1           0       -7.845422   -2.481146    3.380302
    125          1           0       -7.090434    3.718915    3.352937
    126          1           0       -7.031299    3.739666   -2.926456
    127          1           0       -7.556550   -4.476940   -1.126091
    128          1           0       -7.408921   -4.390589    1.685992
    129          1           0       -9.572692   -3.685860   -0.253483
    130          1           0       -9.623509   -2.787408    1.277696
    131          1           0       -9.710175   -4.521861    1.339214
    132          1           0       -5.207605   -4.256484    0.771187
    133          1           0       -4.883635   -4.191287   -0.999690
    134          1           0       -6.515856   -6.466779   -0.484396
    135          1           0       -5.509455   -6.316705    0.911862
    136          1           0       -7.246086   -2.112120    5.366596
    137          1           0       -7.673445   -0.773786    6.379221
    138          1           0       -5.947983   -1.181615    6.226886
    139          1           0       -6.854703    1.071743    7.327420
    140          1           0       -5.725837    2.510776    7.646097
    141          1           0       -5.160277    0.992948    6.891284
    142          1           0       -6.639565    5.476997    1.562542
    143          1           0       -8.111789    5.300815   -1.017815
    144          1           0       -8.634639    6.398158    2.110503
    145          1           0       -9.355413    4.760496    1.924638
    146          1           0       -9.357407    5.822995    0.610581
    147          1           0       -6.237929    6.930082   -0.564047
    148          1           0       -6.133168    6.089243   -2.099293
    149          1           0       -4.637402    5.828331    0.406036
    150          1           0       -3.974031    5.880165   -1.267903
    151          1           0       -4.706965    4.363171   -0.578098
    152          1           0       -6.344688    1.685563   -5.878308
    153          1           0       -6.950941    3.090980   -4.943712
    154          1           0       -8.098677    1.760703   -5.374209
    155          1           0       -7.674056   -3.025153   -3.579828
    156          1           0       -5.297906   -6.268128   -5.135455
    157          1           0       -5.019700   -6.427083   -3.285776
    158          1           0       -4.050225   -5.419171   -4.388724
 ---------------------------------------------------------------------

 SCF Done:  E(RCAM-B3LYP) =  -4069.81155763     A.U. after   19 cycles

 Excitation energies and oscillator strengths:

 Excited State   1:      Singlet-A      1.6654 eV  744.46 nm  f=0.0088  <S**2>=0.000
     309 -> 315       -0.11050
     310 -> 316        0.13078
     311 -> 313        0.52557
     312 -> 314       -0.44183
 This state for optimization and/or second-order correction.
 Total Energy, E(TD-HF/TD-DFT) =  -4069.75035450
 Copying the excited state density for this state as the 1-particle RhoCI density.

 Excited State   2:      Singlet-A      1.6888 eV  734.15 nm  f=0.7365  <S**2>=0.000
     309 -> 315        0.13600
     310 -> 316        0.11375
     311 -> 313        0.44096
     312 -> 314        0.52439

 Excited State   3:      Singlet-A      2.1846 eV  567.53 nm  f=0.0417  <S**2>=0.000
     309 -> 314        0.20333
     310 -> 313        0.61001
     311 -> 316       -0.25816

 Excited State   4:      Singlet-A      2.1924 eV  565.51 nm  f=0.1482  <S**2>=0.000
     309 -> 314        0.60777
     310 -> 313       -0.20186
     312 -> 315       -0.26427

 Excited State   5:      Singlet-A      2.7060 eV  458.18 nm  f=0.0000  <S**2>=0.000
     312 -> 313        0.70710

 The electronic state is 1-A.
 Alpha  occ. eigenvalues --  -46.87659 -46.87563 -19.26255 -19.26139 -19.19053
 Alpha  occ. eigenvalues --  -19.18863 -19.18721 -19.18652 -19.18023 -19.17948
 Alpha  occ. eigenvalues --  -14.42404 -14.42316 -14.41316 -14.41264 -14.39271
 Alpha  occ. eigenvalues --  -14.39259 -14.38499 -14.38444 -10.38985 -10.38925
 Alpha  occ. eigenvalues --  -10.35358 -10.35331 -10.34243 -10.34125 -10.31675
 Alpha  occ. eigenvalues --  -10.31542 -10.31265 -10.31211 -10.30937 -10.30782
 Alpha  occ. eigenvalues --  -10.30428 -10.30371 -10.30301 -10.30260 -10.30082
 Alpha  occ. eigenvalues --  -10.30053 -10.29797 -10.29784 -10.29497 -10.29347
 Alpha  occ. eigenvalues --  -10.29306 -10.29126 -10.28634 -10.28622 -10.28577
 Alpha  occ. eigenvalues --  -10.28414 -10.28311 -10.28231 -10.28056 -10.27991
 Alpha  occ. eigenvalues --  -10.27905 -10.27657 -10.27595 -10.27577 -10.27457
 Alpha  occ. eigenvalues --  -10.27426 -10.27394 -10.27390 -10.27377 -10.27375
 Alpha  occ. eigenvalues --  -10.27374 -10.27332 -10.27292 -10.27269 -10.27016
 Alpha  occ. eigenvalues --  -10.26953 -10.26603 -10.26572 -10.26379 -10.26347
 Alpha  occ. eigenvalues --  -10.26119 -10.26041 -10.26030 -10.25950 -10.25882
 Alpha  occ. eigenvalues --  -10.25836 -10.25730 -10.25677 -10.25338 -10.25331
 Alpha  occ. eigenvalues --  -10.24774 -10.24693 -10.24659 -10.24599 -10.24599
 Alpha  occ. eigenvalues --  -10.24514  -3.16401  -3.16313  -1.91283  -1.91195
 Alpha  occ. eigenvalues --   -1.90870  -1.90784  -1.90712  -1.90620  -1.16546
 Alpha  occ. eigenvalues --   -1.16485  -1.08554  -1.08478  -1.07125  -1.06906
 Alpha  occ. eigenvalues --   -1.06839  -1.06487  -1.04447  -1.04402  -1.03628
 Alpha  occ. eigenvalues --   -1.03570  -1.03098  -1.02944  -1.02276  -1.02016
 Alpha  occ. eigenvalues --   -0.91891  -0.91834  -0.89397  -0.89384  -0.89064
 Alpha  occ. eigenvalues --   -0.89059  -0.88157  -0.88127  -0.87724  -0.87689
 Alpha  occ. eigenvalues --   -0.87592  -0.87541  -0.87160  -0.87043  -0.84913
 Alpha  occ. eigenvalues --   -0.84855  -0.83803  -0.83780  -0.82866  -0.82862
 Alpha  occ. eigenvalues --   -0.82570  -0.82524  -0.81503  -0.81448  -0.80466
 Alpha  occ. eigenvalues --   -0.80353  -0.78672  -0.78548  -0.77086  -0.77054
 Alpha  occ. eigenvalues --   -0.76809  -0.76803  -0.75791  -0.75750  -0.74773
 Alpha  occ. eigenvalues --   -0.74715  -0.72638  -0.72602  -0.71544  -0.71493
 Alpha  occ. eigenvalues --   -0.69768  -0.69656  -0.68746  -0.68741  -0.67513
 Alpha  occ. eigenvalues --   -0.67512  -0.67119  -0.67098  -0.65182  -0.65154
 Alpha  occ. eigenvalues --   -0.64718  -0.64676  -0.64563  -0.64488  -0.64136
 Alpha  occ. eigenvalues --   -0.64109  -0.62185  -0.62158  -0.60324  -0.60257
 Alpha  occ. eigenvalues --   -0.59707  -0.59673  -0.58899  -0.58854  -0.58370
 Alpha  occ. eigenvalues --   -0.58332  -0.57455  -0.57441  -0.57179  -0.57147
 Alpha  occ. eigenvalues --   -0.56178  -0.56112  -0.55842  -0.55797  -0.55401
 Alpha  occ. eigenvalues --   -0.55371  -0.55204  -0.55153  -0.54392  -0.54385
 Alpha  occ. eigenvalues --   -0.53826  -0.53766  -0.53176  -0.53141  -0.53098
 Alpha  occ. eigenvalues --   -0.53056  -0.52810  -0.52780  -0.52646  -0.52599
 Alpha  occ. eigenvalues --   -0.52295  -0.52295  -0.51773  -0.51760  -0.51576
 Alpha  occ. eigenvalues --   -0.51492  -0.51104  -0.51057  -0.50474  -0.50407
 Alpha  occ. eigenvalues --   -0.49904  -0.49898  -0.49806  -0.49779  -0.49410
 Alpha  occ. eigenvalues --   -0.49395  -0.49114  -0.49084  -0.49015  -0.48967
 Alpha  occ. eigenvalues --   -0.48467  -0.48457  -0.48350  -0.48320  -0.48288
 Alpha  occ. eigenvalues --   -0.48264  -0.47571  -0.47509  -0.47175  -0.47036
 Alpha  occ. eigenvalues --   -0.46662  -0.46615  -0.46469  -0.46429  -0.46225
 Alpha  occ. eigenvalues --   -0.46177  -0.46025  -0.45990  -0.45723  -0.45678
 Alpha  occ. eigenvalues --   -0.45120  -0.45077  -0.44442  -0.44425  -0.44386
 Alpha  occ. eigenvalues --   -0.44385  -0.44041  -0.44013  -0.43984  -0.43965
 Alpha  occ. eigenvalues --   -0.43890  -0.43859  -0.43459  -0.43355  -0.43297
 Alpha  occ. eigenvalues --   -0.43258  -0.42894  -0.42838  -0.42805  -0.42561
 Alpha  occ. eigenvalues --   -0.42512  -0.42459  -0.41869  -0.41865  -0.41574
 Alpha  occ. eigenvalues --   -0.41570  -0.41406  -0.41370  -0.41014  -0.40902
 Alpha  occ. eigenvalues --   -0.40746  -0.40716  -0.40651  -0.40613  -0.40440
 Alpha  occ. eigenvalues --   -0.40400  -0.40147  -0.40109  -0.39321  -0.39299
 Alpha  occ. eigenvalues --   -0.38341  -0.38261  -0.37618  -0.37568  -0.37189
 Alpha  occ. eigenvalues --   -0.37173  -0.37131  -0.37109  -0.36672  -0.36569
 Alpha  occ. eigenvalues --   -0.36123  -0.36055  -0.34157  -0.34149  -0.33756
 Alpha  occ. eigenvalues --   -0.33617  -0.33080  -0.33049  -0.31251  -0.31210
 Alpha  occ. eigenvalues --   -0.30904  -0.30881  -0.29881  -0.29851  -0.29322
 Alpha  occ. eigenvalues --   -0.29238  -0.29180  -0.29111  -0.23945  -0.23941
 Alpha  occ. eigenvalues --   -0.21023  -0.20993
 Alpha virt. eigenvalues --   -0.08699  -0.08642  -0.01620  -0.01593   0.00052
 Alpha virt. eigenvalues --    0.00060   0.02306   0.02340   0.03293   0.03356
 Alpha virt. eigenvalues --    0.04818   0.04849   0.05249   0.05269   0.06263

 Mulliken charges:
               1
     1  Mg   0.839422
     2  C   -0.002814
     3  C   -0.094155
     4  C   -0.045984
     5  C   -0.063708
     6  N   -0.256744
     7  C   -0.052342
     8  C   -0.014051
     9  C   -0.086991
    10  C    0.046284
    11  C    0.104885
    12  C    0.053451
    13  C   -0.071690
    14  H    0.036065
    15  N   -0.433025
    16  C    0.168310
    17  C   -0.177367
    18  C   -0.004312
    19  C    0.148662
    20  C    0.110251
    21  C    0.012003
    22  O   -0.250211
    23  C    0.062601
    24  N   -0.341230
    25  C    0.041259
    26  C   -0.028002
    27  C   -0.024039
    28  C    0.075120
    29  C    0.076322
    30  C    0.035084
    31  C   -0.004463
    32  N   -0.310671
    33  C    0.080932
    34  C   -0.168890
    35  C    0.008514
    36  C    0.083502
    37  C    0.127130
    38  C    0.046607
    39  O   -0.188085
    40  C   -0.005536
    41  C    0.212832
    42  O   -0.256408
    43  O   -0.304977
    44  C    0.157699
    45  H   -0.017912
    46  H   -0.017325
    47  H   -0.041234
    48  H    0.000820
    49  H   -0.004151
    50  H    0.025378
    51  H    0.016325
    52  H    0.016400
    53  H    0.011341
    54  H    0.044461
    55  H    0.017667
    56  H    0.017859
    57  H    0.005820
    58  H    0.026408
    59  H    0.039237
    60  H    0.037324
    61  H    0.034851
    62  H    0.031348
    63  H    0.016205
    64  H    0.009239
    65  H    0.022692
    66  H    0.012410
    67  H    0.004583
    68  H    0.005618
    69  H    0.005051
    70  H    0.007851
    71  H    0.019376
    72  H    0.029747
    73  H    0.048510
    74  H    0.009424
    75  H    0.045668
    76  H    0.034913
    77  H    0.042768
    78  H    0.046171
    79  H    0.053919
    80  Mg   0.838448
    81  C   -0.016691
    82  C   -0.087802
    83  C   -0.045612
    84  C   -0.064719
    85  N   -0.254541
    86  C   -0.049737
    87  C   -0.015150
    88  C   -0.090503
    89  C    0.045712
    90  C    0.114440
    91  C    0.062512
    92  C   -0.077711
    93  H    0.034574
    94  N   -0.423375
    95  C    0.162847
    96  C   -0.174786
    97  C   -0.008077
    98  C    0.152098
    99  C    0.099442
   100  C    0.015331
   101  O   -0.253600
   102  C    0.061305
   103  N   -0.350141
   104  C    0.037520
   105  C   -0.019712
   106  C   -0.034893
   107  C    0.089155
   108  C    0.073791
   109  C    0.034723
   110  C   -0.007684
   111  N   -0.324279
   112  C    0.078903
   113  C   -0.162443
   114  C    0.002364
   115  C    0.096680
   116  C    0.131326
   117  C    0.042862
   118  O   -0.187553
   119  C    0.000699
   120  C    0.211227
   121  O   -0.250367
   122  O   -0.305769
   123  C    0.152091
   124  H   -0.019916
   125  H   -0.015924
   126  H   -0.040210
   127  H   -0.000780
   128  H   -0.004393
   129  H    0.022359
   130  H    0.014330
   131  H    0.016061
   132  H    0.014151
   133  H    0.037941
   134  H    0.020595
   135  H    0.019619
   136  H    0.008735
   137  H    0.025781
   138  H    0.039568
   139  H    0.038220
   140  H    0.035754
   141  H    0.033739
   142  H    0.014199
   143  H    0.012239
   144  H    0.024764
   145  H    0.011484
   146  H    0.005533
   147  H    0.005781
   148  H    0.003926
   149  H    0.010296
   150  H    0.018903
   151  H    0.030655
   152  H    0.046838
   153  H    0.008788
   154  H    0.046638
   155  H    0.034798
   156  H    0.043741
   157  H    0.049222
   158  H    0.053663
 Sum of Mulliken charges =  -0.00000

 Dipole moment (field-independent basis, Debye):
    X=              0.2522    Y=             -0.5716    Z=              7.1430  Tot=              7.1703
 Quadrupole moment (field-independent basis, Debye-Ang):
   XX=           -464.8656   YY=           -460.7422   ZZ=           -539.8740
   XY=             26.1220   XZ=              6.9488   YZ=              2.7501

 Normal termination of Gaussian 16 at Sat Sep 11 07:10:28 2021.
