 Gaussian 16, Revision A.03,
 Gaussian 16:  ES64L-G16RevA.03 25-Dec-2016

 -----------------------------------
 #p cam-b3lyp/Def2SVP td=(nstates=5)
 -----------------------------------

 --------------------------------
 TDDFT excited states in gaussian
 --------------------------------
 Symbolic Z-matrix:
 Charge =  0 Multiplicity = 1

                         Standard orientation:
 ---------------------------------------------------------------------
 Center     Atomic      Atomic             Coordinates (Angstroms)
 Number     Number       Type             X           Y           Z
 ---------------------------------------------------------------------
      1         12           0        5.325330    0.501813    1.204298
      2          6           0        6.005162   -2.416250   -0.754004
      3          6           0        6.774893    2.329048   -1.286293
      4          6           0        5.147744    3.033066    3.106361
      5          6           0        4.983742   -1.606347    3.958321
      6          7           0        6.235625   -0.083558   -0.726854
      7          6           0        6.379367   -1.228642   -1.386620
      8          6           0        6.895517   -1.041027   -2.844620
      9          6           0        7.617047    0.370756   -2.676514
     10          6           0        6.805771    0.921633   -1.517079
     11          6           0        9.076497    0.261761   -2.246829
     12          6           0        5.726886   -0.966974   -3.884114
     13          6           0        6.146047   -1.112223   -5.349912
     14          1           0        5.257825   -1.811262   -6.266293
     15          7           0        5.424606    2.429618    0.784107
     16          6           0        6.041354    2.995599   -0.281058
     17          6           0        5.833829    4.453372   -0.144997
     18          6           0        5.210108    4.702068    1.184369
     19          6           0        5.260538    3.383765    1.763083
     20          6           0        6.168287    5.436401   -1.224599
     21          6           0        4.666033    5.934642    1.834659
     22          8           0        4.382182    5.977601    3.080515
     23          6           0        4.555804    7.132716    0.982890
     24          7           0        5.314875    0.720146    3.280318
     25          6           0        5.169589    1.922978    3.846950
     26          6           0        4.908289    1.804988    5.319274
     27          6           0        4.662577    0.252683    5.601634
     28          6           0        4.920963   -0.290540    4.174603
     29          6           0        6.022529    2.321091    6.240207
     30          6           0        3.339088   -0.132494    6.309046
     31          6           0        2.167687    0.149722    5.395114
     32          7           0        5.287777   -1.642105    1.540822
     33          6           0        5.156974   -2.300097    2.772330
     34          6           0        5.295864   -3.743939    2.507567
     35          6           0        5.515774   -3.824958    1.133915
     36          6           0        5.540496   -2.513133    0.580023
     37          6           0        5.271908   -4.776698    3.485968
     38          6           0        5.760155   -4.713157    0.009087
     39          8           0        5.756026   -5.934974   -0.147882
     40          6           0        6.208028   -3.830407   -1.238307
     41          6           0        5.409505   -4.287375   -2.428623
     42          8           0        4.175795   -4.106313   -2.479056
     43          8           0        6.246439   -4.646452   -3.414090
     44          6           0        5.518004   -5.082476   -4.635327
     45          1           0        7.414164    2.976933   -1.889218
     46          1           0        4.973661    3.872105    3.783226
     47          1           0        4.804451   -2.329903    4.755675
     48          1           0        7.616139   -1.790808   -3.171661
     49          1           0        7.492608    0.998935   -3.558346
     50          1           0        9.343891   -0.765975   -2.001513
     51          1           0        9.169451    0.899547   -1.367579
     52          1           0        9.735518    0.692994   -3.000823
     53          1           0        5.328013    0.047192   -3.904835
     54          1           0        4.958442   -1.705794   -3.653974
     55          1           0        7.163312   -1.494850   -5.437523
     56          1           0        6.191921   -0.117018   -5.792250
     57          1           0        6.763287    4.977880   -2.013446
     58          1           0        6.830214    6.181175   -0.783154
     59          1           0        5.279624    5.925163   -1.624252
     60          1           0        5.541256    7.389427    0.593617
     61          1           0        4.064712    7.890667    1.592142
     62          1           0        3.936718    6.894866    0.117379
     63          1           0        4.018802    2.365140    5.604701
     64          1           0        5.438142   -0.175184    6.237325
     65          1           0        5.692156    3.090370    6.938611
     66          1           0        6.836106    2.685229    5.613479
     67          1           0        6.526480    1.551117    6.823809
     68          1           0        3.198955    0.470437    7.205586
     69          1           0        3.298448   -1.180905    6.604740
     70          1           0        1.980515    1.210247    5.559688
     71          1           0        1.304369   -0.449039    5.687312
     72          1           0        2.441527    0.025948    4.347174
     73          1           0        4.657016   -5.575441    3.071375
     74          1           0        4.868366   -4.416579    4.432050
     75          1           0        6.332578   -5.019136    3.549683
     76          1           0        7.276181   -3.997599   -1.373278
     77          1           0        5.869477   -6.085425   -4.877799
     78          1           0        5.666199   -4.300515   -5.380297
     79          1           0        4.448364   -5.261419   -4.520488
     80         12           0       -4.992960    0.416658   -1.139299
     81          6           0       -7.104335   -1.675186    0.872007
     82          6           0       -7.246564    2.925898   -0.629780
     83          6           0       -3.396448    2.147829   -3.265713
     84          6           0       -3.551028   -2.492835   -2.404743
     85          7           0       -6.890912    0.493327   -0.006088
     86          6           0       -7.561989   -0.344991    0.769305
     87          6           0       -8.747194    0.298498    1.537938
     88          6           0       -9.023444    1.540343    0.557942
     89          6           0       -7.627556    1.692834   -0.042825
     90          6           0       -9.994111    1.216135   -0.565454
     91          6           0       -8.337291    0.780088    2.973924
     92          6           0       -9.508991    1.134595    3.892185
     93          1           0       -9.391003    0.838021    5.317173
     94          7           0       -4.994433    2.374735   -1.462588
     95          6           0       -5.983188    3.246490   -1.173310
     96          6           0       -5.504304    4.562224   -1.624619
     97          6           0       -4.220992    4.369715   -2.353153
     98          6           0       -4.163488    2.922727   -2.407962
     99          6           0       -6.206928    5.844433   -1.284478
    100          6           0       -3.218620    5.329255   -2.919488
    101          8           0       -2.295570    4.943736   -3.720858
    102          6           0       -3.406034    6.747966   -2.582415
    103          7           0       -3.814607   -0.094038   -2.774233
    104          6           0       -3.192911    0.851395   -3.500575
    105          6           0       -2.187994    0.239225   -4.447038
    106          6           0       -2.090654   -1.302192   -4.032169
    107          6           0       -3.169392   -1.335510   -2.927350
    108          6           0       -2.524399    0.345434   -5.934302
    109          6           0       -0.676862   -1.854133   -3.701692
    110          6           0       -0.158028   -1.217594   -2.432427
    111          7           0       -5.123814   -1.697152   -0.711860
    112          6           0       -4.453416   -2.745486   -1.379439
    113          6           0       -4.950397   -4.013797   -0.807757
    114          6           0       -5.899795   -3.612835    0.144268
    115          6           0       -6.002904   -2.195508    0.150293
    116          6           0       -4.557294   -5.320053   -1.214323
    117          6           0       -6.845906   -4.066729    1.138024
    118          8           0       -7.131772   -5.157045    1.631215
    119          6           0       -7.759445   -2.837915    1.564480
    120          6           0       -7.828870   -2.810080    3.066784
    121          8           0       -6.810462   -2.579905    3.742406
    122          8           0       -9.118521   -2.843212    3.448977
    123          6           0       -9.239461   -2.806324    4.930812
    124          1           0       -7.997880    3.710692   -0.721975
    125          1           0       -2.743567    2.701365   -3.944541
    126          1           0       -3.080094   -3.439844   -2.676892
    127          1           0       -9.632249   -0.322164    1.610207
    128          1           0       -9.297379    2.431310    1.116950
    129          1           0      -10.247631    0.166680   -0.588527
    130          1           0       -9.492517    1.504377   -1.479975
    131          1           0      -10.880051    1.853563   -0.493840
    132          1           0       -7.854300    1.762766    2.897739
    133          1           0       -7.708528    0.055496    3.453770
    134          1           0      -10.465277    0.766603    3.500949
    135          1           0       -9.624434    2.221128    3.903713
    136          1           0       -7.209939    5.658677   -0.880903
    137          1           0       -6.387016    6.370470   -2.228247
    138          1           0       -5.616011    6.487400   -0.628675
    139          1           0       -4.386740    7.073194   -2.921404
    140          1           0       -2.542009    7.265146   -3.004136
    141          1           0       -3.399546    6.852214   -1.491675
    142          1           0       -1.214152    0.697731   -4.326634
    143          1           0       -2.444202   -1.963779   -4.836625
    144          1           0       -1.736112    0.848901   -6.525228
    145          1           0       -3.466734    0.867417   -6.034685
    146          1           0       -2.730982   -0.601656   -6.429830
    147          1           0        0.028136   -1.587901   -4.493055
    148          1           0       -0.648612   -2.933391   -3.594908
    149          1           0        0.254938   -0.267310   -2.783890
    150          1           0        0.611763   -1.838935   -1.979223
    151          1           0       -0.979209   -0.985752   -1.744277
    152          1           0       -4.410493   -5.896429   -0.310587
    153          1           0       -3.654219   -5.292838   -1.820531
    154          1           0       -5.434064   -5.615082   -1.796990
    155          1           0       -8.740633   -2.986588    1.112001
    156          1           0       -9.828410   -3.680503    5.225162
    157          1           0       -9.659494   -1.811671    5.171610
    158          1           0       -8.336363   -2.954567    5.511232
 ---------------------------------------------------------------------

 SCF Done:  E(RCAM-B3LYP) =  -4069.81254662     A.U. after   19 cycles

 Excitation energies and oscillator strengths:

 Excited State   1:      Singlet-A      1.6554 eV  748.95 nm  f=0.0058  <S**2>=0.000
     309 -> 315       -0.11177
     310 -> 316        0.12656
     311 -> 313       -0.45300
     312 -> 314        0.51673
 This state for optimization and/or second-order correction.
 Total Energy, E(TD-HF/TD-DFT) =  -4069.75171053
 Copying the excited state density for this state as the 1-particle RhoCI density.

 Excited State   2:      Singlet-A      1.6959 eV  731.10 nm  f=0.7157  <S**2>=0.000
     309 -> 315        0.13522
     310 -> 316        0.11767
     311 -> 313        0.51488
     312 -> 314        0.45141

 Excited State   3:      Singlet-A      2.1831 eV  567.93 nm  f=0.0564  <S**2>=0.000
     309 -> 313        0.19865
     310 -> 314        0.61226
     312 -> 316       -0.25743

 Excited State   4:      Singlet-A      2.1943 eV  565.03 nm  f=0.1337  <S**2>=0.000
     309 -> 313        0.60920
     310 -> 314       -0.19632
     311 -> 315       -0.26593

 Excited State   5:      Singlet-A      2.5524 eV  485.75 nm  f=0.0000  <S**2>=0.000
     312 -> 313        0.70693

 The electronic state is 1-A.
 Alpha  occ. eigenvalues --  -46.87697 -46.87468 -19.26354 -19.26226 -19.19111
 Alpha  occ. eigenvalues --  -19.19027 -19.18709 -19.18606 -19.18109 -19.17885
 Alpha  occ. eigenvalues --  -14.42361 -14.42315 -14.41346 -14.41149 -14.39300
 Alpha  occ. eigenvalues --  -14.39169 -14.38492 -14.38405 -10.39151 -10.38954
 Alpha  occ. eigenvalues --  -10.35341 -10.35288 -10.34335 -10.34063 -10.31768
 Alpha  occ. eigenvalues --  -10.31651 -10.31325 -10.31120 -10.30866 -10.30833
 Alpha  occ. eigenvalues --  -10.30476 -10.30408 -10.30202 -10.30160 -10.30088
 Alpha  occ. eigenvalues --  -10.29920 -10.29819 -10.29675 -10.29530 -10.29253
 Alpha  occ. eigenvalues --  -10.29213 -10.29144 -10.28718 -10.28579 -10.28574
 Alpha  occ. eigenvalues --  -10.28548 -10.28278 -10.28235 -10.28063 -10.27993
 Alpha  occ. eigenvalues --  -10.27819 -10.27693 -10.27632 -10.27487 -10.27480
 Alpha  occ. eigenvalues --  -10.27360 -10.27345 -10.27331 -10.27327 -10.27326
 Alpha  occ. eigenvalues --  -10.27305 -10.27290 -10.27186 -10.27133 -10.27125
 Alpha  occ. eigenvalues --  -10.26895 -10.26725 -10.26566 -10.26355 -10.26288
 Alpha  occ. eigenvalues --  -10.26178 -10.25999 -10.25905 -10.25892 -10.25718
 Alpha  occ. eigenvalues --  -10.25694 -10.25597 -10.25588 -10.25327 -10.25224
 Alpha  occ. eigenvalues --  -10.24741 -10.24691 -10.24690 -10.24501 -10.24463
 Alpha  occ. eigenvalues --  -10.24086  -3.16440  -3.16218  -1.91321  -1.91100
 Alpha  occ. eigenvalues --   -1.90908  -1.90750  -1.90688  -1.90526  -1.16702
 Alpha  occ. eigenvalues --   -1.16517  -1.08577  -1.08494  -1.07110  -1.06864
 Alpha  occ. eigenvalues --   -1.06812  -1.06720  -1.04496  -1.04317  -1.03661
 Alpha  occ. eigenvalues --   -1.03472  -1.03133  -1.02836  -1.02313  -1.01916
 Alpha  occ. eigenvalues --   -0.91902  -0.91808  -0.89398  -0.89223  -0.89141
 Alpha  occ. eigenvalues --   -0.88991  -0.88166  -0.87935  -0.87767  -0.87588
 Alpha  occ. eigenvalues --   -0.87587  -0.87496  -0.87160  -0.86971  -0.84929
 Alpha  occ. eigenvalues --   -0.84840  -0.83815  -0.83568  -0.82848  -0.82768
 Alpha  occ. eigenvalues --   -0.82588  -0.82478  -0.81558  -0.81423  -0.80531
 Alpha  occ. eigenvalues --   -0.80271  -0.78689  -0.78460  -0.77127  -0.76954
 Alpha  occ. eigenvalues --   -0.76883  -0.76685  -0.75870  -0.75670  -0.74797
 Alpha  occ. eigenvalues --   -0.74572  -0.72674  -0.72492  -0.71591  -0.71400
 Alpha  occ. eigenvalues --   -0.69759  -0.69383  -0.68809  -0.68657  -0.67559
 Alpha  occ. eigenvalues --   -0.67425  -0.67171  -0.67062  -0.65235  -0.65108
 Alpha  occ. eigenvalues --   -0.64786  -0.64570  -0.64550  -0.64467  -0.64155
 Alpha  occ. eigenvalues --   -0.63917  -0.62281  -0.62098  -0.60331  -0.60164
 Alpha  occ. eigenvalues --   -0.59740  -0.59633  -0.58902  -0.58796  -0.58424
 Alpha  occ. eigenvalues --   -0.58230  -0.57561  -0.57390  -0.57216  -0.57023
 Alpha  occ. eigenvalues --   -0.56228  -0.56017  -0.55978  -0.55734  -0.55434
 Alpha  occ. eigenvalues --   -0.55307  -0.55260  -0.55011  -0.54469  -0.54230
 Alpha  occ. eigenvalues --   -0.53852  -0.53762  -0.53202  -0.53158  -0.53049
 Alpha  occ. eigenvalues --   -0.52967  -0.52874  -0.52726  -0.52663  -0.52545
 Alpha  occ. eigenvalues --   -0.52284  -0.51964  -0.51812  -0.51653  -0.51563
 Alpha  occ. eigenvalues --   -0.51517  -0.51118  -0.50981  -0.50446  -0.50333
 Alpha  occ. eigenvalues --   -0.49909  -0.49821  -0.49819  -0.49579  -0.49448
 Alpha  occ. eigenvalues --   -0.49342  -0.49145  -0.49047  -0.49039  -0.48929
 Alpha  occ. eigenvalues --   -0.48547  -0.48399  -0.48376  -0.48348  -0.48212
 Alpha  occ. eigenvalues --   -0.48151  -0.47613  -0.47414  -0.47207  -0.46950
 Alpha  occ. eigenvalues --   -0.46703  -0.46509  -0.46496  -0.46388  -0.46267
 Alpha  occ. eigenvalues --   -0.46080  -0.46057  -0.45879  -0.45770  -0.45633
 Alpha  occ. eigenvalues --   -0.45092  -0.44971  -0.44518  -0.44417  -0.44364
 Alpha  occ. eigenvalues --   -0.44274  -0.44056  -0.44010  -0.43973  -0.43944
 Alpha  occ. eigenvalues --   -0.43804  -0.43789  -0.43454  -0.43346  -0.43308
 Alpha  occ. eigenvalues --   -0.43207  -0.42946  -0.42771  -0.42718  -0.42710
 Alpha  occ. eigenvalues --   -0.42530  -0.42279  -0.41907  -0.41664  -0.41627
 Alpha  occ. eigenvalues --   -0.41481  -0.41475  -0.41242  -0.41062  -0.40814
 Alpha  occ. eigenvalues --   -0.40796  -0.40732  -0.40603  -0.40503  -0.40457
 Alpha  occ. eigenvalues --   -0.40213  -0.40180  -0.40099  -0.39283  -0.39023
 Alpha  occ. eigenvalues --   -0.38361  -0.38093  -0.37722  -0.37501  -0.37211
 Alpha  occ. eigenvalues --   -0.37206  -0.37045  -0.37000  -0.36731  -0.36608
 Alpha  occ. eigenvalues --   -0.36137  -0.35991  -0.34196  -0.34060  -0.33827
 Alpha  occ. eigenvalues --   -0.33718  -0.33100  -0.32982  -0.31241  -0.31164
 Alpha  occ. eigenvalues --   -0.30950  -0.30788  -0.29973  -0.29788  -0.29345
 Alpha  occ. eigenvalues --   -0.29225  -0.29159  -0.29024  -0.23989  -0.23843
 Alpha  occ. eigenvalues --   -0.21028  -0.20923
 Alpha virt. eigenvalues --   -0.08676  -0.08609  -0.01650  -0.01493   0.00037
 Alpha virt. eigenvalues --    0.00116   0.02282   0.02394   0.03147   0.03492
 Alpha virt. eigenvalues --    0.04781   0.04902   0.05039   0.05305   0.06174

 Mulliken charges:
               1
     1  Mg   0.839060
     2  C   -0.004065
     3  C   -0.093866
     4  C   -0.045694
     5  C   -0.063378
     6  N   -0.256801
     7  C   -0.052856
     8  C   -0.013948
     9  C   -0.087058
    10  C    0.046261
    11  C    0.104810
    12  C    0.053348
    13  C   -0.071457
    14  H    0.034187
    15  N   -0.433221
    16  C    0.168864
    17  C   -0.176515
    18  C   -0.003625
    19  C    0.148914
    20  C    0.109981
    21  C    0.012602
    22  O   -0.249923
    23  C    0.062030
    24  N   -0.341215
    25  C    0.041420
    26  C   -0.028134
    27  C   -0.024042
    28  C    0.074883
    29  C    0.076255
    30  C    0.034981
    31  C   -0.004746
    32  N   -0.310442
    33  C    0.080344
    34  C   -0.169273
    35  C    0.008138
    36  C    0.082668
    37  C    0.127287
    38  C    0.045507
    39  O   -0.188855
    40  C   -0.005230
    41  C    0.213621
    42  O   -0.259778
    43  O   -0.304161
    44  C    0.157960
    45  H   -0.017664
    46  H   -0.016861
    47  H   -0.040952
    48  H    0.000741
    49  H   -0.003915
    50  H    0.025364
    51  H    0.016647
    52  H    0.016609
    53  H    0.011783
    54  H    0.042143
    55  H    0.018295
    56  H    0.018692
    57  H    0.005806
    58  H    0.026442
    59  H    0.041217
    60  H    0.037148
    61  H    0.034994
    62  H    0.033064
    63  H    0.016706
    64  H    0.009312
    65  H    0.023045
    66  H    0.012281
    67  H    0.004726
    68  H    0.006191
    69  H    0.005279
    70  H    0.008284
    71  H    0.020466
    72  H    0.028781
    73  H    0.047794
    74  H    0.009857
    75  H    0.045742
    76  H    0.035254
    77  H    0.043404
    78  H    0.046505
    79  H    0.052072
    80  Mg   0.837877
    81  C   -0.017254
    82  C   -0.088163
    83  C   -0.045716
    84  C   -0.064065
    85  N   -0.254590
    86  C   -0.049822
    87  C   -0.015085
    88  C   -0.090415
    89  C    0.045589
    90  C    0.114513
    91  C    0.062578
    92  C   -0.077647
    93  H    0.034407
    94  N   -0.423278
    95  C    0.162697
    96  C   -0.175021
    97  C   -0.008316
    98  C    0.152011
    99  C    0.099468
   100  C    0.015117
   101  O   -0.254708
   102  C    0.061457
   103  N   -0.350342
   104  C    0.037735
   105  C   -0.019114
   106  C   -0.035737
   107  C    0.089713
   108  C    0.074244
   109  C    0.035558
   110  C   -0.012154
   111  N   -0.324320
   112  C    0.079002
   113  C   -0.161992
   114  C    0.001995
   115  C    0.096585
   116  C    0.131051
   117  C    0.042536
   118  O   -0.187931
   119  C    0.000874
   120  C    0.211243
   121  O   -0.251102
   122  O   -0.305663
   123  C    0.152166
   124  H   -0.020319
   125  H   -0.016589
   126  H   -0.038190
   127  H   -0.000921
   128  H   -0.004687
   129  H    0.022261
   130  H    0.014345
   131  H    0.015791
   132  H    0.013994
   133  H    0.037605
   134  H    0.020629
   135  H    0.019443
   136  H    0.008516
   137  H    0.025363
   138  H    0.039371
   139  H    0.038199
   140  H    0.034511
   141  H    0.034208
   142  H    0.013699
   143  H    0.011708
   144  H    0.023443
   145  H    0.010849
   146  H    0.005377
   147  H    0.005417
   148  H    0.008492
   149  H    0.006542
   150  H    0.033217
   151  H    0.026610
   152  H    0.046655
   153  H    0.011088
   154  H    0.046270
   155  H    0.034670
   156  H    0.043695
   157  H    0.049307
   158  H    0.053359
 Sum of Mulliken charges =  -0.00000

 Dipole moment (field-independent basis, Debye):
    X=              0.2702    Y=              6.8261    Z=             -2.6348  Tot=              7.3219
 Quadrupole moment (field-independent basis, Debye-Ang):
   XX=           -447.0307   YY=           -539.2304   ZZ=           -480.6474
   XY=            -20.5455   XZ=            -20.0470   YZ=              4.7427

 Normal termination of Gaussian 16 at Fri Sep 10 11:29:47 2021.
