 Gaussian 16, Revision A.03,
 Gaussian 16:  ES64L-G16RevA.03 25-Dec-2016

 -----------------------------------
 #p cam-b3lyp/Def2SVP td=(nstates=5)
 -----------------------------------

 --------------------------------
 TDDFT excited states in gaussian
 --------------------------------
 Symbolic Z-matrix:
 Charge =  0 Multiplicity = 1

                         Standard orientation:
 ---------------------------------------------------------------------
 Center     Atomic      Atomic             Coordinates (Angstroms)
 Number     Number       Type             X           Y           Z
 ---------------------------------------------------------------------
      1         12           0        6.640882   -0.609935    0.666731
      2          6           0        7.063565    2.131223   -1.595923
      3          6           0        7.246310    1.586825    3.206567
      4          6           0        6.722598   -3.087423    2.644609
      5          6           0        7.194607   -2.736248   -2.038421
      6          7           0        7.083662    1.559046    0.677294
      7          6           0        7.158374    2.505115   -0.253589
      8          6           0        7.271434    3.943287    0.334843
      9          6           0        7.882670    3.583683    1.762804
     10          6           0        7.343878    2.171503    1.909006
     11          6           0        9.407004    3.531791    1.777514
     12          6           0        5.876747    4.642419    0.468246
     13          6           0        5.924182    6.151681    0.723653
     14          1           0        4.899923    6.995464    0.126768
     15          7           0        6.458064   -0.686686    2.632319
     16          6           0        6.733200    0.307332    3.510678
     17          6           0        6.437038   -0.240406    4.851929
     18          6           0        6.148848   -1.693306    4.696623
     19          6           0        6.461314   -1.888617    3.303929
     20          6           0        6.399199    0.597564    6.092947
     21          6           0        5.678169   -2.741862    5.654288
     22          8           0        5.714833   -3.987936    5.370508
     23          6           0        5.250021   -2.272166    6.984370
     24          7           0        7.134527   -2.621125    0.403923
     25          6           0        7.029684   -3.494727    1.411301
     26          6           0        7.159566   -4.907576    0.924550
     27          6           0        7.132931   -4.829953   -0.670134
     28          6           0        7.070845   -3.290893   -0.830481
     29          6           0        8.419132   -5.658520    1.377968
     30          6           0        6.070447   -5.690854   -1.398416
     31          6           0        4.686106   -5.163805   -1.093591
     32          7           0        6.881433   -0.385372   -1.478671
     33          6           0        7.124699   -1.404280   -2.411045
     34          6           0        7.321041   -0.754298   -3.719877
     35          6           0        7.193961    0.607536   -3.453225
     36          6           0        6.960745    0.797860   -2.061220
     37          6           0        7.637012   -1.415310   -4.939574
     38          6           0        7.225431    1.947618   -4.016295
     39          8           0        7.291259    2.407508   -5.157199
     40          6           0        7.263559    2.994338   -2.816816
     41          6           0        6.235015    4.053705   -3.105171
     42          8           0        5.017337    3.780538   -3.103042
     43          8           0        6.825211    5.258779   -3.102460
     44          6           0        5.854533    6.357444   -3.353207
     45          1           0        7.652324    2.130029    4.062150
     46          1           0        6.650356   -3.977883    3.272542
     47          1           0        7.287593   -3.340722   -2.942533
     48          1           0        7.950486    4.603265   -0.205287
     49          1           0        7.484267    4.224564    2.549105
     50          1           0        9.818485    3.623858    0.772463
     51          1           0        9.661095    2.561880    2.205535
     52          1           0        9.813366    4.277022    2.461822
     53          1           0        5.396401    4.313331    1.389674
     54          1           0        5.260445    4.444489   -0.409434
     55          1           0        6.916552    6.558260    0.526664
     56          1           0        5.767808    6.322916    1.788747
     57          1           0        6.814735    1.589392    5.919303
     58          1           0        7.081607    0.138534    6.808013
     59          1           0        5.398430    0.650735    6.521859
     60          1           0        6.078471   -1.752745    7.466471
     61          1           0        4.862536   -3.148698    7.502439
     62          1           0        4.456630   -1.534619    6.859853
     63          1           0        6.324287   -5.517338    1.266495
     64          1           0        8.078766   -5.145909   -1.110863
     65          1           0        8.207967   -6.586099    1.910614
     66          1           0        9.012503   -4.981460    1.991803
     67          1           0        9.120744   -5.898164    0.579389
     68          1           0        6.107422   -6.719901   -1.042551
     69          1           0        6.199666   -5.709341   -2.480641
     70          1           0        4.452302   -5.632029   -0.138116
     71          1           0        3.981490   -5.477095   -1.864680
     72          1           0        4.696914   -4.085424   -0.934020
     73          1           0        7.011526   -0.957254   -5.705680
     74          1           0        7.454398   -2.487276   -4.867848
     75          1           0        8.696798   -1.177367   -5.029538
     76          1           0        8.273740    3.401563   -2.788134
     77          1           0        6.221864    6.920707   -4.211133
     78          1           0        5.739560    6.890761   -2.409407
     79          1           0        4.868828    6.057540   -3.710675
     80         12           0       -6.510191   -0.674141   -0.693831
     81          6           0       -7.669064    1.752062    1.683062
     82          6           0       -6.475168    1.830668   -3.008856
     83          6           0       -5.924371   -2.866577   -2.911376
     84          6           0       -7.711518   -3.144467    1.450930
     85          7           0       -7.026417    1.472397   -0.559231
     86          6           0       -7.395787    2.295530    0.410501
     87          6           0       -7.399305    3.796252    0.013812
     88          6           0       -7.573928    3.625035   -1.573340
     89          6           0       -6.956379    2.237995   -1.738965
     90          6           0       -9.026351    3.557068   -2.015125
     91          6           0       -6.048780    4.511621    0.369244
     92          6           0       -6.091327    6.039493    0.294764
     93          1           0       -5.305367    6.805465    1.258110
     94          7           0       -5.775441   -0.481901   -2.527349
     95          6           0       -5.829531    0.612575   -3.315034
     96          6           0       -5.164813    0.236596   -4.572397
     97          6           0       -4.859993   -1.219261   -4.524730
     98          6           0       -5.541677   -1.591387   -3.301245
     99          6           0       -4.808663    1.235488   -5.634840
    100          6           0       -4.093923   -2.128829   -5.436886
    101          8           0       -4.157310   -3.404071   -5.324837
    102          6           0       -3.341324   -1.485350   -6.523633
    103          7           0       -6.965009   -2.698212   -0.830257
    104          6           0       -6.547543   -3.431560   -1.877090
    105          6           0       -6.751992   -4.906536   -1.625989
    106          6           0       -7.172445   -5.026215   -0.087649
    107          6           0       -7.227415   -3.526436    0.277090
    108          6           0       -7.806785   -5.589548   -2.496215
    109          6           0       -6.321742   -5.972781    0.802853
    110          6           0       -4.926681   -5.413391    0.964980
    111          7           0       -7.342324   -0.733390    1.299174
    112          6           0       -7.803779   -1.870782    1.997384
    113          6           0       -8.385910   -1.394580    3.268916
    114          6           0       -8.242374   -0.000100    3.211543
    115          6           0       -7.633373    0.368455    1.981587
    116          6           0       -8.993475   -2.211927    4.263366
    117          6           0       -8.477204    1.244766    3.907147
    118          8           0       -8.885072    1.550642    5.026893
    119          6           0       -8.231424    2.444194    2.893559
    120          6           0       -7.366820    3.464427    3.582124
    121          8           0       -6.195245    3.190858    3.897060
    122          8           0       -7.989399    4.657010    3.559409
    123          6           0       -7.166073    5.704078    4.220918
    124          1           0       -6.644390    2.487186   -3.862803
    125          1           0       -5.644209   -3.672273   -3.593908
    126          1           0       -8.018127   -3.860115    2.216772
    127          1           0       -8.223501    4.371202    0.418681
    128          1           0       -6.995211    4.367444   -2.116749
    129          1           0       -9.701928    3.516324   -1.173661
    130          1           0       -9.110579    2.658209   -2.611798
    131          1           0       -9.254874    4.388233   -2.688387
    132          1           0       -5.315528    4.305339   -0.421036
    133          1           0       -5.699057    4.206577    1.336337
    134          1           0       -7.118351    6.421381    0.246485
    135          1           0       -5.643898    6.353393   -0.651439
    136          1           0       -5.305306    2.198617   -5.464154
    137          1           0       -5.238882    0.870681   -6.573830
    138          1           0       -3.729913    1.349535   -5.761136
    139          1           0       -4.024250   -0.910850   -7.144954
    140          1           0       -2.788322   -2.289844   -7.012365
    141          1           0       -2.636900   -0.769624   -6.085310
    142          1           0       -5.832262   -5.456634   -1.782739
    143          1           0       -8.195052   -5.414995    0.026197
    144          1           0       -7.410270   -6.449272   -3.068692
    145          1           0       -8.229183   -4.850420   -3.163897
    146          1           0       -8.685323   -5.947104   -1.961882
    147          1           0       -6.211248   -6.947642    0.321635
    148          1           0       -6.751573   -6.144819    1.783999
    149          1           0       -4.418384   -5.750929    0.056811
    150          1           0       -4.452600   -5.818849    1.856540
    151          1           0       -4.937771   -4.317363    0.948539
    152          1           0       -8.632566   -1.858402    5.220061
    153          1           0       -8.757623   -3.263283    4.112421
    154          1           0      -10.048647   -1.996759    4.074714
    155          1           0       -9.207107    2.849874    2.623303
    156          1           0       -7.786297    6.150715    5.004197
    157          1           0       -6.822615    6.371649    3.408427
    158          1           0       -6.305405    5.377792    4.792981
 ---------------------------------------------------------------------

 SCF Done:  E(RCAM-B3LYP) =  -4069.81203465     A.U. after   19 cycles

 Excitation energies and oscillator strengths:

 Excited State   1:      Singlet-A      1.6658 eV  744.29 nm  f=0.0253  <S**2>=0.000
     309 -> 315        0.11089
     310 -> 316        0.13109
     311 -> 313       -0.44226
     312 -> 314        0.52521
 This state for optimization and/or second-order correction.
 Total Energy, E(TD-HF/TD-DFT) =  -4069.75081783
 Copying the excited state density for this state as the 1-particle RhoCI density.

 Excited State   2:      Singlet-A      1.6895 eV  733.83 nm  f=0.7214  <S**2>=0.000
     309 -> 315       -0.13627
     310 -> 316        0.11421
     311 -> 313        0.52404
     312 -> 314        0.44139

 Excited State   3:      Singlet-A      2.1864 eV  567.06 nm  f=0.0402  <S**2>=0.000
     309 -> 313        0.20474
     310 -> 314        0.60944
     312 -> 316       -0.25872

 Excited State   4:      Singlet-A      2.1938 eV  565.15 nm  f=0.1492  <S**2>=0.000
     309 -> 313        0.60724
     310 -> 314       -0.20328
     311 -> 315        0.26459

 Excited State   5:      Singlet-A      2.7094 eV  457.61 nm  f=0.0000  <S**2>=0.000
     312 -> 313        0.70709

 The electronic state is 1-A.
 Alpha  occ. eigenvalues --  -46.87725 -46.87553 -19.26312 -19.26299 -19.19115
 Alpha  occ. eigenvalues --  -19.19029 -19.18717 -19.18568 -19.18134 -19.17969
 Alpha  occ. eigenvalues --  -14.42392 -14.42382 -14.41377 -14.41256 -14.39328
 Alpha  occ. eigenvalues --  -14.39239 -14.38521 -14.38497 -10.39084 -10.39041
 Alpha  occ. eigenvalues --  -10.35348 -10.35240 -10.34355 -10.34149 -10.31739
 Alpha  occ. eigenvalues --  -10.31717 -10.31346 -10.31214 -10.30913 -10.30841
 Alpha  occ. eigenvalues --  -10.30506 -10.30438 -10.30294 -10.30259 -10.30124
 Alpha  occ. eigenvalues --  -10.30028 -10.29853 -10.29801 -10.29560 -10.29319
 Alpha  occ. eigenvalues --  -10.29288 -10.29177 -10.28699 -10.28629 -10.28585
 Alpha  occ. eigenvalues --  -10.28510 -10.28298 -10.28297 -10.28062 -10.28047
 Alpha  occ. eigenvalues --  -10.27894 -10.27727 -10.27657 -10.27561 -10.27507
 Alpha  occ. eigenvalues --  -10.27425 -10.27417 -10.27383 -10.27378 -10.27370
 Alpha  occ. eigenvalues --  -10.27345 -10.27342 -10.27288 -10.27287 -10.27128
 Alpha  occ. eigenvalues --  -10.26976 -10.26661 -10.26604 -10.26281 -10.26207
 Alpha  occ. eigenvalues --  -10.26184 -10.26085 -10.26048 -10.25945 -10.25943
 Alpha  occ. eigenvalues --  -10.25831 -10.25798 -10.25775 -10.25362 -10.25319
 Alpha  occ. eigenvalues --  -10.24772 -10.24770 -10.24716 -10.24633 -10.24588
 Alpha  occ. eigenvalues --  -10.24570  -3.16467  -3.16303  -1.91349  -1.91185
 Alpha  occ. eigenvalues --   -1.90935  -1.90778  -1.90774  -1.90611  -1.16646
 Alpha  occ. eigenvalues --   -1.16603  -1.08597  -1.08582  -1.07117  -1.06899
 Alpha  occ. eigenvalues --   -1.06819  -1.06651  -1.04515  -1.04391  -1.03689
 Alpha  occ. eigenvalues --   -1.03557  -1.03163  -1.02934  -1.02342  -1.02007
 Alpha  occ. eigenvalues --   -0.91917  -0.91892  -0.89442  -0.89396  -0.89134
 Alpha  occ. eigenvalues --   -0.89059  -0.88209  -0.88125  -0.87811  -0.87699
 Alpha  occ. eigenvalues --   -0.87606  -0.87582  -0.87185  -0.86975  -0.84924
 Alpha  occ. eigenvalues --   -0.84903  -0.83860  -0.83785  -0.82869  -0.82789
 Alpha  occ. eigenvalues --   -0.82587  -0.82541  -0.81555  -0.81523  -0.80541
 Alpha  occ. eigenvalues --   -0.80349  -0.78719  -0.78511  -0.77151  -0.77043
 Alpha  occ. eigenvalues --   -0.76887  -0.76817  -0.75877  -0.75751  -0.74830
 Alpha  occ. eigenvalues --   -0.74713  -0.72708  -0.72598  -0.71611  -0.71487
 Alpha  occ. eigenvalues --   -0.69820  -0.69663  -0.68812  -0.68728  -0.67576
 Alpha  occ. eigenvalues --   -0.67499  -0.67157  -0.67089  -0.65233  -0.65180
 Alpha  occ. eigenvalues --   -0.64800  -0.64677  -0.64565  -0.64564  -0.64195
 Alpha  occ. eigenvalues --   -0.64109  -0.62273  -0.62210  -0.60358  -0.60213
 Alpha  occ. eigenvalues --   -0.59746  -0.59699  -0.58925  -0.58897  -0.58444
 Alpha  occ. eigenvalues --   -0.58331  -0.57553  -0.57480  -0.57242  -0.57133
 Alpha  occ. eigenvalues --   -0.56248  -0.56102  -0.55959  -0.55814  -0.55448
 Alpha  occ. eigenvalues --   -0.55341  -0.55283  -0.55165  -0.54479  -0.54411
 Alpha  occ. eigenvalues --   -0.53842  -0.53819  -0.53228  -0.53157  -0.53123
 Alpha  occ. eigenvalues --   -0.53037  -0.52868  -0.52813  -0.52672  -0.52520
 Alpha  occ. eigenvalues --   -0.52350  -0.52307  -0.51864  -0.51802  -0.51556
 Alpha  occ. eigenvalues --   -0.51550  -0.51142  -0.51113  -0.50467  -0.50315
 Alpha  occ. eigenvalues --   -0.49948  -0.49864  -0.49838  -0.49762  -0.49448
 Alpha  occ. eigenvalues --   -0.49368  -0.49156  -0.49098  -0.49046  -0.49016
 Alpha  occ. eigenvalues --   -0.48550  -0.48473  -0.48399  -0.48366  -0.48290
 Alpha  occ. eigenvalues --   -0.48206  -0.47628  -0.47489  -0.47227  -0.47006
 Alpha  occ. eigenvalues --   -0.46730  -0.46614  -0.46502  -0.46456  -0.46293
 Alpha  occ. eigenvalues --   -0.46168  -0.46107  -0.45999  -0.45786  -0.45748
 Alpha  occ. eigenvalues --   -0.45127  -0.45116  -0.44533  -0.44428  -0.44428
 Alpha  occ. eigenvalues --   -0.44376  -0.44075  -0.44033  -0.44029  -0.43976
 Alpha  occ. eigenvalues --   -0.43956  -0.43813  -0.43484  -0.43461  -0.43321
 Alpha  occ. eigenvalues --   -0.43293  -0.42967  -0.42865  -0.42813  -0.42687
 Alpha  occ. eigenvalues --   -0.42580  -0.42449  -0.41941  -0.41872  -0.41646
 Alpha  occ. eigenvalues --   -0.41578  -0.41476  -0.41364  -0.41079  -0.40895
 Alpha  occ. eigenvalues --   -0.40805  -0.40733  -0.40619  -0.40572  -0.40498
 Alpha  occ. eigenvalues --   -0.40402  -0.40180  -0.40122  -0.39349  -0.39330
 Alpha  occ. eigenvalues --   -0.38395  -0.38258  -0.37699  -0.37566  -0.37246
 Alpha  occ. eigenvalues --   -0.37207  -0.37170  -0.37100  -0.36716  -0.36696
 Alpha  occ. eigenvalues --   -0.36145  -0.36132  -0.34220  -0.34153  -0.33805
 Alpha  occ. eigenvalues --   -0.33766  -0.33122  -0.33073  -0.31249  -0.31131
 Alpha  occ. eigenvalues --   -0.30969  -0.30869  -0.29996  -0.29877  -0.29374
 Alpha  occ. eigenvalues --   -0.29258  -0.29208  -0.29107  -0.24013  -0.23934
 Alpha  occ. eigenvalues --   -0.21058  -0.21010
 Alpha virt. eigenvalues --   -0.08703  -0.08682  -0.01676  -0.01576   0.00020
 Alpha virt. eigenvalues --    0.00096   0.02256   0.02302   0.03212   0.03351
 Alpha virt. eigenvalues --    0.04777   0.04824   0.05101   0.05219   0.06215

 Mulliken charges:
               1
     1  Mg   0.839086
     2  C   -0.003118
     3  C   -0.093943
     4  C   -0.045739
     5  C   -0.063849
     6  N   -0.256803
     7  C   -0.052591
     8  C   -0.014042
     9  C   -0.087059
    10  C    0.046455
    11  C    0.104811
    12  C    0.053389
    13  C   -0.071605
    14  H    0.035352
    15  N   -0.433206
    16  C    0.168713
    17  C   -0.176819
    18  C   -0.003689
    19  C    0.148891
    20  C    0.110111
    21  C    0.012650
    22  O   -0.249566
    23  C    0.062240
    24  N   -0.341167
    25  C    0.041359
    26  C   -0.028198
    27  C   -0.023933
    28  C    0.074822
    29  C    0.076207
    30  C    0.035110
    31  C   -0.004605
    32  N   -0.310337
    33  C    0.080232
    34  C   -0.169958
    35  C    0.008015
    36  C    0.082861
    37  C    0.127410
    38  C    0.045696
    39  O   -0.189304
    40  C   -0.005234
    41  C    0.212772
    42  O   -0.257631
    43  O   -0.304613
    44  C    0.158017
    45  H   -0.017548
    46  H   -0.016707
    47  H   -0.041554
    48  H    0.000645
    49  H   -0.003887
    50  H    0.025325
    51  H    0.016518
    52  H    0.016623
    53  H    0.011796
    54  H    0.043761
    55  H    0.017726
    56  H    0.018312
    57  H    0.005852
    58  H    0.026809
    59  H    0.040542
    60  H    0.037178
    61  H    0.035905
    62  H    0.032452
    63  H    0.016767
    64  H    0.009271
    65  H    0.023231
    66  H    0.012455
    67  H    0.004652
    68  H    0.006303
    69  H    0.004666
    70  H    0.008845
    71  H    0.018863
    72  H    0.028928
    73  H    0.046971
    74  H    0.009240
    75  H    0.045821
    76  H    0.035035
    77  H    0.042621
    78  H    0.046560
    79  H    0.052836
    80  Mg   0.838176
    81  C   -0.016887
    82  C   -0.087345
    83  C   -0.045472
    84  C   -0.064922
    85  N   -0.254577
    86  C   -0.050027
    87  C   -0.015172
    88  C   -0.090598
    89  C    0.045890
    90  C    0.114395
    91  C    0.062380
    92  C   -0.077663
    93  H    0.034067
    94  N   -0.423595
    95  C    0.163332
    96  C   -0.174020
    97  C   -0.007354
    98  C    0.152266
    99  C    0.099170
   100  C    0.015978
   101  O   -0.253519
   102  C    0.060768
   103  N   -0.350056
   104  C    0.037626
   105  C   -0.019822
   106  C   -0.034678
   107  C    0.088738
   108  C    0.073732
   109  C    0.034784
   110  C   -0.007652
   111  N   -0.323990
   112  C    0.078176
   113  C   -0.163461
   114  C    0.001966
   115  C    0.096034
   116  C    0.131569
   117  C    0.042063
   118  O   -0.188654
   119  C    0.000985
   120  C    0.211186
   121  O   -0.251258
   122  O   -0.305566
   123  C    0.152250
   124  H   -0.019521
   125  H   -0.015603
   126  H   -0.040772
   127  H   -0.000995
   128  H   -0.004055
   129  H    0.022250
   130  H    0.014442
   131  H    0.016207
   132  H    0.014736
   133  H    0.037417
   134  H    0.020529
   135  H    0.019972
   136  H    0.008722
   137  H    0.026027
   138  H    0.042016
   139  H    0.038061
   140  H    0.036506
   141  H    0.036035
   142  H    0.014406
   143  H    0.012133
   144  H    0.025003
   145  H    0.011621
   146  H    0.005475
   147  H    0.006010
   148  H    0.003435
   149  H    0.010936
   150  H    0.017968
   151  H    0.030294
   152  H    0.045556
   153  H    0.008360
   154  H    0.046632
   155  H    0.034791
   156  H    0.043559
   157  H    0.049520
   158  H    0.053084
 Sum of Mulliken charges =  -0.00000

 Dipole moment (field-independent basis, Debye):
    X=              1.2483    Y=              3.0908    Z=              0.0583  Tot=              3.3339
 Quadrupole moment (field-independent basis, Debye-Ang):
   XX=           -492.1865   YY=           -460.9790   ZZ=           -533.6916
   XY=              3.6938   XZ=             59.6250   YZ=              6.7625

 Normal termination of Gaussian 16 at Sat Sep 11 06:05:46 2021.
