 Gaussian 16, Revision A.03,
 Gaussian 16:  ES64L-G16RevA.03 25-Dec-2016

 -----------------------------------
 #p cam-b3lyp/Def2SVP td=(nstates=5)
 -----------------------------------

 --------------------------------
 TDDFT excited states in gaussian
 --------------------------------
 Symbolic Z-matrix:
 Charge =  0 Multiplicity = 1

                         Standard orientation:
 ---------------------------------------------------------------------
 Center     Atomic      Atomic             Coordinates (Angstroms)
 Number     Number       Type             X           Y           Z
 ---------------------------------------------------------------------
      1         12           0       16.048980   -0.643086    0.426308
      2          6           0       16.290342    2.346380   -1.527420
      3          6           0       16.860477    1.247841    3.148243
      4          6           0       16.287621   -3.333323    2.088323
      5          6           0       16.379536   -2.435160   -2.544359
      6          7           0       16.493663    1.513505    0.654388
      7          6           0       16.493894    2.562149   -0.162629
      8          6           0       16.655856    3.922882    0.578686
      9          6           0       17.380224    3.404490    1.901017
     10          6           0       16.853401    1.980467    1.924216
     11          6           0       18.900688    3.363904    1.786809
     12          6           0       15.277346    4.590106    0.904650
     13          6           0       15.347032    6.059687    1.329890
     14          1           0       14.278806    6.958712    0.920020
     15          7           0       16.025728   -0.949777    2.377782
     16          6           0       16.372185   -0.062584    3.341183
     17          6           0       16.184896   -0.765260    4.628758
     18          6           0       15.883409   -2.192525    4.328569
     19          6           0       16.081929   -2.221686    2.901994
     20          6           0       16.248570   -0.077889    5.958125
     21          6           0       15.490559   -3.349365    5.192006
     22          8           0       15.502703   -4.553554    4.762641
     23          6           0       15.171987   -3.041363    6.597954
     24          7           0       16.517420   -2.605803   -0.108425
     25          6           0       16.493430   -3.591637    0.795202
     26          6           0       16.581870   -4.937045    0.137940
     27          6           0       16.426370   -4.674429   -1.429416
     28          6           0       16.353287   -3.127738   -1.403432
     29          6           0       17.873129   -5.725201    0.397692
     30          6           0       15.307446   -5.453438   -2.165331
     31          6           0       13.952919   -4.977001   -1.690606
     32          7           0       16.115395   -0.168168   -1.690550
     33          6           0       16.281240   -1.069484   -2.752058
     34          6           0       16.371777   -0.269867   -3.987568
     35          6           0       16.268261    1.050535   -3.554363
     36          6           0       16.148670    1.075482   -2.135431
     37          6           0       16.587252   -0.781665   -5.297556
     38          6           0       16.255610    2.447295   -3.957795
     39          8           0       16.229430    3.037476   -5.038765
     40          6           0       16.391881    3.347458   -2.651287
     41          6           0       15.344599    4.424620   -2.730229
     42          8           0       14.130772    4.142958   -2.661994
     43          8           0       15.934467    5.626037   -2.634342
     44          6           0       14.947949    6.738328   -2.676125
     45          1           0       17.335020    1.691045    4.025922
     46          1           0       16.265401   -4.291432    2.611746
     47          1           0       16.398359   -2.929417   -3.517400
     48          1           0       17.289735    4.646900    0.066416
     49          1           0       17.047493    3.946090    2.786276
     50          1           0       19.229597    3.575825    0.769543
     51          1           0       19.187463    2.352884    2.076794
     52          1           0       19.361950    4.027705    2.518506
     53          1           0       14.872758    4.151953    1.817005
     54          1           0       14.591815    4.490640    0.062343
     55          1           0       16.320676    6.494674    1.102481
     56          1           0       15.277556    6.104392    2.416800
     57          1           0       16.649836    0.930831    5.868599
     58          1           0       16.986074   -0.611398    6.557429
     59          1           0       15.285853   -0.083355    6.469473
     60          1           0       16.037330   -2.574768    7.069143
     61          1           0       14.826684   -3.975462    7.039628
     62          1           0       14.371973   -2.300950    6.624686
     63          1           0       15.776298   -5.589404    0.472467
     64          1           0       17.333074   -4.929031   -1.978725
     65          1           0       17.704689   -6.710230    0.833640
     66          1           0       18.515006   -5.119342    1.036613
     67          1           0       18.507542   -5.864360   -0.477278
     68          1           0       15.371910   -6.516589   -1.936200
     69          1           0       15.348646   -5.344670   -3.249178
     70          1           0       13.796660   -5.555255   -0.780641
     71          1           0       13.187858   -5.204187   -2.433759
     72          1           0       13.977848   -3.924494   -1.407597
     73          1           0       15.902352   -0.242704   -5.952080
     74          1           0       16.409805   -1.856168   -5.337026
     75          1           0       17.636556   -0.526066   -5.444140
     76          1           0       17.401539    3.756949   -2.656664
     77          1           0       15.245302    7.400719   -3.489178
     78          1           0       14.910341    7.157109   -1.670336
     79          1           0       13.936206    6.473924   -2.985649
     80         12           0      -15.687976   -0.689078   -0.276297
     81          6           0      -18.122211    1.741684    0.745939
     82          6           0      -13.767841    1.911367   -1.365047
     83          6           0      -13.732192   -2.813515   -1.591239
     84          6           0      -18.227320   -3.073512   -0.167512
     85          7           0      -16.011344    1.498910   -0.256237
     86          6           0      -16.946551    2.310728    0.213532
     87          6           0      -16.567867    3.815728    0.180061
     88          6           0      -15.477669    3.763231   -0.997903
     89          6           0      -15.025842    2.311985   -0.848281
     90          6           0      -16.079186    3.935844   -2.382721
     91          6           0      -15.932332    4.302336    1.529621
     92          6           0      -15.823320    5.821471    1.678238
     93          1           0      -16.012723    6.406632    3.002697
     94          7           0      -13.805273   -0.502889   -0.875729
     95          6           0      -13.181824    0.630833   -1.259517
     96          6           0      -11.813598    0.233355   -1.625764
     97          6           0      -11.729523   -1.251869   -1.583960
     98          6           0      -13.121773   -1.588619   -1.364110
     99          6           0      -10.721253    1.227824   -1.892666
    100          6           0      -10.587334   -2.210903   -1.731791
    101          8           0      -10.780082   -3.467109   -1.897986
    102          6           0       -9.239669   -1.624514   -1.769855
    103          7           0      -15.982087   -2.612656   -1.008204
    104          6           0      -14.952383   -3.338515   -1.478051
    105          6           0      -15.352509   -4.779051   -1.690528
    106          6           0      -16.803742   -4.923130   -1.034217
    107          6           0      -17.039465   -3.455013   -0.616517
    108          6           0      -15.402953   -5.247934   -3.144480
    109          6           0      -16.985029   -6.034287    0.035893
    110          6           0      -16.181394   -5.697215    1.271180
    111          7           0      -17.748217   -0.738697    0.372557
    112          6           0      -18.637539   -1.833537    0.305305
    113          6           0      -19.958185   -1.350117    0.757673
    114          6           0      -19.749350    0.008869    1.037046
    115          6           0      -18.399155    0.353197    0.757931
    116          6           0      -21.151056   -2.124312    0.819214
    117          6           0      -20.366725    1.232910    1.494498
    118          8           0      -21.468167    1.531109    1.954536
    119          6           0      -19.372289    2.438884    1.206173
    120          6           0      -19.288058    3.279201    2.450877
    121          8           0      -18.788342    2.818090    3.492162
    122          8           0      -19.609499    4.549966    2.147217
    123          6           0      -19.529795    5.424418    3.347548
    124          1           0      -13.190753    2.633429   -1.943390
    125          1           0      -13.072747   -3.611379   -1.940568
    126          1           0      -19.046608   -3.778669   -0.011929
    127          1           0      -17.377670    4.481969   -0.092203
    128          1           0      -14.651583    4.441905   -0.802088
    129          1           0      -17.158638    3.947244   -2.354547
    130          1           0      -15.724752    3.094899   -2.964306
    131          1           0      -15.669120    4.828777   -2.863202
    132          1           0      -14.867683    4.035587    1.540742
    133          1           0      -16.461251    3.894186    2.368842
    134          1           0      -16.427869    6.352947    0.933254
    135          1           0      -14.796606    6.119464    1.452228
    136          1           0      -11.121176    2.242369   -2.011655
    137          1           0      -10.300499    0.984852   -2.874393
    138          1           0       -9.924311    1.188368   -1.147012
    139          1           0       -9.175209   -0.920890   -2.596419
    140          1           0       -8.552426   -2.472564   -1.789468
    141          1           0       -9.083420   -1.046905   -0.851945
    142          1           0      -14.669286   -5.449050   -1.183171
    143          1           0      -17.569333   -5.162523   -1.786802
    144          1           0      -14.755414   -6.122617   -3.343732
    145          1           0      -15.126789   -4.417569   -3.780684
    146          1           0      -16.395142   -5.501816   -3.513675
    147          1           0      -16.597304   -6.985653   -0.336578
    148          1           0      -18.019695   -6.196810    0.318800
    149          1           0      -15.178426   -6.053609    1.017938
    150          1           0      -16.577812   -6.218555    2.140137
    151          1           0      -16.118905   -4.612442    1.416173
    152          1           0      -21.630543   -1.883256    1.758621
    153          1           0      -20.938723   -3.188600    0.741936
    154          1           0      -21.675268   -1.745266   -0.062149
    155          1           0      -19.773110    2.998974    0.360455
    156          1           0      -20.503811    5.912205    3.452710
    157          1           0      -18.653687    6.079336    3.182415
    158          1           0      -19.429294    4.942457    4.312976
 ---------------------------------------------------------------------

 SCF Done:  E(RCAM-B3LYP) =  -4069.81179505     A.U. after   19 cycles

 Excitation energies and oscillator strengths:

 Excited State   1:      Singlet-A      1.6756 eV  739.95 nm  f=0.3656  <S**2>=0.000
     310 -> 316        0.17247
     312 -> 313        0.68142
     310 <- 316        0.10396
 This state for optimization and/or second-order correction.
 Total Energy, E(TD-HF/TD-DFT) =  -4069.75021882
 Copying the excited state density for this state as the 1-particle RhoCI density.

 Excited State   2:      Singlet-A      1.6799 eV  738.04 nm  f=0.4158  <S**2>=0.000
     309 -> 315        0.17440
     311 -> 314        0.68107
     309 <- 315        0.10444

 Excited State   3:      Singlet-A      2.1862 eV  567.11 nm  f=0.0953  <S**2>=0.000
     310 -> 313        0.64209
     312 -> 316       -0.27305

 Excited State   4:      Singlet-A      2.1926 eV  565.47 nm  f=0.1048  <S**2>=0.000
     309 -> 314        0.64033
     311 -> 315       -0.27819

 Excited State   5:      Singlet-A      3.0667 eV  404.29 nm  f=0.0000  <S**2>=0.000
     312 -> 314        0.70710

 The electronic state is 1-A.
 Alpha  occ. eigenvalues --  -46.87804 -46.87659 -19.26353 -19.26299 -19.19163
 Alpha  occ. eigenvalues --  -19.19034 -19.18819 -19.18707 -19.18179 -19.18052
 Alpha  occ. eigenvalues --  -14.42496 -14.42458 -14.41456 -14.41358 -14.39410
 Alpha  occ. eigenvalues --  -14.39351 -14.38599 -14.38594 -10.39093 -10.39093
 Alpha  occ. eigenvalues --  -10.35452 -10.35383 -10.34400 -10.34229 -10.31760
 Alpha  occ. eigenvalues --  -10.31697 -10.31413 -10.31309 -10.31021 -10.30916
 Alpha  occ. eigenvalues --  -10.30578 -10.30515 -10.30397 -10.30360 -10.30213
 Alpha  occ. eigenvalues --  -10.30139 -10.29928 -10.29894 -10.29638 -10.29434
 Alpha  occ. eigenvalues --  -10.29399 -10.29261 -10.28759 -10.28718 -10.28655
 Alpha  occ. eigenvalues --  -10.28552 -10.28403 -10.28372 -10.28139 -10.28125
 Alpha  occ. eigenvalues --  -10.28000 -10.27800 -10.27734 -10.27667 -10.27591
 Alpha  occ. eigenvalues --  -10.27518 -10.27506 -10.27486 -10.27483 -10.27464
 Alpha  occ. eigenvalues --  -10.27456 -10.27454 -10.27411 -10.27375 -10.27169
 Alpha  occ. eigenvalues --  -10.27052 -10.26716 -10.26693 -10.26412 -10.26400
 Alpha  occ. eigenvalues --  -10.26242 -10.26188 -10.26138 -10.26026 -10.26024
 Alpha  occ. eigenvalues --  -10.25934 -10.25854 -10.25852 -10.25439 -10.25396
 Alpha  occ. eigenvalues --  -10.24872 -10.24841 -10.24794 -10.24731 -10.24691
 Alpha  occ. eigenvalues --  -10.24688  -3.16547  -3.16409  -1.91428  -1.91291
 Alpha  occ. eigenvalues --   -1.91015  -1.90880  -1.90857  -1.90717  -1.16648
 Alpha  occ. eigenvalues --   -1.16646  -1.08660  -1.08638  -1.07220  -1.06959
 Alpha  occ. eigenvalues --   -1.06948  -1.06657  -1.04589  -1.04494  -1.03767
 Alpha  occ. eigenvalues --   -1.03662  -1.03241  -1.03038  -1.02418  -1.02110
 Alpha  occ. eigenvalues --   -0.91987  -0.91981  -0.89526  -0.89494  -0.89197
 Alpha  occ. eigenvalues --   -0.89150  -0.88293  -0.88220  -0.87878  -0.87794
 Alpha  occ. eigenvalues --   -0.87683  -0.87681  -0.87279  -0.87114  -0.84999
 Alpha  occ. eigenvalues --   -0.84991  -0.83942  -0.83876  -0.82972  -0.82925
 Alpha  occ. eigenvalues --   -0.82657  -0.82650  -0.81597  -0.81597  -0.80605
 Alpha  occ. eigenvalues --   -0.80442  -0.78804  -0.78632  -0.77226  -0.77143
 Alpha  occ. eigenvalues --   -0.76944  -0.76898  -0.75932  -0.75838  -0.74904
 Alpha  occ. eigenvalues --   -0.74802  -0.72782  -0.72698  -0.71680  -0.71580
 Alpha  occ. eigenvalues --   -0.69912  -0.69757  -0.68881  -0.68826  -0.67649
 Alpha  occ. eigenvalues --   -0.67600  -0.67228  -0.67197  -0.65295  -0.65271
 Alpha  occ. eigenvalues --   -0.64862  -0.64770  -0.64653  -0.64629  -0.64276
 Alpha  occ. eigenvalues --   -0.64203  -0.62309  -0.62280  -0.60448  -0.60336
 Alpha  occ. eigenvalues --   -0.59813  -0.59796  -0.58995  -0.58992  -0.58512
 Alpha  occ. eigenvalues --   -0.58425  -0.57595  -0.57555  -0.57316  -0.57235
 Alpha  occ. eigenvalues --   -0.56317  -0.56203  -0.55991  -0.55887  -0.55527
 Alpha  occ. eigenvalues --   -0.55449  -0.55347  -0.55248  -0.54533  -0.54489
 Alpha  occ. eigenvalues --   -0.53912  -0.53904  -0.53306  -0.53230  -0.53226
 Alpha  occ. eigenvalues --   -0.53140  -0.52924  -0.52902  -0.52762  -0.52661
 Alpha  occ. eigenvalues --   -0.52444  -0.52401  -0.51923  -0.51886  -0.51656
 Alpha  occ. eigenvalues --   -0.51625  -0.51204  -0.51201  -0.50577  -0.50467
 Alpha  occ. eigenvalues --   -0.50037  -0.49977  -0.49924  -0.49865  -0.49522
 Alpha  occ. eigenvalues --   -0.49484  -0.49223  -0.49200  -0.49105  -0.49104
 Alpha  occ. eigenvalues --   -0.48602  -0.48558  -0.48467  -0.48452  -0.48376
 Alpha  occ. eigenvalues --   -0.48333  -0.47702  -0.47592  -0.47304  -0.47115
 Alpha  occ. eigenvalues --   -0.46804  -0.46708  -0.46564  -0.46552  -0.46366
 Alpha  occ. eigenvalues --   -0.46269  -0.46171  -0.46086  -0.45832  -0.45824
 Alpha  occ. eigenvalues --   -0.45208  -0.45207  -0.44587  -0.44514  -0.44513
 Alpha  occ. eigenvalues --   -0.44475  -0.44151  -0.44126  -0.44096  -0.44076
 Alpha  occ. eigenvalues --   -0.44027  -0.43935  -0.43554  -0.43505  -0.43393
 Alpha  occ. eigenvalues --   -0.43385  -0.43035  -0.42931  -0.42902  -0.42710
 Alpha  occ. eigenvalues --   -0.42663  -0.42552  -0.42017  -0.41964  -0.41712
 Alpha  occ. eigenvalues --   -0.41669  -0.41542  -0.41458  -0.41148  -0.40989
 Alpha  occ. eigenvalues --   -0.40877  -0.40828  -0.40719  -0.40695  -0.40578
 Alpha  occ. eigenvalues --   -0.40493  -0.40244  -0.40225  -0.39446  -0.39426
 Alpha  occ. eigenvalues --   -0.38475  -0.38350  -0.37758  -0.37653  -0.37327
 Alpha  occ. eigenvalues --   -0.37272  -0.37265  -0.37198  -0.36773  -0.36725
 Alpha  occ. eigenvalues --   -0.36217  -0.36202  -0.34293  -0.34253  -0.33864
 Alpha  occ. eigenvalues --   -0.33783  -0.33194  -0.33175  -0.31349  -0.31266
 Alpha  occ. eigenvalues --   -0.31043  -0.30971  -0.30039  -0.29957  -0.29456
 Alpha  occ. eigenvalues --   -0.29329  -0.29324  -0.29211  -0.24088  -0.24035
 Alpha  occ. eigenvalues --   -0.21135  -0.21116
 Alpha virt. eigenvalues --   -0.08790  -0.08781  -0.01756  -0.01682  -0.00064
 Alpha virt. eigenvalues --   -0.00025   0.02192   0.02207   0.03112   0.03226
 Alpha virt. eigenvalues --    0.04710   0.04730   0.05085   0.05163   0.06166

 Mulliken charges:
               1
     1  Mg   0.838661
     2  C   -0.002998
     3  C   -0.094106
     4  C   -0.045847
     5  C   -0.063946
     6  N   -0.256772
     7  C   -0.052475
     8  C   -0.014014
     9  C   -0.086982
    10  C    0.046298
    11  C    0.104804
    12  C    0.053467
    13  C   -0.071782
    14  H    0.036037
    15  N   -0.433131
    16  C    0.168431
    17  C   -0.177145
    18  C   -0.003976
    19  C    0.148724
    20  C    0.110181
    21  C    0.012311
    22  O   -0.249579
    23  C    0.062462
    24  N   -0.341116
    25  C    0.041237
    26  C   -0.028176
    27  C   -0.023987
    28  C    0.074841
    29  C    0.076164
    30  C    0.035128
    31  C   -0.004511
    32  N   -0.310445
    33  C    0.080370
    34  C   -0.169733
    35  C    0.008341
    36  C    0.082965
    37  C    0.127319
    38  C    0.046093
    39  O   -0.188510
    40  C   -0.005331
    41  C    0.212873
    42  O   -0.257148
    43  O   -0.304782
    44  C    0.157721
    45  H   -0.017584
    46  H   -0.016795
    47  H   -0.041492
    48  H    0.000922
    49  H   -0.004032
    50  H    0.025469
    51  H    0.016470
    52  H    0.016670
    53  H    0.011212
    54  H    0.044081
    55  H    0.017883
    56  H    0.017970
    57  H    0.005874
    58  H    0.026863
    59  H    0.039581
    60  H    0.037360
    61  H    0.035714
    62  H    0.031508
    63  H    0.016589
    64  H    0.009467
    65  H    0.023252
    66  H    0.012549
    67  H    0.004762
    68  H    0.006402
    69  H    0.004718
    70  H    0.008818
    71  H    0.018143
    72  H    0.028953
    73  H    0.047518
    74  H    0.009119
    75  H    0.046006
    76  H    0.035151
    77  H    0.042916
    78  H    0.046405
    79  H    0.053618
    80  Mg   0.837758
    81  C   -0.016820
    82  C   -0.087767
    83  C   -0.045485
    84  C   -0.064889
    85  N   -0.254562
    86  C   -0.049868
    87  C   -0.015068
    88  C   -0.090526
    89  C    0.045766
    90  C    0.114360
    91  C    0.062514
    92  C   -0.077899
    93  H    0.034864
    94  N   -0.423499
    95  C    0.162940
    96  C   -0.174575
    97  C   -0.007747
    98  C    0.152117
    99  C    0.099337
   100  C    0.015596
   101  O   -0.253135
   102  C    0.061191
   103  N   -0.350038
   104  C    0.037521
   105  C   -0.019828
   106  C   -0.034821
   107  C    0.088904
   108  C    0.073645
   109  C    0.034748
   110  C   -0.007685
   111  N   -0.324089
   112  C    0.078410
   113  C   -0.163167
   114  C    0.002218
   115  C    0.096159
   116  C    0.131491
   117  C    0.042359
   118  O   -0.187936
   119  C    0.000920
   120  C    0.211249
   121  O   -0.251030
   122  O   -0.305632
   123  C    0.152038
   124  H   -0.019588
   125  H   -0.015519
   126  H   -0.040488
   127  H   -0.000665
   128  H   -0.004286
   129  H    0.022438
   130  H    0.014449
   131  H    0.016328
   132  H    0.013938
   133  H    0.037659
   134  H    0.020787
   135  H    0.019629
   136  H    0.008794
   137  H    0.026274
   138  H    0.039891
   139  H    0.038342
   140  H    0.036522
   141  H    0.033906
   142  H    0.014429
   143  H    0.012399
   144  H    0.025187
   145  H    0.011664
   146  H    0.005657
   147  H    0.006272
   148  H    0.003619
   149  H    0.010962
   150  H    0.017911
   151  H    0.030103
   152  H    0.045972
   153  H    0.008496
   154  H    0.046911
   155  H    0.035011
   156  H    0.043887
   157  H    0.049505
   158  H    0.053562
 Sum of Mulliken charges =  -0.00000

 Dipole moment (field-independent basis, Debye):
    X=              4.8516    Y=              2.9519    Z=              1.4617  Tot=              5.8641
 Quadrupole moment (field-independent basis, Debye-Ang):
   XX=           -557.9582   YY=           -468.9410   ZZ=           -520.1951
   XY=              6.7280   XZ=            117.3783   YZ=             30.4000

 Normal termination of Gaussian 16 at Sun Sep 12 09:44:26 2021.
