 Gaussian 16, Revision A.03,
 Gaussian 16:  ES64L-G16RevA.03 25-Dec-2016

 -----------------------------------
 #p cam-b3lyp/Def2SVP td=(nstates=5)
 -----------------------------------

 --------------------------------
 TDDFT excited states in gaussian
 --------------------------------
 Symbolic Z-matrix:
 Charge =  0 Multiplicity = 1

                         Standard orientation:
 ---------------------------------------------------------------------
 Center     Atomic      Atomic             Coordinates (Angstroms)
 Number     Number       Type             X           Y           Z
 ---------------------------------------------------------------------
      1         12           0       -5.028247   -0.947984    0.122275
      2          6           0       -5.364991    1.982896    2.149282
      3          6           0       -6.067602    0.942208   -2.521583
      4          6           0       -5.175699   -3.615144   -1.586858
      5          6           0       -5.123134   -2.813947    3.064185
      6          7           0       -5.611056    1.181495   -0.039899
      7          6           0       -5.639341    2.212190    0.799170
      8          6           0       -5.914337    3.574592    0.095172
      9          6           0       -6.662156    3.038660   -1.206958
     10          6           0       -6.052198    1.650112   -1.283169
     11          6           0       -8.171154    2.903269   -1.030613
     12          6           0       -4.593618    4.330776   -0.273088
     13          6           0       -4.769608    5.801320   -0.662810
     14          1           0       -3.740774    6.755698   -0.278089
     15          7           0       -5.070120   -1.214919   -1.834724
     16          6           0       -5.510156   -0.332042   -2.763261
     17          6           0       -5.336243   -0.996983   -4.072570
     18          6           0       -4.936976   -2.408751   -3.816462
     19          6           0       -5.072171   -2.477521   -2.383853
     20          6           0       -5.497918   -0.289210   -5.382787
     21          6           0       -4.512627   -3.522591   -4.720575
     22          8           0       -4.434014   -4.733353   -4.317527
     23          6           0       -4.273578   -3.168632   -6.131465
     24          7           0       -5.354604   -2.945572    0.632930
     25          6           0       -5.310104   -3.910463   -0.292266
     26          6           0       -5.289345   -5.271211    0.338507
     27          6           0       -5.082993   -5.029942    1.903423
     28          6           0       -5.104154   -3.481459    1.908272
     29          6           0       -6.540843   -6.131443    0.115427
     30          6           0       -3.888825   -5.753374    2.575009
     31          6           0       -2.586925   -5.186172    2.054972
     32          7           0       -5.032453   -0.518994    2.249948
     33          6           0       -5.098277   -1.449087    3.297453
     34          6           0       -5.183755   -0.680502    4.552857
     35          6           0       -5.178391    0.651879    4.144720
     36          6           0       -5.121330    0.711485    2.722931
     37          6           0       -5.311847   -1.229701    5.859152
     38          6           0       -5.232439    2.038756    4.577743
     39          8           0       -5.195546    2.608435    5.669347
     40          6           0       -5.478321    2.954018    3.298030
     41          6           0       -4.495236    4.091287    3.356956
     42          8           0       -3.270711    3.885509    3.232219
     43          8           0       -5.159788    5.256143    3.311960
     44          6           0       -4.241002    6.425483    3.337061
     45          1           0       -6.605031    1.372540   -3.368887
     46          1           0       -5.118365   -4.559823   -2.131591
     47          1           0       -5.070579   -3.327144    4.026121
     48          1           0       -6.568076    4.248590    0.649046
     49          1           0       -6.400748    3.616540   -2.093210
     50          1           0       -8.468380    3.075050    0.003828
     51          1           0       -8.408807    1.882442   -1.330489
     52          1           0       -8.702348    3.551736   -1.727822
     53          1           0       -4.202838    3.935813   -1.210827
     54          1           0       -3.867942    4.257024    0.537642
     55          1           0       -5.757006    6.171673   -0.385696
     56          1           0       -4.749507    5.871172   -1.750430
     57          1           0       -5.954869    0.691256   -5.254624
     58          1           0       -6.226995   -0.855001   -5.962473
     59          1           0       -4.559371   -0.226101   -5.933677
     60          1           0       -5.184759   -2.746633   -6.555985
     61          1           0       -3.891987   -4.071235   -6.607432
     62          1           0       -3.521375   -2.380452   -6.175195
     63          1           0       -4.461082   -5.866665   -0.043383
     64          1           0       -5.948429   -5.349906    2.484213
     65          1           0       -6.332327   -7.095764   -0.348589
     66          1           0       -7.244708   -5.553603   -0.482875
     67          1           0       -7.127733   -6.325896    1.012737
     68          1           0       -3.899037   -6.813850    2.325546
     69          1           0       -3.890079   -5.668284    3.661751
     70          1           0       -2.435277   -5.736134    1.126869
     71          1           0       -1.778503   -5.380620    2.760560
     72          1           0       -2.687134   -4.131870    1.796339
     73          1           0       -4.633194   -0.662744    6.496300
     74          1           0       -5.068633   -2.291952    5.867699
     75          1           0       -6.367379   -1.041419    6.054749
     76          1           0       -6.509604    3.301022    3.354296
     77          1           0       -4.542560    7.052681    4.176060
     78          1           0       -4.271689    6.865136    2.339981
     79          1           0       -3.202886    6.217310    3.598437
     80         12           0        5.534128   -0.316786   -0.074411
     81          6           0        3.325247    1.885826   -1.848770
     82          6           0        7.831760    2.204035   -0.106446
     83          6           0        7.656863   -2.370711    1.084407
     84          6           0        3.550971   -2.964156   -1.171769
     85          7           0        5.469296    1.733933   -0.900602
     86          6           0        4.554875    2.481995   -1.499422
     87          6           0        4.951927    3.973434   -1.665258
     88          6           0        6.548127    3.804219   -1.616218
     89          6           0        6.632625    2.520099   -0.793677
     90          6           0        7.167482    3.540386   -2.978617
     91          6           0        4.432274    4.865276   -0.483486
     92          6           0        4.514558    6.373111   -0.731353
     93          1           0        3.462255    7.226495   -0.186503
     94          7           0        7.262068    0.005030    0.847134
     95          6           0        8.052557    1.093300    0.737268
     96          6           0        9.216429    0.833779    1.598790
     97          6           0        9.128177   -0.565602    2.097457
     98          6           0        7.998522   -1.048563    1.328879
     99          6           0       10.228179    1.889154    1.939359
    100          6           0        9.935826   -1.344566    3.090990
    101          8           0        9.829983   -2.617716    3.194556
    102          6           0       10.921519   -0.585160    3.874058
    103          7           0        5.722128   -2.382234   -0.219053
    104          6           0        6.707233   -3.033462    0.423900
    105          6           0        6.480611   -4.526264    0.399836
    106          6           0        5.006498   -4.727635   -0.186681
    107          6           0        4.654493   -3.256209   -0.497149
    108          6           0        7.474232   -5.336640   -0.432286
    109          6           0        4.014924   -5.559485    0.672099
    110          6           0        3.681197   -4.812805    1.943513
    111          7           0        3.660352   -0.523066   -1.130085
    112          6           0        3.022865   -1.724622   -1.509500
    113          6           0        1.834832   -1.354533   -2.305776
    114          6           0        1.876672    0.047035   -2.354174
    115          6           0        3.021808    0.516378   -1.655695
    116          6           0        0.922283   -2.264326   -2.910464
    117          6           0        1.218296    1.235731   -2.846345
    118          8           0        0.158793    1.463969   -3.428666
    119          6           0        2.195734    2.473424   -2.648493
    120          6           0        1.406773    3.593829   -2.028213
    121          8           0        0.947614    3.482173   -0.877856
    122          8           0        1.509369    4.687666   -2.804976
    123          6           0        0.752449    5.829282   -2.225681
    124          1           0        8.701470    2.843611   -0.259487
    125          1           0        8.297481   -3.118479    1.557609
    126          1           0        2.827914   -3.727550   -1.466872
    127          1           0        4.654191    4.420895   -2.605951
    128          1           0        7.016596    4.628737   -1.085132
    129          1           0        6.416761    3.392304   -3.740610
    130          1           0        7.768180    2.648009   -2.860838
    131          1           0        7.865658    4.341743   -3.236881
    132          1           0        5.124513    4.776075    0.363630
    133          1           0        3.428501    4.597186   -0.216677
    134          1           0        4.691334    6.608092   -1.787996
    135          1           0        5.398199    6.761297   -0.218995
    136          1           0       10.122711    2.770445    1.294685
    137          1           0       11.212748    1.482371    1.684395
    138          1           0       10.219168    2.155118    2.998535
    139          1           0       11.624314   -0.102354    3.199199
    140          1           0       11.335827   -1.296557    4.591100
    141          1           0       10.400202    0.215249    4.410883
    142          1           0        6.520313   -4.939617    1.400175
    143          1           0        5.020301   -5.257531   -1.150446
    144          1           0        7.991042   -6.123314    0.149191
    145          1           0        8.190872   -4.653626   -0.868705
    146          1           0        7.052922   -5.822008   -1.310985
    147          1           0        4.476637   -6.501643    0.977561
    148          1           0        3.094712   -5.805312    0.152711
    149          1           0        4.518197   -5.061633    2.602766
    150          1           0        2.736650   -5.161721    2.355975
    151          1           0        3.701107   -3.729021    1.780219
    152          1           0       -0.071246   -1.878700   -2.724179
    153          1           0        1.040497   -3.269802   -2.511966
    154          1           0        1.241498   -2.196152   -3.953881
    155          1           0        2.586391    2.742604   -3.630583
    156          1           0        0.053552    6.172385   -2.994780
    157          1           0        1.517098    6.550968   -1.881838
    158          1           0        0.076850    5.617885   -1.405113
 ---------------------------------------------------------------------

 SCF Done:  E(RCAM-B3LYP) =  -4069.81150700     A.U. after   19 cycles

 Excitation energies and oscillator strengths:

 Excited State   1:      Singlet-A      1.6589 eV  747.38 nm  f=0.2224  <S**2>=0.000
     309 -> 315       -0.13044
     310 -> 316       -0.10756
     311 -> 313        0.52797
     312 -> 314       -0.43953
 This state for optimization and/or second-order correction.
 Total Energy, E(TD-HF/TD-DFT) =  -4069.75054296
 Copying the excited state density for this state as the 1-particle RhoCI density.

 Excited State   2:      Singlet-A      1.6932 eV  732.24 nm  f=0.5443  <S**2>=0.000
     309 -> 315       -0.11360
     310 -> 316        0.13678
     311 -> 313        0.43821
     312 -> 314        0.52638

 Excited State   3:      Singlet-A      2.1807 eV  568.55 nm  f=0.0120  <S**2>=0.000
     309 -> 313        0.55016
     310 -> 314       -0.33618
     311 -> 315        0.22990
     312 -> 316        0.13908

 Excited State   4:      Singlet-A      2.1936 eV  565.21 nm  f=0.1655  <S**2>=0.000
     309 -> 313        0.33295
     310 -> 314        0.54609
     311 -> 315        0.14507
     312 -> 316       -0.23835

 Excited State   5:      Singlet-A      2.4053 eV  515.47 nm  f=0.0000  <S**2>=0.000
     312 -> 313        0.70609

 The electronic state is 1-A.
 Alpha  occ. eigenvalues --  -46.87562 -46.87255 -19.26305 -19.25814 -19.19044
 Alpha  occ. eigenvalues --  -19.18628 -19.18474 -19.18376 -19.18045 -19.17692
 Alpha  occ. eigenvalues --  -14.42403 -14.41915 -14.41268 -14.40958 -14.39258
 Alpha  occ. eigenvalues --  -14.38866 -14.38506 -14.38060 -10.38985 -10.38545
 Alpha  occ. eigenvalues --  -10.35305 -10.35010 -10.34215 -10.33909 -10.31768
 Alpha  occ. eigenvalues --  -10.31289 -10.31226 -10.30933 -10.30881 -10.30364
 Alpha  occ. eigenvalues --  -10.30309 -10.30276 -10.30044 -10.30044 -10.30024
 Alpha  occ. eigenvalues --  -10.29807 -10.29736 -10.29478 -10.29341 -10.29316
 Alpha  occ. eigenvalues --  -10.29140 -10.28737 -10.28636 -10.28569 -10.28319
 Alpha  occ. eigenvalues --  -10.28219 -10.28144 -10.28066 -10.27920 -10.27830
 Alpha  occ. eigenvalues --  -10.27608 -10.27582 -10.27423 -10.27395 -10.27382
 Alpha  occ. eigenvalues --  -10.27379 -10.27289 -10.27283 -10.27202 -10.27160
 Alpha  occ. eigenvalues --  -10.27118 -10.27075 -10.27002 -10.26890 -10.26890
 Alpha  occ. eigenvalues --  -10.26666 -10.26574 -10.26327 -10.26073 -10.26034
 Alpha  occ. eigenvalues --  -10.25978 -10.25955 -10.25932 -10.25835 -10.25799
 Alpha  occ. eigenvalues --  -10.25757 -10.25541 -10.25432 -10.25324 -10.25139
 Alpha  occ. eigenvalues --  -10.24796 -10.24621 -10.24603 -10.24488 -10.24327
 Alpha  occ. eigenvalues --  -10.24316  -3.16310  -3.15994  -1.91192  -1.90875
 Alpha  occ. eigenvalues --   -1.90781  -1.90619  -1.90463  -1.90306  -1.16588
 Alpha  occ. eigenvalues --   -1.16150  -1.08652  -1.08152  -1.06880  -1.06846
 Alpha  occ. eigenvalues --   -1.06786  -1.06110  -1.04405  -1.04049  -1.03573
 Alpha  occ. eigenvalues --   -1.03266  -1.02948  -1.02721  -1.02022  -1.01904
 Alpha  occ. eigenvalues --   -0.91910  -0.91465  -0.89404  -0.89118  -0.89069
 Alpha  occ. eigenvalues --   -0.88672  -0.88130  -0.87891  -0.87708  -0.87593
 Alpha  occ. eigenvalues --   -0.87392  -0.87159  -0.87033  -0.86757  -0.84914
 Alpha  occ. eigenvalues --   -0.84487  -0.83789  -0.83580  -0.82845  -0.82574
 Alpha  occ. eigenvalues --   -0.82514  -0.82174  -0.81537  -0.81125  -0.80370
 Alpha  occ. eigenvalues --   -0.80116  -0.78549  -0.78289  -0.77059  -0.76828
 Alpha  occ. eigenvalues --   -0.76777  -0.76486  -0.75774  -0.75454  -0.74726
 Alpha  occ. eigenvalues --   -0.74501  -0.72611  -0.72297  -0.71504  -0.71210
 Alpha  occ. eigenvalues --   -0.69663  -0.69575  -0.68746  -0.68391  -0.67522
 Alpha  occ. eigenvalues --   -0.67161  -0.67108  -0.66713  -0.65192  -0.64781
 Alpha  occ. eigenvalues --   -0.64688  -0.64578  -0.64378  -0.64168  -0.64117
 Alpha  occ. eigenvalues --   -0.63843  -0.62217  -0.61837  -0.60253  -0.59963
 Alpha  occ. eigenvalues --   -0.59713  -0.59290  -0.58910  -0.58513  -0.58347
 Alpha  occ. eigenvalues --   -0.58027  -0.57486  -0.57155  -0.57095  -0.56861
 Alpha  occ. eigenvalues --   -0.56119  -0.55828  -0.55824  -0.55511  -0.55376
 Alpha  occ. eigenvalues --   -0.55170  -0.55055  -0.54940  -0.54410  -0.54103
 Alpha  occ. eigenvalues --   -0.53827  -0.53381  -0.53145  -0.53061  -0.52841
 Alpha  occ. eigenvalues --   -0.52811  -0.52730  -0.52584  -0.52446  -0.52305
 Alpha  occ. eigenvalues --   -0.52267  -0.52095  -0.51801  -0.51573  -0.51464
 Alpha  occ. eigenvalues --   -0.51135  -0.51104  -0.50741  -0.50388  -0.50070
 Alpha  occ. eigenvalues --   -0.49896  -0.49784  -0.49645  -0.49431  -0.49402
 Alpha  occ. eigenvalues --   -0.49123  -0.49047  -0.49036  -0.48728  -0.48632
 Alpha  occ. eigenvalues --   -0.48486  -0.48311  -0.48260  -0.48149  -0.48040
 Alpha  occ. eigenvalues --   -0.47978  -0.47518  -0.47232  -0.47036  -0.46827
 Alpha  occ. eigenvalues --   -0.46622  -0.46470  -0.46349  -0.46185  -0.46064
 Alpha  occ. eigenvalues --   -0.46000  -0.45884  -0.45753  -0.45715  -0.45377
 Alpha  occ. eigenvalues --   -0.45127  -0.44814  -0.44445  -0.44395  -0.44126
 Alpha  occ. eigenvalues --   -0.44067  -0.44060  -0.43994  -0.43867  -0.43722
 Alpha  occ. eigenvalues --   -0.43626  -0.43545  -0.43493  -0.43306  -0.43041
 Alpha  occ. eigenvalues --   -0.42917  -0.42865  -0.42833  -0.42573  -0.42463
 Alpha  occ. eigenvalues --   -0.42312  -0.42218  -0.41876  -0.41611  -0.41600
 Alpha  occ. eigenvalues --   -0.41372  -0.41234  -0.41067  -0.40915  -0.40684
 Alpha  occ. eigenvalues --   -0.40634  -0.40610  -0.40438  -0.40407  -0.40365
 Alpha  occ. eigenvalues --   -0.40164  -0.40131  -0.39689  -0.39327  -0.39128
 Alpha  occ. eigenvalues --   -0.38261  -0.38075  -0.37563  -0.37264  -0.37174
 Alpha  occ. eigenvalues --   -0.37110  -0.36887  -0.36747  -0.36690  -0.36244
 Alpha  occ. eigenvalues --   -0.36127  -0.35725  -0.34162  -0.33779  -0.33742
 Alpha  occ. eigenvalues --   -0.33225  -0.33083  -0.32677  -0.31186  -0.30909
 Alpha  occ. eigenvalues --   -0.30884  -0.30538  -0.29947  -0.29552  -0.29243
 Alpha  occ. eigenvalues --   -0.29134  -0.28931  -0.28810  -0.23944  -0.23564
 Alpha  occ. eigenvalues --   -0.21029  -0.20620
 Alpha virt. eigenvalues --   -0.08708  -0.08262  -0.01591  -0.01255   0.00052
 Alpha virt. eigenvalues --    0.00446   0.02264   0.02674   0.03387   0.03762
 Alpha virt. eigenvalues --    0.04816   0.05177   0.05253   0.05618   0.06235

 Mulliken charges:
               1
     1  Mg   0.843527
     2  C   -0.000334
     3  C   -0.090091
     4  C   -0.047622
     5  C   -0.065061
     6  N   -0.256586
     7  C   -0.050797
     8  C   -0.015375
     9  C   -0.088032
    10  C    0.048589
    11  C    0.105101
    12  C    0.052770
    13  C   -0.070313
    14  H    0.030113
    15  N   -0.433192
    16  C    0.172474
    17  C   -0.173477
    18  C   -0.004134
    19  C    0.148266
    20  C    0.110530
    21  C    0.011658
    22  O   -0.252160
    23  C    0.061488
    24  N   -0.341170
    25  C    0.041422
    26  C   -0.027781
    27  C   -0.023605
    28  C    0.074484
    29  C    0.076613
    30  C    0.035666
    31  C   -0.004621
    32  N   -0.310364
    33  C    0.080481
    34  C   -0.170552
    35  C    0.007719
    36  C    0.083929
    37  C    0.127436
    38  C    0.046331
    39  O   -0.190090
    40  C   -0.005906
    41  C    0.211534
    42  O   -0.253073
    43  O   -0.305601
    44  C    0.158434
    45  H   -0.018583
    46  H   -0.018637
    47  H   -0.043124
    48  H   -0.000671
    49  H   -0.003721
    50  H    0.024736
    51  H    0.015939
    52  H    0.015470
    53  H    0.017794
    54  H    0.048635
    55  H    0.016610
    56  H    0.017180
    57  H    0.005755
    58  H    0.024486
    59  H    0.044286
    60  H    0.036783
    61  H    0.033413
    62  H    0.035287
    63  H    0.014624
    64  H    0.008694
    65  H    0.021911
    66  H    0.012672
    67  H    0.004048
    68  H    0.004839
    69  H    0.004511
    70  H    0.006225
    71  H    0.016298
    72  H    0.031410
    73  H    0.046889
    74  H    0.008039
    75  H    0.044902
    76  H    0.033858
    77  H    0.041223
    78  H    0.045327
    79  H    0.054047
    80  Mg   0.839447
    81  C   -0.015916
    82  C   -0.087795
    83  C   -0.045464
    84  C   -0.064887
    85  N   -0.254608
    86  C   -0.049591
    87  C   -0.015403
    88  C   -0.090552
    89  C    0.046112
    90  C    0.114508
    91  C    0.062340
    92  C   -0.077771
    93  H    0.034945
    94  N   -0.423427
    95  C    0.163311
    96  C   -0.174620
    97  C   -0.007677
    98  C    0.152312
    99  C    0.099437
   100  C    0.015739
   101  O   -0.253244
   102  C    0.061095
   103  N   -0.350097
   104  C    0.037581
   105  C   -0.019826
   106  C   -0.034811
   107  C    0.088882
   108  C    0.073727
   109  C    0.034586
   110  C   -0.007666
   111  N   -0.324094
   112  C    0.078581
   113  C   -0.163027
   114  C    0.000905
   115  C    0.097437
   116  C    0.129907
   117  C    0.043141
   118  O   -0.191310
   119  C    0.000850
   120  C    0.209192
   121  O   -0.246434
   122  O   -0.306544
   123  C    0.151702
   124  H   -0.019929
   125  H   -0.015659
   126  H   -0.039857
   127  H   -0.001462
   128  H   -0.004304
   129  H    0.021919
   130  H    0.014351
   131  H    0.015959
   132  H    0.014585
   133  H    0.039490
   134  H    0.019826
   135  H    0.019563
   136  H    0.008659
   137  H    0.025894
   138  H    0.040099
   139  H    0.038040
   140  H    0.036339
   141  H    0.034278
   142  H    0.014431
   143  H    0.012437
   144  H    0.024985
   145  H    0.011433
   146  H    0.005589
   147  H    0.005836
   148  H    0.004214
   149  H    0.010753
   150  H    0.017583
   151  H    0.030918
   152  H    0.047174
   153  H    0.011105
   154  H    0.045277
   155  H    0.033719
   156  H    0.040847
   157  H    0.049667
   158  H    0.055483
 Sum of Mulliken charges =  -0.00000

 Dipole moment (field-independent basis, Debye):
    X=              2.1024    Y=              2.8793    Z=             -4.3863  Tot=              5.6524
 Quadrupole moment (field-independent basis, Debye-Ang):
   XX=           -468.4746   YY=           -467.5765   ZZ=           -526.5534
   XY=             25.0501   XZ=             10.9843   YZ=            -26.9841

 Normal termination of Gaussian 16 at Fri Sep 10 16:41:50 2021.
