 Gaussian 16, Revision A.03,
 Gaussian 16:  ES64L-G16RevA.03 25-Dec-2016

 -----------------------------------
 #p cam-b3lyp/Def2SVP td=(nstates=5)
 -----------------------------------

 --------------------------------
 TDDFT excited states in gaussian
 --------------------------------
 Symbolic Z-matrix:
 Charge =  0 Multiplicity = 1

                         Standard orientation:
 ---------------------------------------------------------------------
 Center     Atomic      Atomic             Coordinates (Angstroms)
 Number     Number       Type             X           Y           Z
 ---------------------------------------------------------------------
      1         12           0        4.056076   -1.746741   -0.067709
      2          6           0        5.625878    1.434468   -0.545038
      3          6           0        5.161264   -1.641123    3.158817
      4          6           0        3.075228   -4.745475    0.251908
      5          6           0        4.070231   -2.108375   -3.533929
      6          7           0        5.233103   -0.239891    1.047933
      7          6           0        5.722452    0.963600    0.766298
      8          6           0        6.281229    1.710811    2.014024
      9          6           0        6.591778    0.452626    2.942748
     10          6           0        5.578097   -0.524840    2.374475
     11          6           0        7.991344   -0.120409    2.744385
     12          6           0        5.217227    2.656037    2.666848
     13          6           0        5.770692    3.660363    3.681915
     14          1           0        5.169945    4.983556    3.756817
     15          7           0        3.677631   -2.804635    1.557250
     16          6           0        4.203787   -2.610892    2.790501
     17          6           0        3.611067   -3.653990    3.654972
     18          6           0        2.844119   -4.586171    2.782663
     19          6           0        3.194431   -4.091336    1.475836
     20          6           0        3.757314   -3.668138    5.145664
     21          6           0        1.947451   -5.746370    3.079406
     22          8           0        1.567820   -6.562295    2.171264
     23          6           0        1.592074   -5.956869    4.494481
     24          7           0        3.829867   -3.318842   -1.422318
     25          6           0        3.330999   -4.497646   -1.034330
     26          6           0        2.997984   -5.364064   -2.212617
     27          6           0        3.147545   -4.433720   -3.501742
     28          6           0        3.647871   -3.144157   -2.805344
     29          6           0        3.863812   -6.619555   -2.386104
     30          6           0        1.921488   -4.335051   -4.443797
     31          6           0        0.790569   -3.618113   -3.740860
     32          7           0        4.557029   -0.498114   -1.770948
     33          6           0        4.509725   -0.860412   -3.124896
     34          6           0        5.042616    0.278060   -3.895595
     35          6           0        5.380511    1.223264   -2.929023
     36          6           0        5.102289    0.697664   -1.634948
     37          6           0        5.215835    0.320701   -5.307193
     38          6           0        5.934809    2.545417   -2.687109
     39          8           0        6.263598    3.492199   -3.403346
     40          6           0        6.229311    2.687792   -1.128640
     41          6           0        5.672254    4.011274   -0.679872
     42          8           0        4.441890    4.219997   -0.678059
     43          8           0        6.646955    4.731578   -0.103970
     44          6           0        6.154183    6.044971    0.390326
     45          1           0        5.652217   -1.826263    4.116225
     46          1           0        2.635728   -5.743448    0.309590
     47          1           0        4.026716   -2.115998   -4.624572
     48          1           0        7.196242    2.275312    1.833708
     49          1           0        6.374641    0.657089    3.990969
     50          1           0        8.499579    0.351493    1.903595
     51          1           0        7.846053   -1.183816    2.553208
     52          1           0        8.569729   -0.058035    3.666533
     53          1           0        4.568903    2.071083    3.319201
     54          1           0        4.654418    3.190642    1.900839
     55          1           0        6.856338    3.736975    3.615500
     56          1           0        5.587400    3.270255    4.683124
     57          1           0        4.510363   -2.956079    5.480976
     58          1           0        4.164721   -4.642013    5.416394
     59          1           0        2.804786   -3.514210    5.652941
     60          1           0        2.502360   -6.104044    5.076090
     61          1           0        0.874107   -6.776168    4.505548
     62          1           0        1.125243   -5.049996    4.879965
     63          1           0        1.973508   -5.729107   -2.152467
     64          1           0        3.957239   -4.764075   -4.152845
     65          1           0        3.290644   -7.546673   -2.411303
     66          1           0        4.598739   -6.635879   -1.581800
     67          1           0        4.506039   -6.613832   -3.266405
     68          1           0        1.559821   -5.330059   -4.700899
     69          1           0        2.135002   -3.809065   -5.374389
     70          1           0        0.319530   -4.413230   -3.164020
     71          1           0        0.094984   -3.199229   -4.468808
     72          1           0        1.166643   -2.880177   -3.031985
     73          1           0        4.865784    1.301791   -5.627966
     74          1           0        4.660749   -0.478075   -5.798558
     75          1           0        6.294851    0.186799   -5.382364
     76          1           0        7.310973    2.636838   -1.008090
     77          1           0        6.774106    6.814335   -0.070117
     78          1           0        6.148447    5.984100    1.478750
     79          1           0        5.163498    6.347518    0.049229
     80         12           0       -4.214761    1.800147    0.199230
     81          6           0       -5.440501   -1.571230    0.096929
     82          6           0       -3.505438    1.484641   -3.122201
     83          6           0       -2.719665    4.594415    0.354694
     84          6           0       -3.957448    1.454360    3.657542
     85          7           0       -4.484747    0.124228   -1.218752
     86          6           0       -5.017588   -1.086881   -1.158460
     87          6           0       -5.175660   -1.789212   -2.533699
     88          6           0       -4.035396   -0.997118   -3.340702
     89          6           0       -4.025613    0.302192   -2.537968
     90          6           0       -2.662389   -1.638590   -3.227895
     91          6           0       -6.593239   -1.555839   -3.164606
     92          6           0       -6.925042   -2.460793   -4.353185
     93          1           0       -8.302981   -2.915032   -4.518797
     94          7           0       -3.702428    3.064500   -1.242117
     95          6           0       -3.476521    2.770850   -2.539818
     96          6           0       -3.109619    4.042466   -3.182091
     97          6           0       -2.977011    5.081037   -2.124500
     98          6           0       -3.110451    4.264355   -0.934839
     99          6           0       -2.998168    4.199748   -4.670804
    100          6           0       -2.752761    6.562040   -2.175204
    101          8           0       -2.432122    7.230677   -1.129767
    102          6           0       -2.828012    7.191451   -3.501728
    103          7           0       -3.250030    2.798911    1.746522
    104          6           0       -2.730376    4.024922    1.560051
    105          6           0       -2.335216    4.655532    2.874037
    106          6           0       -2.922833    3.691835    4.006990
    107          6           0       -3.504547    2.575115    3.112605
    108          6           0       -0.834916    4.845818    3.096037
    109          6           0       -3.846691    4.341142    5.073555
    110          6           0       -5.138449    4.792949    4.431194
    111          7           0       -4.786693    0.315220    1.660724
    112          6           0       -4.561112    0.358571    3.054031
    113          6           0       -5.025222   -0.928827    3.610479
    114          6           0       -5.470936   -1.646544    2.490335
    115          6           0       -5.278226   -0.869711    1.316068
    116          6           0       -4.955893   -1.317295    4.978105
    117          6           0       -6.050806   -2.888843    2.033023
    118          8           0       -6.507523   -3.889288    2.584604
    119          6           0       -5.940124   -2.945072    0.448417
    120          6           0       -7.278075   -3.364570   -0.096057
    121          8           0       -8.272539   -2.629442    0.035193
    122          8           0       -7.117676   -4.455724   -0.866792
    123          6           0       -8.415499   -4.903410   -1.438678
    124          1           0       -3.035955    1.415165   -4.103852
    125          1           0       -2.299170    5.595098    0.478373
    126          1           0       -4.001638    1.307317    4.738795
    127          1           0       -4.958822   -2.850685   -2.529274
    128          1           0       -4.336999   -0.808528   -4.367754
    129          1           0       -2.657105   -2.458018   -2.524581
    130          1           0       -1.996517   -0.852133   -2.897529
    131          1           0       -2.305026   -1.940566   -4.216549
    132          1           0       -6.606660   -0.578171   -3.663330
    133          1           0       -7.360511   -1.641569   -2.419905
    134          1           0       -6.229623   -3.304945   -4.435300
    135          1           0       -6.769162   -1.894514   -5.274629
    136          1           0       -2.988032    3.227292   -5.178388
    137          1           0       -2.008497    4.622769   -4.874448
    138          1           0       -3.758990    4.866610   -5.082046
    139          1           0       -2.093574    6.734284   -4.160555
    140          1           0       -2.729633    8.263840   -3.322352
    141          1           0       -3.812693    6.980603   -3.933661
    142          1           0       -2.780850    5.636825    2.981554
    143          1           0       -2.122938    3.230879    4.604929
    144          1           0       -0.553832    5.895995    3.301458
    145          1           0       -0.311262    4.475488    2.224720
    146          1           0       -0.406499    4.244386    3.895999
    147          1           0       -3.376250    5.236357    5.487599
    148          1           0       -4.074917    3.683212    5.905434
    149          1           0       -4.876871    5.768528    4.010589
    150          1           0       -5.926017    4.882847    5.176648
    151          1           0       -5.413472    4.137296    3.596856
    152          1           0       -5.901447   -1.785608    5.217058
    153          1           0       -4.759313   -0.464268    5.624233
    154          1           0       -4.109563   -2.008442    4.941879
    155          1           0       -5.154685   -3.659887    0.200043
    156          1           0       -8.546701   -5.951264   -1.151503
    157          1           0       -8.357684   -4.681133   -2.520806
    158          1           0       -9.319422   -4.459594   -1.038171
 ---------------------------------------------------------------------

 SCF Done:  E(RCAM-B3LYP) =  -4069.81159484     A.U. after   19 cycles

 Excitation energies and oscillator strengths:

 Excited State   1:      Singlet-A      1.6483 eV  752.19 nm  f=0.0083  <S**2>=0.000
     309 -> 315        0.11346
     310 -> 316        0.12283
     311 -> 313        0.46574
     312 -> 314        0.50590
 This state for optimization and/or second-order correction.
 Total Energy, E(TD-HF/TD-DFT) =  -4069.75102062
 Copying the excited state density for this state as the 1-particle RhoCI density.

 Excited State   2:      Singlet-A      1.7053 eV  727.04 nm  f=0.6890  <S**2>=0.000
     309 -> 315        0.13396
     310 -> 316       -0.12307
     311 -> 313        0.50330
     312 -> 314       -0.46340

 Excited State   3:      Singlet-A      2.1828 eV  568.02 nm  f=0.0109  <S**2>=0.000
     309 -> 313        0.34536
     310 -> 314        0.54485
     311 -> 315       -0.14332
     312 -> 316       -0.22728

 Excited State   4:      Singlet-A      2.1973 eV  564.27 nm  f=0.1634  <S**2>=0.000
     309 -> 313        0.53990
     310 -> 314       -0.34091
     311 -> 315       -0.23844
     312 -> 316        0.15163

 Excited State   5:      Singlet-A      2.3510 eV  527.37 nm  f=0.0000  <S**2>=0.000
     312 -> 313        0.70707

 The electronic state is 1-A.
 Alpha  occ. eigenvalues --  -46.87899 -46.87441 -19.26308 -19.26186 -19.19049
 Alpha  occ. eigenvalues --  -19.18991 -19.18838 -19.18430 -19.18258 -19.17843
 Alpha  occ. eigenvalues --  -14.42549 -14.42281 -14.41563 -14.41144 -14.39496
 Alpha  occ. eigenvalues --  -14.39119 -14.38692 -14.38386 -10.39114 -10.38917
 Alpha  occ. eigenvalues --  -10.35466 -10.35102 -10.34477 -10.34023 -10.31676
 Alpha  occ. eigenvalues --  -10.31617 -10.31511 -10.31115 -10.30988 -10.30788
 Alpha  occ. eigenvalues --  -10.30680 -10.30612 -10.30322 -10.30177 -10.30157
 Alpha  occ. eigenvalues --  -10.30046 -10.29915 -10.29728 -10.29688 -10.29349
 Alpha  occ. eigenvalues --  -10.29197 -10.29180 -10.28827 -10.28607 -10.28532
 Alpha  occ. eigenvalues --  -10.28527 -10.28452 -10.28201 -10.28170 -10.27956
 Alpha  occ. eigenvalues --  -10.27891 -10.27828 -10.27776 -10.27681 -10.27669
 Alpha  occ. eigenvalues --  -10.27601 -10.27540 -10.27496 -10.27450 -10.27354
 Alpha  occ. eigenvalues --  -10.27263 -10.27229 -10.27226 -10.27178 -10.27173
 Alpha  occ. eigenvalues --  -10.26841 -10.26782 -10.26532 -10.26458 -10.26371
 Alpha  occ. eigenvalues --  -10.26311 -10.26148 -10.26101 -10.26023 -10.26007
 Alpha  occ. eigenvalues --  -10.25838 -10.25745 -10.25735 -10.25557 -10.25150
 Alpha  occ. eigenvalues --  -10.25051 -10.24931 -10.24890 -10.24654 -10.24613
 Alpha  occ. eigenvalues --  -10.24453  -3.16641  -3.16191  -1.91523  -1.91110
 Alpha  occ. eigenvalues --   -1.91073  -1.90952  -1.90662  -1.90498  -1.16659
 Alpha  occ. eigenvalues --   -1.16478  -1.08714  -1.08456  -1.07234  -1.06776
 Alpha  occ. eigenvalues --   -1.06674  -1.06674  -1.04677  -1.04278  -1.03868
 Alpha  occ. eigenvalues --   -1.03442  -1.03337  -1.02820  -1.02516  -1.01892
 Alpha  occ. eigenvalues --   -0.92064  -0.91773  -0.89680  -0.89303  -0.89275
 Alpha  occ. eigenvalues --   -0.88966  -0.88437  -0.88026  -0.87991  -0.87774
 Alpha  occ. eigenvalues --   -0.87612  -0.87477  -0.87337  -0.86855  -0.85069
 Alpha  occ. eigenvalues --   -0.84805  -0.84109  -0.83690  -0.83031  -0.82719
 Alpha  occ. eigenvalues --   -0.82678  -0.82435  -0.81659  -0.81412  -0.80675
 Alpha  occ. eigenvalues --   -0.80236  -0.78882  -0.78403  -0.77342  -0.77032
 Alpha  occ. eigenvalues --   -0.76949  -0.76714  -0.76006  -0.75644  -0.75025
 Alpha  occ. eigenvalues --   -0.74595  -0.72889  -0.72496  -0.71771  -0.71371
 Alpha  occ. eigenvalues --   -0.70116  -0.69592  -0.68959  -0.68628  -0.67729
 Alpha  occ. eigenvalues --   -0.67388  -0.67288  -0.66992  -0.65380  -0.65081
 Alpha  occ. eigenvalues --   -0.64955  -0.64723  -0.64570  -0.64461  -0.64408
 Alpha  occ. eigenvalues --   -0.64014  -0.62367  -0.62095  -0.60527  -0.60097
 Alpha  occ. eigenvalues --   -0.59894  -0.59600  -0.59094  -0.58784  -0.58604
 Alpha  occ. eigenvalues --   -0.58218  -0.57663  -0.57412  -0.57361  -0.57024
 Alpha  occ. eigenvalues --   -0.56404  -0.56031  -0.56001  -0.55701  -0.55596
 Alpha  occ. eigenvalues --   -0.55471  -0.55229  -0.55064  -0.54639  -0.54310
 Alpha  occ. eigenvalues --   -0.53978  -0.53734  -0.53398  -0.53282  -0.53031
 Alpha  occ. eigenvalues --   -0.53005  -0.52925  -0.52817  -0.52716  -0.52634
 Alpha  occ. eigenvalues --   -0.52403  -0.52250  -0.52048  -0.51738  -0.51684
 Alpha  occ. eigenvalues --   -0.51450  -0.51310  -0.51012  -0.50621  -0.50210
 Alpha  occ. eigenvalues --   -0.50191  -0.49980  -0.49762  -0.49655  -0.49580
 Alpha  occ. eigenvalues --   -0.49297  -0.49260  -0.49181  -0.48989  -0.48914
 Alpha  occ. eigenvalues --   -0.48684  -0.48573  -0.48492  -0.48368  -0.48179
 Alpha  occ. eigenvalues --   -0.48083  -0.47785  -0.47382  -0.47380  -0.46930
 Alpha  occ. eigenvalues --   -0.46885  -0.46635  -0.46524  -0.46470  -0.46360
 Alpha  occ. eigenvalues --   -0.46271  -0.46059  -0.45921  -0.45895  -0.45653
 Alpha  occ. eigenvalues --   -0.45333  -0.44983  -0.44684  -0.44592  -0.44330
 Alpha  occ. eigenvalues --   -0.44291  -0.44269  -0.44169  -0.44083  -0.43928
 Alpha  occ. eigenvalues --   -0.43872  -0.43706  -0.43579  -0.43488  -0.43378
 Alpha  occ. eigenvalues --   -0.43205  -0.43125  -0.42862  -0.42745  -0.42726
 Alpha  occ. eigenvalues --   -0.42692  -0.42353  -0.42154  -0.41804  -0.41789
 Alpha  occ. eigenvalues --   -0.41625  -0.41465  -0.41269  -0.41238  -0.40996
 Alpha  occ. eigenvalues --   -0.40862  -0.40784  -0.40708  -0.40531  -0.40456
 Alpha  occ. eigenvalues --   -0.40311  -0.40303  -0.40028  -0.39657  -0.39265
 Alpha  occ. eigenvalues --   -0.38613  -0.38161  -0.37833  -0.37477  -0.37456
 Alpha  occ. eigenvalues --   -0.37349  -0.37072  -0.36996  -0.36786  -0.36598
 Alpha  occ. eigenvalues --   -0.36283  -0.36023  -0.34390  -0.34042  -0.33812
 Alpha  occ. eigenvalues --   -0.33681  -0.33284  -0.32959  -0.31372  -0.31129
 Alpha  occ. eigenvalues --   -0.30994  -0.30748  -0.30118  -0.29752  -0.29533
 Alpha  occ. eigenvalues --   -0.29421  -0.29085  -0.28990  -0.24183  -0.23816
 Alpha  occ. eigenvalues --   -0.21234  -0.20896
 Alpha virt. eigenvalues --   -0.08869  -0.08562  -0.01850  -0.01458  -0.00121
 Alpha virt. eigenvalues --    0.00223   0.02100   0.02407   0.02841   0.03490
 Alpha virt. eigenvalues --    0.04620   0.04920   0.05054   0.05344   0.06097

 Mulliken charges:
               1
     1  Mg   0.838807
     2  C   -0.002488
     3  C   -0.094106
     4  C   -0.045875
     5  C   -0.064844
     6  N   -0.256704
     7  C   -0.052623
     8  C   -0.013931
     9  C   -0.087047
    10  C    0.046470
    11  C    0.104749
    12  C    0.053450
    13  C   -0.072005
    14  H    0.036541
    15  N   -0.433336
    16  C    0.168764
    17  C   -0.176859
    18  C   -0.003373
    19  C    0.149005
    20  C    0.110183
    21  C    0.013098
    22  O   -0.248828
    23  C    0.062204
    24  N   -0.340990
    25  C    0.041105
    26  C   -0.028605
    27  C   -0.023650
    28  C    0.074222
    29  C    0.076031
    30  C    0.036864
    31  C   -0.009501
    32  N   -0.310287
    33  C    0.079862
    34  C   -0.170992
    35  C    0.008326
    36  C    0.082727
    37  C    0.127581
    38  C    0.045908
    39  O   -0.188638
    40  C   -0.005211
    41  C    0.212606
    42  O   -0.256378
    43  O   -0.305024
    44  C    0.157203
    45  H   -0.017226
    46  H   -0.016413
    47  H   -0.042628
    48  H    0.001176
    49  H   -0.003984
    50  H    0.025614
    51  H    0.016493
    52  H    0.016926
    53  H    0.010562
    54  H    0.044586
    55  H    0.018136
    56  H    0.017610
    57  H    0.005797
    58  H    0.027389
    59  H    0.039982
    60  H    0.037048
    61  H    0.037614
    62  H    0.031822
    63  H    0.016498
    64  H    0.009713
    65  H    0.023642
    66  H    0.013090
    67  H    0.004763
    68  H    0.006299
    69  H    0.003230
    70  H    0.009898
    71  H    0.016851
    72  H    0.030554
    73  H    0.046447
    74  H    0.007934
    75  H    0.046377
    76  H    0.035246
    77  H    0.043035
    78  H    0.046279
    79  H    0.055061
    80  Mg   0.837689
    81  C   -0.016730
    82  C   -0.087236
    83  C   -0.042692
    84  C   -0.065650
    85  N   -0.254524
    86  C   -0.050279
    87  C   -0.014957
    88  C   -0.091710
    89  C    0.045745
    90  C    0.111411
    91  C    0.062764
    92  C   -0.077560
    93  H    0.034354
    94  N   -0.424140
    95  C    0.163379
    96  C   -0.172142
    97  C   -0.005849
    98  C    0.152547
    99  C    0.098298
   100  C    0.017328
   101  O   -0.252741
   102  C    0.060828
   103  N   -0.349965
   104  C    0.037843
   105  C   -0.020092
   106  C   -0.034080
   107  C    0.088526
   108  C    0.072600
   109  C    0.034975
   110  C   -0.007500
   111  N   -0.323849
   112  C    0.078030
   113  C   -0.164255
   114  C    0.002165
   115  C    0.095659
   116  C    0.131625
   117  C    0.042124
   118  O   -0.188746
   119  C    0.000841
   120  C    0.211024
   121  O   -0.251406
   122  O   -0.305400
   123  C    0.152223
   124  H   -0.019194
   125  H   -0.014573
   126  H   -0.042110
   127  H   -0.000843
   128  H   -0.005165
   129  H    0.024276
   130  H    0.016111
   131  H    0.017491
   132  H    0.013849
   133  H    0.037561
   134  H    0.020314
   135  H    0.019257
   136  H    0.008232
   137  H    0.029640
   138  H    0.039192
   139  H    0.040498
   140  H    0.036035
   141  H    0.032745
   142  H    0.013877
   143  H    0.010618
   144  H    0.023999
   145  H    0.017962
   146  H    0.003118
   147  H    0.005388
   148  H    0.002550
   149  H    0.010931
   150  H    0.017219
   151  H    0.030574
   152  H    0.045526
   153  H    0.007489
   154  H    0.045060
   155  H    0.035941
   156  H    0.043708
   157  H    0.049181
   158  H    0.053236
 Sum of Mulliken charges =  -0.00000

 Dipole moment (field-independent basis, Debye):
    X=              4.1273    Y=             -0.9333    Z=              0.1378  Tot=              4.2337
 Quadrupole moment (field-independent basis, Debye-Ang):
   XX=           -530.0954   YY=           -540.6402   ZZ=           -449.4543
   XY=            -21.9189   XZ=             56.3499   YZ=             32.9697

 Normal termination of Gaussian 16 at Fri Sep  3 20:15:15 2021.
