 Gaussian 16, Revision A.03,
 Gaussian 16:  ES64L-G16RevA.03 25-Dec-2016

 -----------------------------------
 #p cam-b3lyp/Def2SVP td=(nstates=5)
 -----------------------------------

 --------------------------------
 TDDFT excited states in gaussian
 --------------------------------
 Symbolic Z-matrix:
 Charge =  0 Multiplicity = 1

                         Standard orientation:
 ---------------------------------------------------------------------
 Center     Atomic      Atomic             Coordinates (Angstroms)
 Number     Number       Type             X           Y           Z
 ---------------------------------------------------------------------
      1         12           0       16.041352   -0.645144    0.460489
      2          6           0       16.291625    2.313967   -1.537821
      3          6           0       16.845732    1.286418    3.155875
      4          6           0       16.272281   -3.309909    2.164109
      5          6           0       16.379907   -2.482604   -2.481412
      6          7           0       16.487186    1.514307    0.657083
      7          6           0       16.490967    2.550364   -0.175828
      8          6           0       16.651732    3.922114    0.545164
      9          6           0       17.371382    3.423358    1.877585
     10          6           0       16.843240    2.000290    1.920798
     11          6           0       18.892170    3.379777    1.768927
     12          6           0       15.272763    4.595372    0.856452
     13          6           0       15.342367    6.071212    1.259449
     14          1           0       14.276254    6.964762    0.832460
     15          7           0       16.011545   -0.922008    2.416328
     16          6           0       16.355673   -0.020507    3.367200
     17          6           0       16.163622   -0.703303    4.664731
     18          6           0       15.861854   -2.134732    4.385374
     19          6           0       16.064943   -2.185818    2.960059
     20          6           0       16.223616    0.004217    5.983657
     21          6           0       15.465211   -3.277939    5.265082
     22          8           0       15.477684   -4.488548    4.854177
     23          6           0       15.142382   -2.948261    6.665130
     24          7           0       16.509794   -2.616178   -0.042726
     25          6           0       16.482030   -3.588090    0.875751
     26          6           0       16.571408   -4.943442    0.239377
     27          6           0       16.421188   -4.704640   -1.332297
     28          6           0       16.349376   -3.157673   -1.330144
     29          6           0       17.861133   -5.728610    0.515297
     30          6           0       15.303958   -5.493861   -2.059859
     31          6           0       13.948328   -5.009117   -1.596840
     32          7           0       16.115002   -0.202632   -1.663141
     33          6           0       16.283477   -1.120174   -2.710235
     34          6           0       16.378693   -0.339575   -3.957499
     35          6           0       16.274938    0.987368   -3.544823
     36          6           0       16.150799    1.034058   -2.126830
     37          6           0       16.597939   -0.871477   -5.258824
     38          6           0       16.264810    2.377820   -3.969553
     39          8           0       16.242630    2.951462   -5.059478
     40          6           0       16.397660    3.297698   -2.676493
     41          6           0       15.351581    4.374395   -2.775243
     42          8           0       14.137294    4.094810   -2.706647
     43          8           0       15.942189    5.576647   -2.695786
     44          6           0       14.956786    6.688986   -2.757722
     45          1           0       17.317833    1.742569    4.028221
     46          1           0       16.247537   -4.259901    2.702012
     47          1           0       16.401432   -2.991664   -3.446735
     48          1           0       17.287892    4.637708    0.023963
     49          1           0       17.036276    3.978675    2.753398
     50          1           0       19.224540    3.575883    0.749617
     51          1           0       19.177124    2.373062    2.075226
     52          1           0       19.351654    4.054283    2.491902
     53          1           0       14.864855    4.171524    1.774070
     54          1           0       14.589863    4.483634    0.013547
     55          1           0       16.317118    6.501873    1.028582
     56          1           0       15.269428    6.132551    2.345321
     57          1           0       16.626051    1.011122    5.880054
     58          1           0       16.958717   -0.520697    6.593412
     59          1           0       15.259251    0.007348    6.491913
     60          1           0       16.006611   -2.475246    7.131943
     61          1           0       14.794840   -3.875226    7.119882
     62          1           0       14.342934   -2.206865    6.677977
     63          1           0       15.764192   -5.589955    0.581209
     64          1           0       17.329434   -4.968342   -1.874722
     65          1           0       17.690427   -6.706734    0.965673
     66          1           0       18.501478   -5.113605    1.146975
     67          1           0       18.498239   -5.881626   -0.355392
     68          1           0       15.366753   -6.553445   -1.814330
     69          1           0       15.348746   -5.401675   -3.145100
     70          1           0       13.788631   -5.573293   -0.678670
     71          1           0       13.185465   -5.246982   -2.338912
     72          1           0       13.973266   -3.952436   -1.329839
     73          1           0       15.915623   -0.341999   -5.923705
     74          1           0       16.419679   -1.946310   -5.282474
     75          1           0       17.647933   -0.619011   -5.405896
     76          1           0       17.407689    3.706224   -2.684850
     77          1           0       15.257336    7.338650   -3.579817
     78          1           0       14.916304    7.123094   -1.758564
     79          1           0       13.945814    6.420727   -3.066447
     80         12           0      -15.692507   -0.675491   -0.344729
     81          6           0      -18.038221    1.722612    0.930348
     82          6           0      -13.976851    1.944269   -1.696769
     83          6           0      -13.863899   -2.782112   -1.856603
     84          6           0      -18.146313   -3.108726    0.106862
     85          7           0      -16.059602    1.505515   -0.317446
     86          6           0      -16.948749    2.306148    0.250664
     87          6           0      -16.610451    3.817729    0.149417
     88          6           0      -15.670264    3.767111   -1.151496
     89          6           0      -15.171481    2.328104   -1.036752
     90          6           0      -16.438957    3.903641   -2.455259
     91          6           0      -15.826918    4.340247    1.404421
     92          6           0      -15.734469    5.863622    1.516477
     93          1           0      -15.774816    6.467497    2.845449
     94          7           0      -13.900999   -0.461477   -1.171333
     95          6           0      -13.354048    0.677876   -1.644599
     96          6           0      -12.031847    0.302003   -2.168672
     97          6           0      -11.910338   -1.180279   -2.115720
     98          6           0      -13.257823   -1.541364   -1.723299
     99          6           0      -11.002301    1.313683   -2.580920
    100          6           0      -10.773474   -2.118345   -2.387343
    101          8           0      -10.956993   -3.380872   -2.510493
    102          6           0       -9.453745   -1.505480   -2.597565
    103          7           0      -16.030401   -2.616932   -1.007270
    104          6           0      -15.049391   -3.329730   -1.588202
    105          6           0      -15.440229   -4.781523   -1.729393
    106          6           0      -16.797594   -4.943701   -0.899434
    107          6           0      -17.013481   -3.473706   -0.477650
    108          6           0      -15.656193   -5.276264   -3.159417
    109          6           0      -16.823037   -6.039756    0.200890
    110          6           0      -15.883211   -5.665260    1.324224
    111          7           0      -17.657247   -0.755732    0.550500
    112          6           0      -18.523614   -1.869371    0.607900
    113          6           0      -19.790066   -1.405127    1.210399
    114          6           0      -19.579139   -0.037587    1.442429
    115          6           0      -18.280742    0.329202    0.996191
    116          6           0      -20.949173   -2.202189    1.427846
    117          6           0      -20.163526    1.181364    1.953647
    118          8           0      -21.207403    1.465022    2.539817
    119          6           0      -19.238455    2.402129    1.528946
    120          6           0      -19.022589    3.265254    2.741772
    121          8           0      -18.390160    2.832334    3.721176
    122          8           0      -19.406640    4.523821    2.460926
    123          6           0      -19.201415    5.420225    3.629754
    124          1           0      -13.490347    2.667831   -2.351477
    125          1           0      -13.234125   -3.572321   -2.271849
    126          1           0      -18.924809   -3.827573    0.371197
    127          1           0      -17.461903    4.462614   -0.032045
    128          1           0      -14.841808    4.465658   -1.067521
    129          1           0      -17.507013    3.893629   -2.296188
    130          1           0      -16.139075    3.060184   -3.063282
    131          1           0      -16.110142    4.796318   -2.995028
    132          1           0      -14.763117    4.095386    1.289889
    133          1           0      -16.240965    3.935950    2.307607
    134          1           0      -16.436565    6.369839    0.842863
    135          1           0      -14.749624    6.178443    1.162960
    136          1           0      -11.436151    2.317720   -2.665201
    137          1           0      -10.698411    1.062454   -3.602877
    138          1           0      -10.120139    1.303231   -1.937228
    139          1           0       -9.505641   -0.815006   -3.436026
    140          1           0       -8.755279   -2.339624   -2.688220
    141          1           0       -9.200198   -0.909124   -1.713999
    142          1           0      -14.685799   -5.428715   -1.299154
    143          1           0      -17.643301   -5.211486   -1.549757
    144          1           0      -15.018320   -6.140928   -3.423137
    145          1           0      -15.477729   -4.451533   -3.836546
    146          1           0      -16.679942   -5.556533   -3.401459
    147          1           0      -16.462297   -6.989318   -0.202035
    148          1           0      -17.811892   -6.218346    0.609864
    149          1           0      -14.910690   -6.005537    0.956116
    150          1           0      -16.159639   -6.179518    2.242465
    151          1           0      -15.827729   -4.577117    1.444686
    152          1           0      -21.316440   -1.954797    2.414976
    153          1           0      -20.724171   -3.263130    1.340870
    154          1           0      -21.584684   -1.849068    0.611332
    155          1           0      -19.751214    2.939337    0.730166
    156          1           0      -20.166080    5.889882    3.845460
    157          1           0      -18.366565    6.089834    3.349758
    158          1           0      -18.973886    4.957063    4.582732
 ---------------------------------------------------------------------

 SCF Done:  E(RCAM-B3LYP) =  -4069.81179566     A.U. after   19 cycles

 Excitation energies and oscillator strengths:

 Excited State   1:      Singlet-A      1.6755 eV  739.96 nm  f=0.3449  <S**2>=0.000
     310 -> 316        0.17179
     312 -> 313        0.67874
     310 <- 316        0.10355
 This state for optimization and/or second-order correction.
 Total Energy, E(TD-HF/TD-DFT) =  -4069.75022050
 Copying the excited state density for this state as the 1-particle RhoCI density.

 Excited State   2:      Singlet-A      1.6800 eV  738.02 nm  f=0.4361  <S**2>=0.000
     309 -> 315        0.17372
     311 -> 314        0.67839
     309 <- 315        0.10403

 Excited State   3:      Singlet-A      2.1862 eV  567.11 nm  f=0.0953  <S**2>=0.000
     310 -> 313        0.64210
     312 -> 316       -0.27305

 Excited State   4:      Singlet-A      2.1926 eV  565.47 nm  f=0.1048  <S**2>=0.000
     309 -> 314        0.64034
     311 -> 315       -0.27819

 Excited State   5:      Singlet-A      3.0676 eV  404.18 nm  f=0.0000  <S**2>=0.000
     311 -> 313        0.70709

 The electronic state is 1-A.
 Alpha  occ. eigenvalues --  -46.87800 -46.87660 -19.26353 -19.26295 -19.19164
 Alpha  occ. eigenvalues --  -19.19030 -19.18815 -19.18706 -19.18176 -19.18052
 Alpha  occ. eigenvalues --  -14.42496 -14.42454 -14.41452 -14.41359 -14.39406
 Alpha  occ. eigenvalues --  -14.39350 -14.38599 -14.38590 -10.39093 -10.39089
 Alpha  occ. eigenvalues --  -10.35448 -10.35383 -10.34396 -10.34230 -10.31761
 Alpha  occ. eigenvalues --  -10.31693 -10.31409 -10.31309 -10.31021 -10.30912
 Alpha  occ. eigenvalues --  -10.30574 -10.30511 -10.30397 -10.30360 -10.30209
 Alpha  occ. eigenvalues --  -10.30139 -10.29924 -10.29895 -10.29634 -10.29434
 Alpha  occ. eigenvalues --  -10.29398 -10.29257 -10.28754 -10.28718 -10.28655
 Alpha  occ. eigenvalues --  -10.28547 -10.28403 -10.28368 -10.28139 -10.28121
 Alpha  occ. eigenvalues --  -10.28000 -10.27796 -10.27730 -10.27667 -10.27587
 Alpha  occ. eigenvalues --  -10.27518 -10.27502 -10.27483 -10.27482 -10.27463
 Alpha  occ. eigenvalues --  -10.27456 -10.27450 -10.27408 -10.27375 -10.27165
 Alpha  occ. eigenvalues --  -10.27052 -10.26712 -10.26693 -10.26408 -10.26400
 Alpha  occ. eigenvalues --  -10.26238 -10.26184 -10.26138 -10.26024 -10.26022
 Alpha  occ. eigenvalues --  -10.25934 -10.25854 -10.25849 -10.25435 -10.25397
 Alpha  occ. eigenvalues --  -10.24872 -10.24837 -10.24790 -10.24731 -10.24689
 Alpha  occ. eigenvalues --  -10.24687  -3.16543  -3.16409  -1.91424  -1.91292
 Alpha  occ. eigenvalues --   -1.91011  -1.90880  -1.90853  -1.90717  -1.16647
 Alpha  occ. eigenvalues --   -1.16644  -1.08660  -1.08634  -1.07216  -1.06958
 Alpha  occ. eigenvalues --   -1.06948  -1.06653  -1.04585  -1.04494  -1.03763
 Alpha  occ. eigenvalues --   -1.03662  -1.03237  -1.03038  -1.02414  -1.02110
 Alpha  occ. eigenvalues --   -0.91987  -0.91977  -0.89522  -0.89494  -0.89193
 Alpha  occ. eigenvalues --   -0.89151  -0.88289  -0.88220  -0.87874  -0.87794
 Alpha  occ. eigenvalues --   -0.87683  -0.87677  -0.87275  -0.87114  -0.84999
 Alpha  occ. eigenvalues --   -0.84987  -0.83939  -0.83876  -0.82967  -0.82925
 Alpha  occ. eigenvalues --   -0.82653  -0.82650  -0.81597  -0.81593  -0.80601
 Alpha  occ. eigenvalues --   -0.80442  -0.78800  -0.78632  -0.77222  -0.77143
 Alpha  occ. eigenvalues --   -0.76940  -0.76899  -0.75929  -0.75838  -0.74901
 Alpha  occ. eigenvalues --   -0.74802  -0.72778  -0.72698  -0.71676  -0.71580
 Alpha  occ. eigenvalues --   -0.69908  -0.69757  -0.68877  -0.68826  -0.67645
 Alpha  occ. eigenvalues --   -0.67600  -0.67224  -0.67197  -0.65291  -0.65271
 Alpha  occ. eigenvalues --   -0.64858  -0.64770  -0.64654  -0.64625  -0.64272
 Alpha  occ. eigenvalues --   -0.64203  -0.62305  -0.62280  -0.60444  -0.60335
 Alpha  occ. eigenvalues --   -0.59809  -0.59796  -0.58992  -0.58991  -0.58508
 Alpha  occ. eigenvalues --   -0.58425  -0.57591  -0.57556  -0.57312  -0.57235
 Alpha  occ. eigenvalues --   -0.56314  -0.56203  -0.55987  -0.55887  -0.55523
 Alpha  occ. eigenvalues --   -0.55449  -0.55343  -0.55248  -0.54529  -0.54489
 Alpha  occ. eigenvalues --   -0.53912  -0.53900  -0.53302  -0.53226  -0.53226
 Alpha  occ. eigenvalues --   -0.53139  -0.52920  -0.52902  -0.52758  -0.52661
 Alpha  occ. eigenvalues --   -0.52440  -0.52401  -0.51920  -0.51887  -0.51656
 Alpha  occ. eigenvalues --   -0.51621  -0.51201  -0.51200  -0.50572  -0.50467
 Alpha  occ. eigenvalues --   -0.50033  -0.49977  -0.49920  -0.49865  -0.49518
 Alpha  occ. eigenvalues --   -0.49484  -0.49219  -0.49201  -0.49104  -0.49101
 Alpha  occ. eigenvalues --   -0.48598  -0.48558  -0.48463  -0.48448  -0.48376
 Alpha  occ. eigenvalues --   -0.48333  -0.47698  -0.47592  -0.47300  -0.47115
 Alpha  occ. eigenvalues --   -0.46800  -0.46709  -0.46560  -0.46552  -0.46362
 Alpha  occ. eigenvalues --   -0.46269  -0.46167  -0.46086  -0.45828  -0.45824
 Alpha  occ. eigenvalues --   -0.45208  -0.45203  -0.44583  -0.44514  -0.44509
 Alpha  occ. eigenvalues --   -0.44475  -0.44147  -0.44126  -0.44092  -0.44076
 Alpha  occ. eigenvalues --   -0.44023  -0.43935  -0.43554  -0.43501  -0.43389
 Alpha  occ. eigenvalues --   -0.43385  -0.43031  -0.42931  -0.42902  -0.42706
 Alpha  occ. eigenvalues --   -0.42659  -0.42552  -0.42013  -0.41964  -0.41708
 Alpha  occ. eigenvalues --   -0.41669  -0.41538  -0.41458  -0.41145  -0.40989
 Alpha  occ. eigenvalues --   -0.40873  -0.40824  -0.40719  -0.40695  -0.40574
 Alpha  occ. eigenvalues --   -0.40493  -0.40240  -0.40225  -0.39442  -0.39425
 Alpha  occ. eigenvalues --   -0.38471  -0.38350  -0.37754  -0.37653  -0.37323
 Alpha  occ. eigenvalues --   -0.37268  -0.37265  -0.37198  -0.36773  -0.36721
 Alpha  occ. eigenvalues --   -0.36217  -0.36198  -0.34289  -0.34253  -0.33864
 Alpha  occ. eigenvalues --   -0.33779  -0.33190  -0.33175  -0.31345  -0.31266
 Alpha  occ. eigenvalues --   -0.31039  -0.30972  -0.30035  -0.29957  -0.29452
 Alpha  occ. eigenvalues --   -0.29326  -0.29324  -0.29211  -0.24084  -0.24035
 Alpha  occ. eigenvalues --   -0.21131  -0.21116
 Alpha virt. eigenvalues --   -0.08790  -0.08777  -0.01753  -0.01682  -0.00060
 Alpha virt. eigenvalues --   -0.00025   0.02196   0.02207   0.03116   0.03228
 Alpha virt. eigenvalues --    0.04714   0.04730   0.05089   0.05163   0.06170

 Mulliken charges:
               1
     1  Mg   0.838651
     2  C   -0.003002
     3  C   -0.094110
     4  C   -0.045841
     5  C   -0.063946
     6  N   -0.256781
     7  C   -0.052461
     8  C   -0.014021
     9  C   -0.086977
    10  C    0.046306
    11  C    0.104804
    12  C    0.053462
    13  C   -0.071783
    14  H    0.036044
    15  N   -0.433126
    16  C    0.168433
    17  C   -0.177144
    18  C   -0.003972
    19  C    0.148724
    20  C    0.110181
    21  C    0.012313
    22  O   -0.249579
    23  C    0.062460
    24  N   -0.341115
    25  C    0.041241
    26  C   -0.028185
    27  C   -0.023983
    28  C    0.074845
    29  C    0.076170
    30  C    0.035126
    31  C   -0.004511
    32  N   -0.310443
    33  C    0.080368
    34  C   -0.169732
    35  C    0.008340
    36  C    0.082962
    37  C    0.127320
    38  C    0.046091
    39  O   -0.188516
    40  C   -0.005322
    41  C    0.212874
    42  O   -0.257143
    43  O   -0.304786
    44  C    0.157723
    45  H   -0.017585
    46  H   -0.016797
    47  H   -0.041496
    48  H    0.000917
    49  H   -0.004029
    50  H    0.025466
    51  H    0.016467
    52  H    0.016669
    53  H    0.011219
    54  H    0.044085
    55  H    0.017877
    56  H    0.017974
    57  H    0.005875
    58  H    0.026860
    59  H    0.039590
    60  H    0.037357
    61  H    0.035715
    62  H    0.031517
    63  H    0.016591
    64  H    0.009462
    65  H    0.023250
    66  H    0.012547
    67  H    0.004757
    68  H    0.006399
    69  H    0.004715
    70  H    0.008819
    71  H    0.018144
    72  H    0.028958
    73  H    0.047517
    74  H    0.009117
    75  H    0.046001
    76  H    0.035146
    77  H    0.042910
    78  H    0.046407
    79  H    0.053621
    80  Mg   0.837858
    81  C   -0.016812
    82  C   -0.087779
    83  C   -0.045470
    84  C   -0.064895
    85  N   -0.254575
    86  C   -0.049867
    87  C   -0.015110
    88  C   -0.090474
    89  C    0.045755
    90  C    0.114358
    91  C    0.062518
    92  C   -0.077903
    93  H    0.034867
    94  N   -0.423520
    95  C    0.162919
    96  C   -0.174575
    97  C   -0.007747
    98  C    0.152109
    99  C    0.099343
   100  C    0.015597
   101  O   -0.253131
   102  C    0.061183
   103  N   -0.350060
   104  C    0.037513
   105  C   -0.019855
   106  C   -0.034823
   107  C    0.088908
   108  C    0.073660
   109  C    0.034741
   110  C   -0.007678
   111  N   -0.324094
   112  C    0.078413
   113  C   -0.163165
   114  C    0.002217
   115  C    0.096185
   116  C    0.131488
   117  C    0.042357
   118  O   -0.187940
   119  C    0.000911
   120  C    0.211254
   121  O   -0.251031
   122  O   -0.305624
   123  C    0.152039
   124  H   -0.019595
   125  H   -0.015521
   126  H   -0.040491
   127  H   -0.000672
   128  H   -0.004284
   129  H    0.022435
   130  H    0.014444
   131  H    0.016323
   132  H    0.013944
   133  H    0.037659
   134  H    0.020784
   135  H    0.019632
   136  H    0.008792
   137  H    0.026259
   138  H    0.039902
   139  H    0.038332
   140  H    0.036529
   141  H    0.033927
   142  H    0.014438
   143  H    0.012398
   144  H    0.025184
   145  H    0.011658
   146  H    0.005653
   147  H    0.006273
   148  H    0.003621
   149  H    0.010964
   150  H    0.017913
   151  H    0.030101
   152  H    0.045973
   153  H    0.008498
   154  H    0.046906
   155  H    0.035003
   156  H    0.043886
   157  H    0.049505
   158  H    0.053564
 Sum of Mulliken charges =  -0.00000

 Dipole moment (field-independent basis, Debye):
    X=              4.4464    Y=              3.0256    Z=              1.0917  Tot=              5.4879
 Quadrupole moment (field-independent basis, Debye-Ang):
   XX=           -544.4514   YY=           -466.9814   ZZ=           -523.0042
   XY=              5.9290   XZ=            123.1002   YZ=             26.5798

 Normal termination of Gaussian 16 at Sun Sep 12 10:09:45 2021.
