 Gaussian 16, Revision A.03,
 Gaussian 16:  ES64L-G16RevA.03 25-Dec-2016

 -----------------------------------
 #p cam-b3lyp/Def2SVP td=(nstates=5)
 -----------------------------------

 --------------------------------
 TDDFT excited states in gaussian
 --------------------------------
 Symbolic Z-matrix:
 Charge =  0 Multiplicity = 1

                         Standard orientation:
 ---------------------------------------------------------------------
 Center     Atomic      Atomic             Coordinates (Angstroms)
 Number     Number       Type             X           Y           Z
 ---------------------------------------------------------------------
      1         12           0        8.062369   -0.478173   -0.082027
      2          6           0        8.125019    2.895873   -1.275383
      3          6           0        8.963446    0.743285    2.973978
      4          6           0        8.456126   -3.474626    0.878622
      5          6           0        8.286072   -1.501919   -3.405814
      6          7           0        8.461967    1.578140    0.633897
      7          6           0        8.392871    2.789712    0.091229
      8          6           0        8.557333    3.941223    1.127738
      9          6           0        9.362042    3.151914    2.255316
     10          6           0        8.874324    1.744192    1.961420
     11          6           0       10.875152    3.196584    2.068224
     12          6           0        7.180543    4.460071    1.663440
     13          6           0        7.233784    5.788659    2.423291
     14          1           0        6.122857    6.718472    2.286770
     15          7           0        8.147581   -1.239017    1.739156
     16          6           0        8.519977   -0.592913    2.870154
     17          6           0        8.417551   -1.587086    3.960020
     18          6           0        8.138232   -2.912906    3.341735
     19          6           0        8.263749   -2.595869    1.942052
     20          6           0        8.531669   -1.232261    5.410822
     21          6           0        7.820565   -4.255236    3.920846
     22          8           0        7.841905   -5.322131    3.216677
     23          6           0        7.566882   -4.301185    5.372251
     24          7           0        8.553549   -2.239392   -1.089244
     25          6           0        8.601750   -3.411392   -0.446535
     26          6           0        8.691201   -4.558544   -1.408814
     27          6           0        8.448453   -3.938175   -2.860010
     28          6           0        8.336604   -2.445513   -2.462870
     29          6           0       10.014179   -5.336801   -1.401274
     30          6           0        7.313770   -4.562104   -3.710672
     31          6           0        5.973544   -4.262812   -3.077177
     32          7           0        8.007361    0.486780   -2.025447
     33          6           0        8.141732   -0.130584   -3.277438
     34          6           0        8.147727    0.941739   -4.289443
     35          6           0        8.032342    2.117120   -3.549840
     36          6           0        7.985339    1.800762   -2.162035
     37          6           0        8.308724    0.763244   -5.691817
     38          6           0        7.962621    3.568205   -3.607703
     39          8           0        7.865495    4.396222   -4.514591
     40          6           0        8.142505    4.137748   -2.131529
     41          6           0        7.064889    5.162901   -1.905440
     42          8           0        5.863920    4.827774   -1.853209
     43          8           0        7.627467    6.328669   -1.551840
     44          6           0        6.611513    7.381402   -1.283989
     45          1           0        9.470850    0.983464    3.910352
     46          1           0        8.485803   -4.529589    1.158999
     47          1           0        8.267631   -1.750571   -4.468492
     48          1           0        9.144960    4.789222    0.775578
     49          1           0        9.061347    3.455547    3.257869
     50          1           0       11.145641    3.655608    1.117407
     51          1           0       11.202670    2.157134    2.095973
     52          1           0       11.356047    3.685002    2.916142
     53          1           0        6.834985    3.803429    2.461858
     54          1           0        6.455384    4.537309    0.852573
     55          1           0        8.182789    6.301330    2.263708
     56          1           0        7.219207    5.572006    3.491490
     57          1           0        8.901426   -0.216723    5.546864
     58          1           0        9.312668   -1.864497    5.832756
     59          1           0        7.597017   -1.394791    5.947796
     60          1           0        8.442904   -3.927359    5.902712
     61          1           0        7.269181   -5.325591    5.593194
     62          1           0        6.750319   -3.618711    5.609748
     63          1           0        7.921155   -5.301313   -1.204490
     64          1           0        9.331995   -4.021234   -3.493358
     65          1           0        9.894076   -6.402662   -1.205776
     66          1           0       10.672118   -4.875886   -0.665092
     67          1           0       10.606117   -5.240860   -2.311121
     68          1           0        7.417571   -5.646086   -3.744651
     69          1           0        7.296284   -4.198243   -4.738071
     70          1           0        5.879421   -5.045589   -2.325358
     71          1           0        5.177411   -4.336035   -3.818812
     72          1           0        5.985626   -3.307117   -2.552785
     73          1           0        7.577256    1.415824   -6.168329
     74          1           0        8.157484   -0.277210   -5.978496
     75          1           0        9.342089    1.085455   -5.819067
     76          1           0        9.139557    4.574427   -2.083358
     77          1           0        6.849294    8.228197   -1.927910
     78          1           0        6.614847    7.548320   -0.206709
     79          1           0        5.592398    7.160086   -1.602990
     80         12           0       -7.801736   -1.011525    0.273031
     81          6           0       -9.706301    1.994535   -0.190953
     82          6           0       -5.479913    0.887791    1.896718
     83          6           0       -5.894725   -3.547219    0.304368
     84          6           0       -9.657841   -2.422155   -2.317480
     85          7           0       -7.717119    1.150708    0.731087
     86          6           0       -8.527112    2.184513    0.559284
     87          6           0       -8.085972    3.476863    1.297369
     88          6           0       -6.515023    3.164034    1.411942
     89          6           0       -6.566810    1.637916    1.380899
     90          6           0       -5.717411    3.639443    0.208971
     91          6           0       -8.749315    3.612838    2.712821
     92          6           0       -8.608228    4.992668    3.359281
     93          1           0       -9.711411    5.496222    4.172839
     94          7           0       -6.212978   -1.409823    1.393642
     95          6           0       -5.396761   -0.518591    1.994295
     96          6           0       -4.367971   -1.314633    2.681374
     97          6           0       -4.547891   -2.742149    2.301205
     98          6           0       -5.568115   -2.616340    1.279728
     99          6           0       -3.395624   -0.719047    3.657705
    100          6           0       -3.898836   -4.009364    2.769296
    101          8           0       -4.039314   -5.112859    2.132603
    102          6           0       -3.018541   -3.900731    3.941798
    103          7           0       -7.630141   -2.662252   -0.979170
    104          6           0       -6.754663   -3.646505   -0.709517
    105          6           0       -7.000746   -4.850878   -1.586621
    106          6           0       -8.382570   -4.560410   -2.337468
    107          6           0       -8.663461   -3.136702   -1.808742
    108          6           0       -5.915149   -5.155113   -2.618770
    109          6           0       -9.497339   -5.633278   -2.199930
    110          6           0       -9.991422   -5.684062   -0.772105
    111          7           0       -9.514386   -0.430201   -0.908887
    112          6           0      -10.113222   -1.159744   -1.959252
    113          6           0      -11.173115   -0.305736   -2.533459
    114          6           0      -11.101504    0.879727   -1.786447
    115          6           0      -10.056471    0.779835   -0.828628
    116          6           0      -12.008218   -0.644061   -3.635392
    117          6           0      -11.665333    2.196950   -1.597449
    118          8           0      -12.629983    2.803687   -2.061208
    119          6           0      -10.704131    3.025530   -0.640403
    120          6           0      -11.552526    3.685024    0.412119
    121          8           0      -12.168422    3.000380    1.247916
    122          8           0      -11.325001    5.011023    0.394380
    123          6           0      -12.135638    5.707776    1.428416
    124          1           0       -4.586794    1.423402    2.219726
    125          1           0       -5.338451   -4.486622    0.344023
    126          1           0      -10.345734   -2.826910   -3.062901
    127          1           0       -8.242989    4.393501    0.741582
    128          1           0       -6.110885    3.512647    2.358773
    129          1           0       -6.357711    4.004891   -0.580092
    130          1           0       -5.153855    2.779579   -0.128798
    131          1           0       -4.976867    4.382866    0.517583
    132          1           0       -8.182700    3.008987    3.433284
    133          1           0       -9.784716    3.334903    2.676644
    134          1           0       -8.282867    5.753703    2.639621
    135          1           0       -7.797706    4.951834    4.090998
    136          1           0       -3.395977    0.376825    3.608031
    137          1           0       -2.392176   -1.005698    3.324862
    138          1           0       -3.546818   -1.081226    4.676841
    139          1           0       -2.221035   -3.192422    3.730241
    140          1           0       -2.719532   -4.923686    4.178512
    141          1           0       -3.595713   -3.485078    4.775294
    142          1           0       -7.106932   -5.748565   -0.989988
    143          1           0       -8.244262   -4.470169   -3.424932
    144          1           0       -5.497128   -6.175158   -2.524802
    145          1           0       -5.133623   -4.413379   -2.520888
    146          1           0       -6.218749   -5.035161   -3.657340
    147          1           0       -9.098247   -6.625188   -2.425729
    148          1           0      -10.340719   -5.467147   -2.861824
    149          1           0       -9.258107   -6.329986   -0.280046
    150          1           0      -10.989710   -6.114701   -0.727280
    151          1           0       -9.930916   -4.696892   -0.299358
    152          1           0      -13.011366   -0.336298   -3.371817
    153          1           0      -11.963207   -1.708468   -3.856282
    154          1           0      -11.546442   -0.041661   -4.422249
    155          1           0      -10.176734    3.754371   -1.257032
    156          1           0      -12.715399    6.479843    0.913182
    157          1           0      -11.414011    6.047278    2.195057
    158          1           0      -12.921841    5.141838    1.914259
 ---------------------------------------------------------------------

 SCF Done:  E(RCAM-B3LYP) =  -4069.81177111     A.U. after   19 cycles

 Excitation energies and oscillator strengths:

 Excited State   1:      Singlet-A      1.6712 eV  741.87 nm  f=0.1661  <S**2>=0.000
     310 -> 316       -0.14161
     311 -> 313       -0.39181
     312 -> 314        0.56346
 This state for optimization and/or second-order correction.
 Total Energy, E(TD-HF/TD-DFT) =  -4069.75035403
 Copying the excited state density for this state as the 1-particle RhoCI density.

 Excited State   2:      Singlet-A      1.6835 eV  736.49 nm  f=0.6055  <S**2>=0.000
     309 -> 315        0.14511
     310 -> 316       -0.10019
     311 -> 313        0.56275
     312 -> 314        0.39138

 Excited State   3:      Singlet-A      2.1855 eV  567.31 nm  f=0.0566  <S**2>=0.000
     309 -> 313        0.14306
     310 -> 314        0.62669
     312 -> 316        0.26573

 Excited State   4:      Singlet-A      2.1931 eV  565.34 nm  f=0.1364  <S**2>=0.000
     309 -> 313        0.62464
     310 -> 314       -0.14196
     311 -> 315       -0.27175

 Excited State   5:      Singlet-A      2.7403 eV  452.45 nm  f=0.0000  <S**2>=0.000
     312 -> 313        0.70704

 The electronic state is 1-A.
 Alpha  occ. eigenvalues --  -46.87901 -46.87589 -19.26418 -19.26296 -19.19156
 Alpha  occ. eigenvalues --  -19.19106 -19.18907 -19.18650 -19.18275 -19.17986
 Alpha  occ. eigenvalues --  -14.42557 -14.42424 -14.41547 -14.41288 -14.39507
 Alpha  occ. eigenvalues --  -14.39281 -14.38691 -14.38530 -10.39212 -10.39035
 Alpha  occ. eigenvalues --  -10.35541 -10.35328 -10.34496 -10.34163 -10.31820
 Alpha  occ. eigenvalues --  -10.31710 -10.31513 -10.31235 -10.31021 -10.30951
 Alpha  occ. eigenvalues --  -10.30674 -10.30606 -10.30329 -10.30300 -10.30291
 Alpha  occ. eigenvalues --  -10.30071 -10.30012 -10.29825 -10.29731 -10.29365
 Alpha  occ. eigenvalues --  -10.29355 -10.29335 -10.28876 -10.28701 -10.28646
 Alpha  occ. eigenvalues --  -10.28607 -10.28471 -10.28334 -10.28234 -10.28056
 Alpha  occ. eigenvalues --  -10.27931 -10.27895 -10.27832 -10.27687 -10.27595
 Alpha  occ. eigenvalues --  -10.27593 -10.27571 -10.27518 -10.27510 -10.27453
 Alpha  occ. eigenvalues --  -10.27413 -10.27406 -10.27399 -10.27309 -10.27271
 Alpha  occ. eigenvalues --  -10.26985 -10.26860 -10.26636 -10.26508 -10.26362
 Alpha  occ. eigenvalues --  -10.26340 -10.26238 -10.26114 -10.26082 -10.25930
 Alpha  occ. eigenvalues --  -10.25910 -10.25866 -10.25788 -10.25496 -10.25324
 Alpha  occ. eigenvalues --  -10.24935 -10.24883 -10.24804 -10.24735 -10.24680
 Alpha  occ. eigenvalues --  -10.24619  -3.16644  -3.16339  -1.91526  -1.91221
 Alpha  occ. eigenvalues --   -1.91112  -1.90954  -1.90810  -1.90647  -1.16767
 Alpha  occ. eigenvalues --   -1.16590  -1.08734  -1.08594  -1.07307  -1.06903
 Alpha  occ. eigenvalues --   -1.06891  -1.06777  -1.04689  -1.04422  -1.03860
 Alpha  occ. eigenvalues --   -1.03592  -1.03335  -1.02969  -1.02512  -1.02041
 Alpha  occ. eigenvalues --   -0.92079  -0.91918  -0.89604  -0.89428  -0.89309
 Alpha  occ. eigenvalues --   -0.89074  -0.88368  -0.88154  -0.87969  -0.87780
 Alpha  occ. eigenvalues --   -0.87727  -0.87613  -0.87377  -0.87056  -0.85100
 Alpha  occ. eigenvalues --   -0.84929  -0.84014  -0.83813  -0.83061  -0.82871
 Alpha  occ. eigenvalues --   -0.82760  -0.82584  -0.81701  -0.81535  -0.80705
 Alpha  occ. eigenvalues --   -0.80378  -0.78900  -0.78569  -0.77320  -0.77076
 Alpha  occ. eigenvalues --   -0.77046  -0.76832  -0.76035  -0.75767  -0.74983
 Alpha  occ. eigenvalues --   -0.74735  -0.72873  -0.72630  -0.71772  -0.71507
 Alpha  occ. eigenvalues --   -0.69978  -0.69696  -0.68986  -0.68758  -0.67744
 Alpha  occ. eigenvalues --   -0.67535  -0.67344  -0.67138  -0.65404  -0.65203
 Alpha  occ. eigenvalues --   -0.64959  -0.64726  -0.64702  -0.64587  -0.64356
 Alpha  occ. eigenvalues --   -0.64138  -0.62413  -0.62218  -0.60539  -0.60275
 Alpha  occ. eigenvalues --   -0.59919  -0.59723  -0.59088  -0.58924  -0.58605
 Alpha  occ. eigenvalues --   -0.58359  -0.57698  -0.57491  -0.57404  -0.57172
 Alpha  occ. eigenvalues --   -0.56413  -0.56138  -0.56102  -0.55827  -0.55623
 Alpha  occ. eigenvalues --   -0.55431  -0.55389  -0.55184  -0.54623  -0.54427
 Alpha  occ. eigenvalues --   -0.54017  -0.53839  -0.53398  -0.53335  -0.53162
 Alpha  occ. eigenvalues --   -0.53076  -0.53025  -0.52865  -0.52838  -0.52602
 Alpha  occ. eigenvalues --   -0.52508  -0.52343  -0.52010  -0.51820  -0.51736
 Alpha  occ. eigenvalues --   -0.51593  -0.51298  -0.51136  -0.50675  -0.50415
 Alpha  occ. eigenvalues --   -0.50114  -0.50020  -0.49909  -0.49801  -0.49625
 Alpha  occ. eigenvalues --   -0.49420  -0.49321  -0.49208  -0.49133  -0.49032
 Alpha  occ. eigenvalues --   -0.48702  -0.48549  -0.48545  -0.48490  -0.48310
 Alpha  occ. eigenvalues --   -0.48275  -0.47799  -0.47528  -0.47397  -0.47051
 Alpha  occ. eigenvalues --   -0.46895  -0.46675  -0.46642  -0.46484  -0.46458
 Alpha  occ. eigenvalues --   -0.46259  -0.46204  -0.46020  -0.45929  -0.45758
 Alpha  occ. eigenvalues --   -0.45284  -0.45140  -0.44684  -0.44610  -0.44449
 Alpha  occ. eigenvalues --   -0.44407  -0.44239  -0.44198  -0.44126  -0.44055
 Alpha  occ. eigenvalues --   -0.44016  -0.43876  -0.43606  -0.43493  -0.43490
 Alpha  occ. eigenvalues --   -0.43317  -0.43128  -0.42871  -0.42835  -0.42817
 Alpha  occ. eigenvalues --   -0.42739  -0.42489  -0.42102  -0.41902  -0.41806
 Alpha  occ. eigenvalues --   -0.41650  -0.41601  -0.41392  -0.41243  -0.40978
 Alpha  occ. eigenvalues --   -0.40926  -0.40914  -0.40658  -0.40656  -0.40632
 Alpha  occ. eigenvalues --   -0.40426  -0.40371  -0.40165  -0.39509  -0.39365
 Alpha  occ. eigenvalues --   -0.38556  -0.38283  -0.37879  -0.37592  -0.37410
 Alpha  occ. eigenvalues --   -0.37383  -0.37199  -0.37130  -0.36831  -0.36714
 Alpha  occ. eigenvalues --   -0.36298  -0.36152  -0.34389  -0.34184  -0.33901
 Alpha  occ. eigenvalues --   -0.33805  -0.33290  -0.33106  -0.31437  -0.31209
 Alpha  occ. eigenvalues --   -0.31138  -0.30902  -0.30135  -0.29891  -0.29552
 Alpha  occ. eigenvalues --   -0.29424  -0.29259  -0.29143  -0.24184  -0.23965
 Alpha  occ. eigenvalues --   -0.21229  -0.21046
 Alpha virt. eigenvalues --   -0.08876  -0.08722  -0.01849  -0.01613  -0.00161
 Alpha virt. eigenvalues --    0.00040   0.02100   0.02274   0.02997   0.03287
 Alpha virt. eigenvalues --    0.04604   0.04801   0.04969   0.05222   0.06039

 Mulliken charges:
               1
     1  Mg   0.838283
     2  C   -0.003214
     3  C   -0.094497
     4  C   -0.045667
     5  C   -0.063756
     6  N   -0.256790
     7  C   -0.052625
     8  C   -0.013941
     9  C   -0.086928
    10  C    0.046174
    11  C    0.104772
    12  C    0.053576
    13  C   -0.071580
    14  H    0.035372
    15  N   -0.433159
    16  C    0.168266
    17  C   -0.177388
    18  C   -0.004010
    19  C    0.148617
    20  C    0.110204
    21  C    0.012236
    22  O   -0.249133
    23  C    0.062576
    24  N   -0.341130
    25  C    0.041222
    26  C   -0.028247
    27  C   -0.024049
    28  C    0.074890
    29  C    0.076083
    30  C    0.035037
    31  C   -0.004548
    32  N   -0.310480
    33  C    0.080397
    34  C   -0.169586
    35  C    0.008371
    36  C    0.082915
    37  C    0.127303
    38  C    0.046086
    39  O   -0.188343
    40  C   -0.005334
    41  C    0.212946
    42  O   -0.257596
    43  O   -0.304619
    44  C    0.157749
    45  H   -0.017585
    46  H   -0.016495
    47  H   -0.041208
    48  H    0.001070
    49  H   -0.004275
    50  H    0.025592
    51  H    0.016641
    52  H    0.016738
    53  H    0.010679
    54  H    0.043730
    55  H    0.018288
    56  H    0.017810
    57  H    0.005775
    58  H    0.027098
    59  H    0.039003
    60  H    0.037448
    61  H    0.036026
    62  H    0.030839
    63  H    0.016904
    64  H    0.009613
    65  H    0.023525
    66  H    0.012507
    67  H    0.004897
    68  H    0.006733
    69  H    0.004786
    70  H    0.009193
    71  H    0.018498
    72  H    0.028519
    73  H    0.047606
    74  H    0.009328
    75  H    0.046179
    76  H    0.035316
    77  H    0.043214
    78  H    0.046250
    79  H    0.053301
    80  Mg   0.837942
    81  C   -0.016870
    82  C   -0.087690
    83  C   -0.045403
    84  C   -0.064824
    85  N   -0.254601
    86  C   -0.049732
    87  C   -0.015112
    88  C   -0.090488
    89  C    0.045728
    90  C    0.114245
    91  C    0.062568
    92  C   -0.077733
    93  H    0.034518
    94  N   -0.423543
    95  C    0.162918
    96  C   -0.174297
    97  C   -0.007788
    98  C    0.152214
    99  C    0.099258
   100  C    0.015678
   101  O   -0.253076
   102  C    0.061189
   103  N   -0.350001
   104  C    0.037594
   105  C   -0.019867
   106  C   -0.034782
   107  C    0.088875
   108  C    0.073586
   109  C    0.034759
   110  C   -0.007636
   111  N   -0.324124
   112  C    0.078435
   113  C   -0.163177
   114  C    0.002263
   115  C    0.096168
   116  C    0.131491
   117  C    0.042333
   118  O   -0.188038
   119  C    0.000944
   120  C    0.211208
   121  O   -0.251163
   122  O   -0.305538
   123  C    0.152096
   124  H   -0.019226
   125  H   -0.015536
   126  H   -0.040561
   127  H   -0.000576
   128  H   -0.004588
   129  H    0.022552
   130  H    0.015121
   131  H    0.016702
   132  H    0.013739
   133  H    0.037553
   134  H    0.020922
   135  H    0.019405
   136  H    0.008799
   137  H    0.026507
   138  H    0.039217
   139  H    0.038345
   140  H    0.036378
   141  H    0.033496
   142  H    0.014266
   143  H    0.012466
   144  H    0.025011
   145  H    0.012046
   146  H    0.005692
   147  H    0.006167
   148  H    0.003571
   149  H    0.010875
   150  H    0.017766
   151  H    0.030117
   152  H    0.045844
   153  H    0.008408
   154  H    0.047046
   155  H    0.035213
   156  H    0.043847
   157  H    0.049439
   158  H    0.053444
 Sum of Mulliken charges =  -0.00000

 Dipole moment (field-independent basis, Debye):
    X=              6.2922    Y=              1.1066    Z=              5.3033  Tot=              8.3031
 Quadrupole moment (field-independent basis, Debye-Ang):
   XX=           -560.0217   YY=           -506.0077   ZZ=           -485.0311
   XY=             15.4720   XZ=             26.7786   YZ=             58.1304

 Normal termination of Gaussian 16 at Sun Sep 12 07:08:42 2021.
