 Gaussian 16, Revision A.03,
 Gaussian 16:  ES64L-G16RevA.03 25-Dec-2016

 -----------------------------------
 #p cam-b3lyp/Def2SVP td=(nstates=5)
 -----------------------------------

 --------------------------------
 TDDFT excited states in gaussian
 --------------------------------
 Symbolic Z-matrix:
 Charge =  0 Multiplicity = 1

                         Standard orientation:
 ---------------------------------------------------------------------
 Center     Atomic      Atomic             Coordinates (Angstroms)
 Number     Number       Type             X           Y           Z
 ---------------------------------------------------------------------
      1         12           0       15.721099   -0.726701    0.213895
      2          6           0       15.973770    2.099918   -1.967525
      3          6           0       16.565680    1.362785    2.775886
      4          6           0       15.948908   -3.281758    2.078409
      5          6           0       16.017678   -2.746720   -2.610503
      6          7           0       16.184668    1.437201    0.271143
      7          6           0       16.188006    2.419223   -0.624844
      8          6           0       16.365811    3.831956    0.007567
      9          6           0       17.094629    3.411588    1.361862
     10          6           0       16.556489    1.998223    1.498715
     11          6           0       18.613934    3.349245    1.242161
     12          6           0       14.994901    4.534244    0.288867
     13          6           0       15.079241    6.031748    0.598255
     14          1           0       14.015642    6.905357    0.126118
     15          7           0       15.708175   -0.880781    2.183398
     16          6           0       16.068098    0.075518    3.072912
     17          6           0       15.883593   -0.523466    4.412261
     18          6           0       15.568628   -1.967093    4.225628
     19          6           0       15.757542   -2.108597    2.804479
     20          6           0       15.961536    0.264449    5.683822
     21          6           0       15.172123   -3.050015    5.178620
     22          8           0       15.171726   -4.283960    4.844022
     23          6           0       14.865279   -2.631096    6.558256
     24          7           0       16.170158   -2.728941   -0.169532
     25          6           0       16.144137   -3.641418    0.808064
     26          6           0       16.217396   -5.034493    0.256778
     27          6           0       16.053742   -4.893008   -1.325294
     28          6           0       15.993322   -3.348397   -1.419092
     29          6           0       17.503926   -5.811132    0.569323
     30          6           0       14.923760   -5.717183   -1.991847
     31          6           0       13.576269   -5.193757   -1.547560
     32          7           0       15.777457   -0.418116   -1.933811
     33          6           0       15.929052   -1.400494   -2.923066
     34          6           0       16.017934   -0.699997   -4.217466
     35          6           0       15.927928    0.650885   -3.887525
     36          6           0       15.817854    0.786919   -2.474136
     37          6           0       16.220670   -1.313759   -5.484995
     38          6           0       15.923909    2.012173   -4.398149
     39          8           0       15.895404    2.516869   -5.521520
     40          6           0       16.076013    3.009833   -3.166335
     41          6           0       15.036967    4.086543   -3.322510
     42          8           0       13.821379    3.821428   -3.225426
     43          8           0       15.637134    5.286685   -3.323721
     44          6           0       14.659377    6.400780   -3.445939
     45          1           0       17.049534    1.868701    3.613666
     46          1           0       15.922388   -4.196121    2.674793
     47          1           0       16.026124   -3.315158   -3.542308
     48          1           0       17.002141    4.508574   -0.563131
     49          1           0       16.772098    4.023097    2.204330
     50          1           0       18.937863    3.478743    0.209581
     51          1           0       18.894433    2.361367    1.608098
     52          1           0       19.085332    4.063867    1.917347
     53          1           0       14.592783    4.171710    1.234875
     54          1           0       14.303079    4.375569   -0.539100
     55          1           0       16.054852    6.439420    0.331993
     56          1           0       15.017260    6.161279    1.678802
     57          1           0       16.370337    1.259704    5.513844
     58          1           0       16.698623   -0.227226    6.318383
     59          1           0       15.002181    0.306931    6.199734
     60          1           0       15.737435   -2.136758    6.986654
     61          1           0       14.515351   -3.525103    7.073185
     62          1           0       14.071462   -1.884021    6.532128
     63          1           0       15.408795   -5.651997    0.645724
     64          1           0       16.954738   -5.197232   -1.858519
     65          1           0       17.330401   -6.757872    1.081454
     66          1           0       18.154851   -5.163024    1.155448
     67          1           0       18.131440   -6.023213   -0.295931
     68          1           0       14.981139   -6.759853   -1.681215
     69          1           0       14.958725   -5.693229   -3.081092
     70          1           0       13.421318   -5.698276   -0.594521
     71          1           0       12.804538   -5.471386   -2.266284
     72          1           0       13.611551   -4.122711   -1.347310
     73          1           0       15.535865   -0.821387   -6.175342
     74          1           0       16.034297   -2.386526   -5.439835
     75          1           0       17.271020   -1.079301   -5.657192
     76          1           0       17.088888    3.409014   -3.209473
     77          1           0       14.956728    6.995492   -4.309729
     78          1           0       14.631751    6.896675   -2.475511
     79          1           0       13.643523    6.121818   -3.728001
     80         12           0      -16.021251   -0.554050   -0.308268
     81          6           0      -14.678861    1.796526    2.047958
     82          6           0      -18.111181    1.925913   -1.364965
     83          6           0      -17.528644   -2.714157   -2.077195
     84          6           0      -14.671940   -3.090625    1.664245
     85          7           0      -16.267781    1.547623    0.335523
     86          6           0      -15.659787    2.348331    1.197823
     87          6           0      -16.072663    3.840870    1.090948
     88          6           0      -17.518435    3.643014    0.420522
     89          6           0      -17.282491    2.306090   -0.279216
     90          6           0      -18.633182    3.459919    1.436969
     91          6           0      -15.114132    4.660849    0.157754
     92          6           0      -15.270987    6.180246    0.250412
     93          1           0      -14.078820    7.012603    0.114795
     94          7           0      -17.233803   -0.321860   -1.862109
     95          6           0      -17.989728    0.758376   -2.150096
     96          6           0      -18.715853    0.423659   -3.384945
     97          6           0      -18.452151   -1.004039   -3.711846
     98          6           0      -17.728921   -1.416783   -2.525818
     99          6           0      -19.495195    1.437696   -4.170925
    100          6           0      -18.805043   -1.859980   -4.890415
    101          8           0      -18.681474   -3.135312   -4.857458
    102          6           0      -19.387296   -1.170074   -6.050797
    103          7           0      -16.275370   -2.608164   -0.112410
    104          6           0      -16.929409   -3.316339   -1.049770
    105          6           0      -16.748615   -4.800428   -0.837166
    106          6           0      -15.633620   -4.938705    0.300930
    107          6           0      -15.417732   -3.444461    0.626578
    108          6           0      -18.001146   -5.569906   -0.418319
    109          6           0      -14.391414   -5.809422   -0.032908
    110          6           0      -13.569230   -5.143206   -1.112522
    111          7           0      -14.727206   -0.659741    1.418665
    112          6           0      -14.308184   -1.823105    2.100645
    113          6           0      -13.532574   -1.381994    3.278040
    114          6           0      -13.573953    0.018848    3.211559
    115          6           0      -14.339514    0.422391    2.084369
    116          6           0      -12.947910   -2.234921    4.256213
    117          6           0      -13.153009    1.247982    3.844594
    118          8           0      -12.411463    1.531335    4.784570
    119          6           0      -13.955745    2.453917    3.190570
    120          6           0      -12.971796    3.543425    2.862979
    121          8           0      -12.092929    3.363345    2.001715
    122          8           0      -13.363209    4.684462    3.458968
    123          6           0      -12.424745    5.797332    3.154648
    124          1           0      -18.962185    2.560080   -1.614977
    125          1           0      -17.935768   -3.501857   -2.715378
    126          1           0      -14.135721   -3.821045    2.273859
    127          1           0      -16.170013    4.354338    2.039970
    128          1           0      -17.726347    4.422914   -0.307416
    129          1           0      -18.250838    3.374732    2.443292
    130          1           0      -19.147270    2.552124    1.149439
    131          1           0      -19.367050    4.265228    1.340765
    132          1           0      -15.411636    4.504626   -0.887148
    133          1           0      -14.090477    4.391938    0.332291
    134          1           0      -15.852119    6.481731    1.130378
    135          1           0      -15.872053    6.519357   -0.596785
    136          1           0      -19.645606    2.361300   -3.598450
    137          1           0      -20.504359    1.032823   -4.303356
    138          1           0      -19.061027    1.633123   -5.153765
    139          1           0      -20.295402   -0.655087   -5.746497
    140          1           0      -19.489168   -1.933940   -6.824104
    141          1           0      -18.685754   -0.398613   -6.387398
    142          1           0      -16.390487   -5.279634   -1.740047
    143          1           0      -16.037169   -5.403839    1.212328
    144          1           0      -18.251990   -6.401584   -1.103496
    145          1           0      -18.824439   -4.871189   -0.351014
    146          1           0      -17.971307   -5.989209    0.585923
    147          1           0      -14.703723   -6.777060   -0.433271
    148          1           0      -13.757963   -6.005448    0.825755
    149          1           0      -14.076311   -5.448585   -2.032686
    150          1           0      -12.542686   -5.503339   -1.089397
    151          1           0      -13.640074   -4.051453   -1.043868
    152          1           0      -11.958205   -1.846473    4.456432
    153          1           0      -12.908903   -3.266341    3.912091
    154          1           0      -13.656290   -2.103033    5.078436
    155          1           0      -14.702812    2.781138    3.914717
    156          1           0      -12.087034    6.201808    4.113830
    157          1           0      -12.980127    6.482236    2.486654
    158          1           0      -11.480259    5.543041    2.688031
 ---------------------------------------------------------------------

 SCF Done:  E(RCAM-B3LYP) =  -4069.81176851     A.U. after   19 cycles

 Excitation energies and oscillator strengths:

 Excited State   1:      Singlet-A      1.6754 eV  740.01 nm  f=0.2808  <S**2>=0.000
     309 -> 315        0.17052
     311 -> 313        0.67397
     312 -> 314        0.12817
     309 <- 315        0.10279
 This state for optimization and/or second-order correction.
 Total Energy, E(TD-HF/TD-DFT) =  -4069.75019721
 Copying the excited state density for this state as the 1-particle RhoCI density.

 Excited State   2:      Singlet-A      1.6801 eV  737.98 nm  f=0.4984  <S**2>=0.000
     310 -> 316        0.17251
     311 -> 313       -0.12813
     312 -> 314        0.67361
     310 <- 316        0.10329

 Excited State   3:      Singlet-A      2.1861 eV  567.14 nm  f=0.0951  <S**2>=0.000
     309 -> 313        0.64209
     311 -> 315       -0.27296

 Excited State   4:      Singlet-A      2.1926 eV  565.48 nm  f=0.1049  <S**2>=0.000
     310 -> 314        0.64031
     312 -> 316       -0.27815

 Excited State   5:      Singlet-A      3.0506 eV  406.42 nm  f=0.0000  <S**2>=0.000
     312 -> 313        0.70710

 The electronic state is 1-A.
 Alpha  occ. eigenvalues --  -46.87731 -46.87662 -19.26351 -19.26220 -19.19161
 Alpha  occ. eigenvalues --  -19.18954 -19.18748 -19.18713 -19.18106 -19.18054
 Alpha  occ. eigenvalues --  -14.42499 -14.42385 -14.41385 -14.41361 -14.39353
 Alpha  occ. eigenvalues --  -14.39337 -14.38601 -14.38522 -10.39091 -10.39014
 Alpha  occ. eigenvalues --  -10.35391 -10.35381 -10.34326 -10.34231 -10.31757
 Alpha  occ. eigenvalues --  -10.31615 -10.31341 -10.31311 -10.31024 -10.30844
 Alpha  occ. eigenvalues --  -10.30505 -10.30443 -10.30399 -10.30362 -10.30142
 Alpha  occ. eigenvalues --  -10.30142 -10.29896 -10.29857 -10.29566 -10.29438
 Alpha  occ. eigenvalues --  -10.29402 -10.29189 -10.28720 -10.28684 -10.28653
 Alpha  occ. eigenvalues --  -10.28471 -10.28406 -10.28300 -10.28143 -10.28053
 Alpha  occ. eigenvalues --  -10.28003 -10.27729 -10.27671 -10.27663 -10.27519
 Alpha  occ. eigenvalues --  -10.27519 -10.27485 -10.27468 -10.27465 -10.27438
 Alpha  occ. eigenvalues --  -10.27414 -10.27387 -10.27377 -10.27339 -10.27095
 Alpha  occ. eigenvalues --  -10.27053 -10.26692 -10.26637 -10.26413 -10.26340
 Alpha  occ. eigenvalues --  -10.26174 -10.26136 -10.26119 -10.26030 -10.25955
 Alpha  occ. eigenvalues --  -10.25936 -10.25854 -10.25783 -10.25401 -10.25376
 Alpha  occ. eigenvalues --  -10.24875 -10.24769 -10.24727 -10.24723 -10.24691
 Alpha  occ. eigenvalues --  -10.24619  -3.16474  -3.16411  -1.91356  -1.91294
 Alpha  occ. eigenvalues --   -1.90942  -1.90882  -1.90784  -1.90719  -1.16644
 Alpha  occ. eigenvalues --   -1.16568  -1.08661  -1.08564  -1.07149  -1.06966
 Alpha  occ. eigenvalues --   -1.06946  -1.06577  -1.04516  -1.04497  -1.03696
 Alpha  occ. eigenvalues --   -1.03665  -1.03169  -1.03040  -1.02346  -1.02113
 Alpha  occ. eigenvalues --   -0.91989  -0.91908  -0.89495  -0.89455  -0.89153
 Alpha  occ. eigenvalues --   -0.89123  -0.88223  -0.88221  -0.87807  -0.87796
 Alpha  occ. eigenvalues --   -0.87685  -0.87608  -0.87208  -0.87120  -0.85001
 Alpha  occ. eigenvalues --   -0.84917  -0.83877  -0.83872  -0.82931  -0.82900
 Alpha  occ. eigenvalues --   -0.82653  -0.82583  -0.81598  -0.81521  -0.80531
 Alpha  occ. eigenvalues --   -0.80444  -0.78732  -0.78636  -0.77154  -0.77146
 Alpha  occ. eigenvalues --   -0.76900  -0.76870  -0.75859  -0.75841  -0.74835
 Alpha  occ. eigenvalues --   -0.74804  -0.72710  -0.72701  -0.71609  -0.71583
 Alpha  occ. eigenvalues --   -0.69843  -0.69757  -0.68828  -0.68808  -0.67603
 Alpha  occ. eigenvalues --   -0.67576  -0.67200  -0.67153  -0.65273  -0.65222
 Alpha  occ. eigenvalues --   -0.64789  -0.64772  -0.64655  -0.64556  -0.64205
 Alpha  occ. eigenvalues --   -0.64205  -0.62280  -0.62233  -0.60377  -0.60340
 Alpha  occ. eigenvalues --   -0.59798  -0.59740  -0.58994  -0.58923  -0.58439
 Alpha  occ. eigenvalues --   -0.58427  -0.57556  -0.57520  -0.57244  -0.57238
 Alpha  occ. eigenvalues --   -0.56245  -0.56206  -0.55914  -0.55887  -0.55455
 Alpha  occ. eigenvalues --   -0.55453  -0.55276  -0.55249  -0.54489  -0.54459
 Alpha  occ. eigenvalues --   -0.53914  -0.53830  -0.53234  -0.53229  -0.53157
 Alpha  occ. eigenvalues --   -0.53143  -0.52903  -0.52850  -0.52690  -0.52668
 Alpha  occ. eigenvalues --   -0.52400  -0.52373  -0.51888  -0.51852  -0.51659
 Alpha  occ. eigenvalues --   -0.51551  -0.51203  -0.51132  -0.50505  -0.50475
 Alpha  occ. eigenvalues --   -0.49981  -0.49967  -0.49868  -0.49853  -0.49488
 Alpha  occ. eigenvalues --   -0.49449  -0.49204  -0.49150  -0.49107  -0.49032
 Alpha  occ. eigenvalues --   -0.48560  -0.48529  -0.48397  -0.48380  -0.48378
 Alpha  occ. eigenvalues --   -0.48339  -0.47630  -0.47596  -0.47232  -0.47119
 Alpha  occ. eigenvalues --   -0.46733  -0.46710  -0.46555  -0.46490  -0.46295
 Alpha  occ. eigenvalues --   -0.46272  -0.46099  -0.46087  -0.45824  -0.45759
 Alpha  occ. eigenvalues --   -0.45210  -0.45138  -0.44516  -0.44514  -0.44477
 Alpha  occ. eigenvalues --   -0.44441  -0.44129  -0.44079  -0.44078  -0.44024
 Alpha  occ. eigenvalues --   -0.43955  -0.43940  -0.43554  -0.43431  -0.43387
 Alpha  occ. eigenvalues --   -0.43321  -0.42963  -0.42931  -0.42903  -0.42635
 Alpha  occ. eigenvalues --   -0.42590  -0.42554  -0.41964  -0.41945  -0.41671
 Alpha  occ. eigenvalues --   -0.41640  -0.41468  -0.41459  -0.41077  -0.40991
 Alpha  occ. eigenvalues --   -0.40804  -0.40756  -0.40722  -0.40699  -0.40507
 Alpha  occ. eigenvalues --   -0.40494  -0.40227  -0.40167  -0.39425  -0.39376
 Alpha  occ. eigenvalues --   -0.38405  -0.38351  -0.37682  -0.37654  -0.37267
 Alpha  occ. eigenvalues --   -0.37256  -0.37200  -0.37198  -0.36772  -0.36649
 Alpha  occ. eigenvalues --   -0.36218  -0.36128  -0.34255  -0.34221  -0.33862
 Alpha  occ. eigenvalues --   -0.33705  -0.33177  -0.33122  -0.31278  -0.31273
 Alpha  occ. eigenvalues --   -0.30974  -0.30971  -0.29966  -0.29958  -0.29384
 Alpha  occ. eigenvalues --   -0.29328  -0.29257  -0.29213  -0.24038  -0.24016
 Alpha  occ. eigenvalues --   -0.21118  -0.21063
 Alpha virt. eigenvalues --   -0.08793  -0.08709  -0.01685  -0.01685  -0.00029
 Alpha virt. eigenvalues --    0.00008   0.02205   0.02264   0.03191   0.03228
 Alpha virt. eigenvalues --    0.04728   0.04783   0.05163   0.05164   0.06182

 Mulliken charges:
               1
     1  Mg   0.838769
     2  C   -0.002946
     3  C   -0.094102
     4  C   -0.045850
     5  C   -0.063953
     6  N   -0.256782
     7  C   -0.052440
     8  C   -0.014057
     9  C   -0.086989
    10  C    0.046343
    11  C    0.104830
    12  C    0.053456
    13  C   -0.071827
    14  H    0.036210
    15  N   -0.433124
    16  C    0.168455
    17  C   -0.177146
    18  C   -0.003972
    19  C    0.148730
    20  C    0.110191
    21  C    0.012328
    22  O   -0.249626
    23  C    0.062448
    24  N   -0.341136
    25  C    0.041247
    26  C   -0.028179
    27  C   -0.023967
    28  C    0.074837
    29  C    0.076205
    30  C    0.035134
    31  C   -0.004510
    32  N   -0.310450
    33  C    0.080403
    34  C   -0.169726
    35  C    0.008344
    36  C    0.083013
    37  C    0.127310
    38  C    0.046109
    39  O   -0.188511
    40  C   -0.005325
    41  C    0.212863
    42  O   -0.257013
    43  O   -0.304840
    44  C    0.157689
    45  H   -0.017630
    46  H   -0.016849
    47  H   -0.041539
    48  H    0.000882
    49  H   -0.004005
    50  H    0.025427
    51  H    0.016416
    52  H    0.016614
    53  H    0.011288
    54  H    0.044178
    55  H    0.017785
    56  H    0.017978
    57  H    0.005864
    58  H    0.026776
    59  H    0.039668
    60  H    0.037293
    61  H    0.035684
    62  H    0.031624
    63  H    0.016593
    64  H    0.009385
    65  H    0.023187
    66  H    0.012509
    67  H    0.004684
    68  H    0.006320
    69  H    0.004688
    70  H    0.008815
    71  H    0.018188
    72  H    0.029040
    73  H    0.047564
    74  H    0.009094
    75  H    0.045923
    76  H    0.035078
    77  H    0.042869
    78  H    0.046413
    79  H    0.053751
    80  Mg   0.837875
    81  C   -0.016822
    82  C   -0.087780
    83  C   -0.045514
    84  C   -0.064903
    85  N   -0.254569
    86  C   -0.049823
    87  C   -0.015105
    88  C   -0.090495
    89  C    0.045750
    90  C    0.114379
    91  C    0.062520
    92  C   -0.077928
    93  H    0.034965
    94  N   -0.423485
    95  C    0.162950
    96  C   -0.174597
    97  C   -0.007795
    98  C    0.152127
    99  C    0.099356
   100  C    0.015604
   101  O   -0.253155
   102  C    0.061173
   103  N   -0.350069
   104  C    0.037523
   105  C   -0.019804
   106  C   -0.034854
   107  C    0.088937
   108  C    0.073655
   109  C    0.034757
   110  C   -0.007690
   111  N   -0.324123
   112  C    0.078474
   113  C   -0.163130
   114  C    0.002228
   115  C    0.096237
   116  C    0.131492
   117  C    0.042386
   118  O   -0.187902
   119  C    0.000921
   120  C    0.211246
   121  O   -0.250949
   122  O   -0.305665
   123  C    0.152025
   124  H   -0.019662
   125  H   -0.015546
   126  H   -0.040453
   127  H   -0.000681
   128  H   -0.004297
   129  H    0.022429
   130  H    0.014410
   131  H    0.016276
   132  H    0.013960
   133  H    0.037717
   134  H    0.020744
   135  H    0.019615
   136  H    0.008763
   137  H    0.026145
   138  H    0.039862
   139  H    0.038239
   140  H    0.036440
   141  H    0.033950
   142  H    0.014445
   143  H    0.012387
   144  H    0.025161
   145  H    0.011612
   146  H    0.005648
   147  H    0.006270
   148  H    0.003649
   149  H    0.010955
   150  H    0.018010
   151  H    0.030111
   152  H    0.046032
   153  H    0.008532
   154  H    0.046878
   155  H    0.034975
   156  H    0.043864
   157  H    0.049501
   158  H    0.053638
 Sum of Mulliken charges =  -0.00000

 Dipole moment (field-independent basis, Debye):
    X=             -1.8218    Y=              2.9167    Z=              2.4703  Tot=              4.2342
 Quadrupole moment (field-independent basis, Debye-Ang):
   XX=           -342.4476   YY=           -462.2322   ZZ=           -532.6278
   XY=            -27.4984   XZ=             78.3512   YZ=             14.5890

 Normal termination of Gaussian 16 at Sun Sep 12 14:09:27 2021.
