 Gaussian 16, Revision A.03,
 Gaussian 16:  ES64L-G16RevA.03 25-Dec-2016

 -----------------------------------
 #p cam-b3lyp/Def2SVP td=(nstates=5)
 -----------------------------------

 --------------------------------
 TDDFT excited states in gaussian
 --------------------------------
 Symbolic Z-matrix:
 Charge =  0 Multiplicity = 1

                         Standard orientation:
 ---------------------------------------------------------------------
 Center     Atomic      Atomic             Coordinates (Angstroms)
 Number     Number       Type             X           Y           Z
 ---------------------------------------------------------------------
      1         12           0        8.103647   -0.504035    0.086478
      2          6           0        8.213975    2.725897   -1.452218
      3          6           0        8.950493    1.026955    3.015981
      4          6           0        8.456985   -3.385025    1.363846
      5          6           0        8.388158   -1.871807   -3.106313
      6          7           0        8.502721    1.614116    0.591278
      7          6           0        8.453100    2.762399   -0.076670
      8          6           0        8.604293    4.015486    0.836724
      9          6           0        9.380318    3.345007    2.057478
     10          6           0        8.888998    1.916544    1.902482
     11          6           0       10.897208    3.362656    1.898627
     12          6           0        7.220458    4.594161    1.286019
     13          6           0        7.267332    5.994854    1.903447
     14          1           0        6.165876    6.910458    1.646909
     15          7           0        8.146364   -1.070055    1.978738
     16          6           0        8.500021   -0.310652    3.043407
     17          6           0        8.368477   -1.184531    4.229035
     18          6           0        8.092703   -2.566554    3.747313
     19          6           0        8.248987   -2.398674    2.325072
     20          6           0        8.455369   -0.680034    5.636757
     21          6           0        7.754004   -3.839222    4.457054
     22          8           0        7.782363   -4.974180    3.869143
     23          6           0        7.470399   -3.731482    5.899622
     24          7           0        8.603135   -2.363485   -0.720114
     25          6           0        8.630095   -3.461823    0.042717
     26          6           0        8.731269   -4.703988   -0.791984
     27          6           0        8.522521   -4.238116   -2.304975
     28          6           0        8.412891   -2.711520   -2.068846
     29          6           0       10.048410   -5.483405   -0.675104
     30          6           0        7.401179   -4.942459   -3.109282
     31          6           0        6.050384   -4.572041   -2.538982
     32          7           0        8.095035    0.252002   -1.948068
     33          6           0        8.250699   -0.493905   -3.125382
     34          6           0        8.284781    0.466316   -4.243811
     35          6           0        8.162425    1.713321   -3.634013
     36          6           0        8.084884    1.544499   -2.222001
     37          6           0        8.473169    0.140953   -5.616065
     38          6           0        8.103924    3.150645   -3.845039
     39          8           0        8.031074    3.879422   -4.835529
     40          6           0        8.257530    3.871025   -2.433201
     41          6           0        7.182625    4.919318   -2.338493
     42          8           0        5.978553    4.597197   -2.276730
     43          8           0        7.745896    6.113072   -2.097211
     44          6           0        6.731975    7.192883   -1.962571
     45          1           0        9.440300    1.361623    3.932511
     46          1           0        8.473639   -4.404888    1.753768
     47          1           0        8.389723   -2.230460   -4.137244
     48          1           0        9.204836    4.819084    0.410106
     49          1           0        9.061300    3.753539    3.016150
     50          1           0       11.190236    3.718135    0.910857
     51          1           0       11.216904    2.330315    2.042012
     52          1           0       11.364035    3.935039    2.700642
     53          1           0        6.854128    4.026526    2.141387
     54          1           0        6.512573    4.589349    0.456440
     55          1           0        8.222918    6.483469    1.711042
     56          1           0        7.229431    5.891510    2.987921
     57          1           0        8.829272    0.342413    5.673407
     58          1           0        9.223196   -1.268210    6.138952
     59          1           0        7.508837   -0.780927    6.168010
     60          1           0        8.337958   -3.308223    6.406321
     61          1           0        7.161178   -4.725645    6.220360
     62          1           0        6.653886   -3.024011    6.047071
     63          1           0        7.952096   -5.417582   -0.527221
     64          1           0        9.418228   -4.391322   -2.907396
     65          1           0        9.916978   -6.522302   -0.371585
     66          1           0       10.694333   -4.950929    0.022423
     67          1           0       10.659468   -5.486224   -1.577333
     68          1           0        7.498163   -6.024504   -3.027316
     69          1           0        7.407208   -4.688289   -4.169288
     70          1           0        5.935512   -5.271190   -1.711439
     71          1           0        5.269088   -4.718887   -3.285457
     72          1           0        6.058346   -3.566683   -2.117464
     73          1           0        7.756118    0.743402   -6.173615
     74          1           0        8.320639   -0.923105   -5.795280
     75          1           0        9.511120    0.443153   -5.754593
     76          1           0        9.256382    4.305632   -2.410069
     77          1           0        6.988708    7.966333   -2.686516
     78          1           0        6.714444    7.471856   -0.908877
     79          1           0        5.718088    6.944146   -2.278010
     80         12           0       -7.765150   -0.922211    0.161586
     81          6           0      -10.078537    1.813933   -0.040437
     82          6           0       -5.347884    1.370698    0.892368
     83          6           0       -5.621527   -3.247351   -0.095393
     84          6           0      -10.052505   -2.809817   -1.668887
     85          7           0       -7.828396    1.278756    0.371318
     86          6           0       -8.775497    2.203907    0.332981
     87          6           0       -8.316933    3.613300    0.794384
     88          6           0       -6.745521    3.463495    0.499237
     89          6           0       -6.616013    1.947184    0.628508
     90          6           0       -6.358959    3.856883   -0.916800
     91          6           0       -8.593891    3.862752    2.318539
     92          6           0       -8.457312    5.319465    2.766985
     93          1           0       -9.359268    5.816490    3.802318
     94          7           0       -5.900212   -1.029458    0.831723
     95          6           0       -5.069980    0.001157    1.095999
     96          6           0       -3.806520   -0.604716    1.544056
     97          6           0       -3.903988   -2.078947    1.365537
     98          6           0       -5.165434   -2.176068    0.658837
     99          6           0       -2.691323    0.195041    2.152455
    100          6           0       -3.003861   -3.212612    1.753827
    101          8           0       -3.171190   -4.395063    1.288377
    102          6           0       -1.865103   -2.877973    2.621436
    103          7           0       -7.729554   -2.693150   -0.926924
    104          6           0       -6.700020   -3.551105   -0.817825
    105          6           0       -7.019541   -4.872909   -1.474434
    106          6           0       -8.575528   -4.807018   -1.837953
    107          6           0       -8.879121   -3.360571   -1.389589
    108          6           0       -6.216676   -5.201883   -2.732832
    109          6           0       -9.473886   -5.952646   -1.296511
    110          6           0       -9.562750   -5.870525    0.210391
    111          7           0       -9.787267   -0.653223   -0.550272
    112          6           0      -10.548290   -1.560068   -1.320041
    113          6           0      -11.818774   -0.885746   -1.657060
    114          6           0      -11.698215    0.385072   -1.074836
    115          6           0      -10.433054    0.502152   -0.438323
    116          6           0      -12.867460   -1.434335   -2.447902
    117          6           0      -12.349213    1.657882   -0.863036
    118          8           0      -13.469041    2.110478   -1.097319
    119          6           0      -11.278376    2.684377   -0.292082
    120          6           0      -11.892548    3.388741    0.886549
    121          8           0      -12.176697    2.759665    1.921030
    122          8           0      -11.842293    4.717489    0.681003
    123          6           0      -12.429820    5.459837    1.827981
    124          1           0       -4.473867    2.022495    0.903575
    125          1           0       -4.963652   -4.119113   -0.122246
    126          1           0      -10.857957   -3.366028   -2.153199
    127          1           0       -8.726552    4.435112    0.219399
    128          1           0       -6.151363    3.963154    1.259942
    129          1           0       -7.224927    4.060506   -1.528992
    130          1           0       -5.803679    3.017341   -1.314136
    131          1           0       -5.660194    4.698107   -0.896885
    132          1           0       -7.787292    3.408270    2.908106
    133          1           0       -9.559797    3.488126    2.596579
    134          1           0       -8.429751    6.011662    1.916662
    135          1           0       -7.483507    5.445086    3.246504
    136          1           0       -2.839274    1.271437    2.001188
    137          1           0       -1.784295   -0.037014    1.583861
    138          1           0       -2.522054   -0.049740    3.203214
    139          1           0       -1.245085   -2.130997    2.131479
    140          1           0       -1.390979   -3.831478    2.862093
    141          1           0       -2.247829   -2.416772    3.538727
    142          1           0       -6.853219   -5.695216   -0.789409
    143          1           0       -8.741840   -4.840600   -2.924718
    144          1           0       -5.666801   -6.159308   -2.661878
    145          1           0       -5.534217   -4.384797   -2.925625
    146          1           0       -6.796408   -5.240791   -3.653484
    147          1           0       -9.030115   -6.923869   -1.528775
    148          1           0      -10.476030   -5.948830   -1.712051
    149          1           0       -8.651920   -6.379662    0.539423
    150          1           0      -10.452993   -6.382491    0.570094
    151          1           0       -9.501015   -4.830810    0.552199
    152          1           0      -13.795116   -1.190026   -1.947642
    153          1           0      -12.752203   -2.509225   -2.570706
    154          1           0      -12.707697   -0.894634   -3.385176
    155          1           0      -11.026349    3.376248   -1.096679
    156          1           0      -13.215376    6.104877    1.422368
    157          1           0      -11.578477    5.957345    2.329435
    158          1           0      -12.983983    4.888718    2.563627
 ---------------------------------------------------------------------

 SCF Done:  E(RCAM-B3LYP) =  -4069.81183828     A.U. after   19 cycles

 Excitation energies and oscillator strengths:

 Excited State   1:      Singlet-A      1.6733 eV  740.96 nm  f=0.2798  <S**2>=0.000
     310 -> 316        0.14999
     311 -> 313       -0.34221
     312 -> 314        0.59476
 This state for optimization and/or second-order correction.
 Total Energy, E(TD-HF/TD-DFT) =  -4069.75034563
 Copying the excited state density for this state as the 1-particle RhoCI density.

 Excited State   2:      Singlet-A      1.6815 eV  737.35 nm  f=0.5009  <S**2>=0.000
     309 -> 315        0.15282
     311 -> 313        0.59422
     312 -> 314        0.34195

 Excited State   3:      Singlet-A      2.1859 eV  567.21 nm  f=0.0549  <S**2>=0.000
     309 -> 313        0.14926
     310 -> 314        0.62516
     312 -> 316       -0.26539

 Excited State   4:      Singlet-A      2.1933 eV  565.27 nm  f=0.1377  <S**2>=0.000
     309 -> 313        0.62316
     310 -> 314       -0.14818
     311 -> 315       -0.27125

 Excited State   5:      Singlet-A      2.7324 eV  453.76 nm  f=0.0000  <S**2>=0.000
     312 -> 313        0.70701

 The electronic state is 1-A.
 Alpha  occ. eigenvalues --  -46.87916 -46.87583 -19.26444 -19.26298 -19.19183
 Alpha  occ. eigenvalues --  -19.19106 -19.18914 -19.18632 -19.18291 -19.17982
 Alpha  occ. eigenvalues --  -14.42571 -14.42419 -14.41559 -14.41283 -14.39521
 Alpha  occ. eigenvalues --  -14.39273 -14.38705 -14.38524 -10.39238 -10.39035
 Alpha  occ. eigenvalues --  -10.35547 -10.35309 -10.34513 -10.34160 -10.31848
 Alpha  occ. eigenvalues --  -10.31713 -10.31528 -10.31230 -10.31035 -10.30943
 Alpha  occ. eigenvalues --  -10.30688 -10.30619 -10.30323 -10.30309 -10.30285
 Alpha  occ. eigenvalues --  -10.30062 -10.30023 -10.29822 -10.29744 -10.29367
 Alpha  occ. eigenvalues --  -10.29355 -10.29324 -10.28893 -10.28721 -10.28644
 Alpha  occ. eigenvalues --  -10.28606 -10.28485 -10.28326 -10.28249 -10.28054
 Alpha  occ. eigenvalues --  -10.27923 -10.27908 -10.27845 -10.27698 -10.27601
 Alpha  occ. eigenvalues --  -10.27585 -10.27574 -10.27525 -10.27522 -10.27449
 Alpha  occ. eigenvalues --  -10.27408 -10.27387 -10.27368 -10.27306 -10.27290
 Alpha  occ. eigenvalues --  -10.26983 -10.26881 -10.26633 -10.26510 -10.26352
 Alpha  occ. eigenvalues --  -10.26329 -10.26235 -10.26125 -10.26079 -10.25942
 Alpha  occ. eigenvalues --  -10.25915 -10.25859 -10.25786 -10.25498 -10.25323
 Alpha  occ. eigenvalues --  -10.24949 -10.24895 -10.24796 -10.24728 -10.24677
 Alpha  occ. eigenvalues --  -10.24613  -3.16659  -3.16333  -1.91541  -1.91216
 Alpha  occ. eigenvalues --   -1.91127  -1.90969  -1.90804  -1.90641  -1.16792
 Alpha  occ. eigenvalues --   -1.16591  -1.08751  -1.08591  -1.07314  -1.06891
 Alpha  occ. eigenvalues --   -1.06883  -1.06803  -1.04703  -1.04416  -1.03872
 Alpha  occ. eigenvalues --   -1.03586  -1.03348  -1.02962  -1.02525  -1.02034
 Alpha  occ. eigenvalues --   -0.92094  -0.91913  -0.89612  -0.89423  -0.89324
 Alpha  occ. eigenvalues --   -0.89072  -0.88375  -0.88150  -0.87982  -0.87794
 Alpha  occ. eigenvalues --   -0.87721  -0.87607  -0.87386  -0.87036  -0.85114
 Alpha  occ. eigenvalues --   -0.84924  -0.84020  -0.83809  -0.83067  -0.82851
 Alpha  occ. eigenvalues --   -0.82773  -0.82576  -0.81719  -0.81532  -0.80719
 Alpha  occ. eigenvalues --   -0.80372  -0.78910  -0.78555  -0.77331  -0.77069
 Alpha  occ. eigenvalues --   -0.77060  -0.76830  -0.76050  -0.75762  -0.74991
 Alpha  occ. eigenvalues --   -0.74731  -0.72885  -0.72623  -0.71784  -0.71503
 Alpha  occ. eigenvalues --   -0.69981  -0.69691  -0.69000  -0.68752  -0.67757
 Alpha  occ. eigenvalues --   -0.67528  -0.67359  -0.67129  -0.65419  -0.65199
 Alpha  occ. eigenvalues --   -0.64973  -0.64739  -0.64697  -0.64583  -0.64364
 Alpha  occ. eigenvalues --   -0.64133  -0.62431  -0.62215  -0.60548  -0.60260
 Alpha  occ. eigenvalues --   -0.59933  -0.59718  -0.59100  -0.58918  -0.58618
 Alpha  occ. eigenvalues --   -0.58352  -0.57716  -0.57488  -0.57415  -0.57164
 Alpha  occ. eigenvalues --   -0.56426  -0.56128  -0.56122  -0.55823  -0.55634
 Alpha  occ. eigenvalues --   -0.55441  -0.55377  -0.55181  -0.54636  -0.54424
 Alpha  occ. eigenvalues --   -0.54032  -0.53835  -0.53409  -0.53348  -0.53153
 Alpha  occ. eigenvalues --   -0.53067  -0.53041  -0.52875  -0.52832  -0.52583
 Alpha  occ. eigenvalues --   -0.52509  -0.52338  -0.52023  -0.51817  -0.51751
 Alpha  occ. eigenvalues --   -0.51584  -0.51311  -0.51131  -0.50681  -0.50391
 Alpha  occ. eigenvalues --   -0.50120  -0.50028  -0.49899  -0.49792  -0.49637
 Alpha  occ. eigenvalues --   -0.49409  -0.49335  -0.49222  -0.49125  -0.49029
 Alpha  occ. eigenvalues --   -0.48718  -0.48559  -0.48555  -0.48485  -0.48306
 Alpha  occ. eigenvalues --   -0.48259  -0.47810  -0.47518  -0.47408  -0.47038
 Alpha  occ. eigenvalues --   -0.46906  -0.46690  -0.46636  -0.46478  -0.46470
 Alpha  occ. eigenvalues --   -0.46272  -0.46195  -0.46016  -0.45945  -0.45756
 Alpha  occ. eigenvalues --   -0.45291  -0.45135  -0.44699  -0.44619  -0.44444
 Alpha  occ. eigenvalues --   -0.44401  -0.44249  -0.44209  -0.44138  -0.44050
 Alpha  occ. eigenvalues --   -0.44007  -0.43862  -0.43622  -0.43502  -0.43490
 Alpha  occ. eigenvalues --   -0.43312  -0.43140  -0.42868  -0.42838  -0.42831
 Alpha  occ. eigenvalues --   -0.42745  -0.42482  -0.42111  -0.41897  -0.41820
 Alpha  occ. eigenvalues --   -0.41663  -0.41596  -0.41388  -0.41255  -0.40990
 Alpha  occ. eigenvalues --   -0.40934  -0.40910  -0.40663  -0.40647  -0.40623
 Alpha  occ. eigenvalues --   -0.40423  -0.40388  -0.40159  -0.39510  -0.39361
 Alpha  occ. eigenvalues --   -0.38564  -0.38280  -0.37896  -0.37588  -0.37419
 Alpha  occ. eigenvalues --   -0.37399  -0.37194  -0.37125  -0.36851  -0.36713
 Alpha  occ. eigenvalues --   -0.36312  -0.36148  -0.34402  -0.34178  -0.33926
 Alpha  occ. eigenvalues --   -0.33803  -0.33304  -0.33099  -0.31443  -0.31191
 Alpha  occ. eigenvalues --   -0.31150  -0.30896  -0.30152  -0.29887  -0.29564
 Alpha  occ. eigenvalues --   -0.29438  -0.29247  -0.29136  -0.24197  -0.23959
 Alpha  occ. eigenvalues --   -0.21242  -0.21039
 Alpha virt. eigenvalues --   -0.08889  -0.08713  -0.01861  -0.01606  -0.00172
 Alpha virt. eigenvalues --    0.00052   0.02086   0.02279   0.02970   0.03291
 Alpha virt. eigenvalues --    0.04590   0.04805   0.04944   0.05223   0.06021

 Mulliken charges:
               1
     1  Mg   0.838066
     2  C   -0.003341
     3  C   -0.094509
     4  C   -0.045662
     5  C   -0.063696
     6  N   -0.256809
     7  C   -0.052675
     8  C   -0.013937
     9  C   -0.086939
    10  C    0.046126
    11  C    0.104766
    12  C    0.053591
    13  C   -0.071587
    14  H    0.035269
    15  N   -0.433201
    16  C    0.168212
    17  C   -0.177362
    18  C   -0.004004
    19  C    0.148559
    20  C    0.110184
    21  C    0.012226
    22  O   -0.249045
    23  C    0.062568
    24  N   -0.341149
    25  C    0.041260
    26  C   -0.028291
    27  C   -0.024053
    28  C    0.074865
    29  C    0.076070
    30  C    0.035019
    31  C   -0.004561
    32  N   -0.310468
    33  C    0.080328
    34  C   -0.169613
    35  C    0.008362
    36  C    0.082810
    37  C    0.127314
    38  C    0.046014
    39  O   -0.188409
    40  C   -0.005270
    41  C    0.212988
    42  O   -0.257833
    43  O   -0.304560
    44  C    0.157790
    45  H   -0.017522
    46  H   -0.016398
    47  H   -0.041148
    48  H    0.001084
    49  H   -0.004237
    50  H    0.025595
    51  H    0.016676
    52  H    0.016788
    53  H    0.010637
    54  H    0.043532
    55  H    0.018355
    56  H    0.017905
    57  H    0.005799
    58  H    0.027166
    59  H    0.039097
    60  H    0.037478
    61  H    0.036131
    62  H    0.030873
    63  H    0.017015
    64  H    0.009626
    65  H    0.023602
    66  H    0.012488
    67  H    0.004920
    68  H    0.006844
    69  H    0.004791
    70  H    0.009347
    71  H    0.018759
    72  H    0.028246
    73  H    0.047545
    74  H    0.009389
    75  H    0.046195
    76  H    0.035349
    77  H    0.043236
    78  H    0.046288
    79  H    0.053136
    80  Mg   0.837815
    81  C   -0.016854
    82  C   -0.087758
    83  C   -0.045403
    84  C   -0.064887
    85  N   -0.254576
    86  C   -0.049862
    87  C   -0.015110
    88  C   -0.090440
    89  C    0.045651
    90  C    0.114237
    91  C    0.062564
    92  C   -0.077719
    93  H    0.034454
    94  N   -0.423579
    95  C    0.162836
    96  C   -0.174125
    97  C   -0.007736
    98  C    0.152210
    99  C    0.099080
   100  C    0.015705
   101  O   -0.253116
   102  C    0.061115
   103  N   -0.350018
   104  C    0.037595
   105  C   -0.019870
   106  C   -0.034763
   107  C    0.088850
   108  C    0.073600
   109  C    0.034778
   110  C   -0.007642
   111  N   -0.324053
   112  C    0.078350
   113  C   -0.163265
   114  C    0.002200
   115  C    0.096076
   116  C    0.131518
   117  C    0.042275
   118  O   -0.188155
   119  C    0.000951
   120  C    0.211215
   121  O   -0.251170
   122  O   -0.305563
   123  C    0.152101
   124  H   -0.018904
   125  H   -0.015524
   126  H   -0.040624
   127  H   -0.000663
   128  H   -0.004451
   129  H    0.022382
   130  H    0.015029
   131  H    0.016736
   132  H    0.013758
   133  H    0.037537
   134  H    0.020895
   135  H    0.019455
   136  H    0.009074
   137  H    0.027362
   138  H    0.039080
   139  H    0.038803
   140  H    0.036587
   141  H    0.033279
   142  H    0.014289
   143  H    0.012392
   144  H    0.025015
   145  H    0.012018
   146  H    0.005642
   147  H    0.006145
   148  H    0.003538
   149  H    0.010888
   150  H    0.017738
   151  H    0.030133
   152  H    0.045802
   153  H    0.008377
   154  H    0.046920
   155  H    0.035087
   156  H    0.043811
   157  H    0.049445
   158  H    0.053436
 Sum of Mulliken charges =  -0.00000

 Dipole moment (field-independent basis, Debye):
    X=              6.2742    Y=              2.0111    Z=              4.0605  Tot=              7.7394
 Quadrupole moment (field-independent basis, Debye-Ang):
   XX=           -564.3178   YY=           -488.6080   ZZ=           -500.0217
   XY=             16.4499   XZ=             38.5666   YZ=             52.3622

 Normal termination of Gaussian 16 at Sun Sep 12 07:51:34 2021.
