 Gaussian 16, Revision A.03,
 Gaussian 16:  ES64L-G16RevA.03 25-Dec-2016

 -----------------------------------
 #p cam-b3lyp/Def2SVP td=(nstates=5)
 -----------------------------------

 --------------------------------
 TDDFT excited states in gaussian
 --------------------------------
 Symbolic Z-matrix:
 Charge =  0 Multiplicity = 1

                         Standard orientation:
 ---------------------------------------------------------------------
 Center     Atomic      Atomic             Coordinates (Angstroms)
 Number     Number       Type             X           Y           Z
 ---------------------------------------------------------------------
      1         12           0        7.962086   -0.620285    0.575996
      2          6           0        8.328642    2.069293   -1.757246
      3          6           0        8.650036    1.628303    3.048574
      4          6           0        8.092357   -3.054662    2.604163
      5          6           0        8.428201   -2.807157   -2.097202
      6          7           0        8.413205    1.546434    0.526342
      7          6           0        8.464181    2.471766   -0.426723
      8          6           0        8.599894    3.921838    0.126671
      9          6           0        9.251363    3.590564    1.543655
     10          6           0        8.711738    2.184284    1.736282
     11          6           0       10.775265    3.532254    1.514933
     12          6           0        7.212379    4.629865    0.285511
     13          6           0        7.273002    6.144083    0.506470
     14          1           0        6.234891    6.979259   -0.078470
     15          7           0        7.836681   -0.653608    2.547293
     16          6           0        8.141216    0.357985    3.395364
     17          6           0        7.882427   -0.159238    4.756316
     18          6           0        7.584301   -1.613874    4.641200
     19          6           0        7.855062   -1.840704    3.244555
     20          6           0        7.884164    0.705590    5.979353
     21          6           0        7.137928   -2.639334    5.634836
     22          8           0        7.161533   -3.891415    5.377329
     23          6           0        6.750742   -2.139030    6.966311
     24          7           0        8.440185   -2.638864    0.342765
     25          6           0        8.361608   -3.489955    1.371576
     26          6           0        8.471808   -4.913583    0.912143
     27          6           0        8.398728   -4.870422   -0.682394
     28          6           0        8.337803   -3.334940   -0.874361
     29          6           0        9.741269   -5.660093    1.344811
     30          6           0        7.312093   -5.742192   -1.360377
     31          6           0        5.939292   -5.202536   -1.026780
     32          7           0        8.140487   -0.443338   -1.579905
     33          6           0        8.352449   -1.483282   -2.496564
     34          6           0        8.512799   -0.862694   -3.824429
     35          6           0        8.398755    0.505149   -3.583919
     36          6           0        8.207171    0.726627   -2.190171
     37          6           0        8.790369   -1.551378   -5.038144
     38          6           0        8.418785    1.832560   -4.176739
     39          8           0        8.452880    2.267319   -5.328831
     40          6           0        8.496028    2.904851   -3.001983
     41          6           0        7.463498    3.962263   -3.283172
     42          8           0        6.245378    3.694601   -3.239501
     43          8           0        8.058083    5.164488   -3.323974
     44          6           0        7.084644    6.261748   -3.570128
     45          1           0        9.083016    2.188119    3.879883
     46          1           0        8.035179   -3.930975    3.253196
     47          1           0        8.492349   -3.431489   -2.990257
     48          1           0        9.265317    4.566943   -0.447330
     49          1           0        8.878615    4.250093    2.327110
     50          1           0       11.157451    3.600695    0.496517
     51          1           0       11.038116    2.570731    1.956380
     52          1           0       11.204336    4.290334    2.170668
     53          1           0        6.758008    4.322955    1.227538
     54          1           0        6.569865    4.415691   -0.569259
     55          1           0        8.260705    6.541900    0.271748
     56          1           0        7.148570    6.339053    1.571695
     57          1           0        8.298188    1.691572    5.772064
     58          1           0        8.585496    0.259149    6.684003
     59          1           0        6.896608    0.772474    6.436071
     60          1           0        7.594932   -1.612956    7.412559
     61          1           0        6.375291   -3.002404    7.514464
     62          1           0        5.956843   -1.400849    6.848992
     63          1           0        7.644607   -5.512087    1.291562
     64          1           0        9.330031   -5.200041   -1.143589
     65          1           0        9.542295   -6.574967    1.903489
     66          1           0       10.354943   -4.972523    1.926140
     67          1           0       10.418253   -5.920093    0.531479
     68          1           0        7.355584   -6.763439   -0.983403
     69          1           0        7.409458   -5.784702   -2.445256
     70          1           0        5.731826   -5.648903   -0.054902
     71          1           0        5.211191   -5.529342   -1.769934
     72          1           0        5.958861   -4.121009   -0.891132
     73          1           0        8.144432   -1.107268   -5.795443
     74          1           0        8.605873   -2.620718   -4.937768
     75          1           0        9.847956   -1.320135   -5.164209
     76          1           0        9.508153    3.308125   -3.011719
     77          1           0        7.428798    6.804653   -4.450495
     78          1           0        6.999412    6.815898   -2.635217
     79          1           0        6.087753    5.958534   -3.892013
     80         12           0       -7.862145   -0.664186   -0.593079
     81          6           0       -8.797078    1.816239    1.826101
     82          6           0       -8.042420    1.788433   -2.956710
     83          6           0       -7.483140   -2.906390   -2.805833
     84          6           0       -8.858927   -3.084156    1.708204
     85          7           0       -8.364535    1.485684   -0.459215
     86          6           0       -8.642921    2.330802    0.521918
     87          6           0       -8.683707    3.822338    0.093875
     88          6           0       -9.004354    3.616140   -1.466106
     89          6           0       -8.404234    2.224730   -1.657155
     90          6           0      -10.491392    3.540789   -1.770020
     91          6           0       -7.306362    4.543173    0.306803
     92          6           0       -7.356219    6.069077    0.202513
     93          1           0       -6.484802    6.854970    1.071695
     94          7           0       -7.300249   -0.514024   -2.490523
     95          6           0       -7.427402    0.562754   -3.294047
     96          6           0       -6.881717    0.157777   -4.598803
     97          6           0       -6.573222   -1.297176   -4.547070
     98          6           0       -7.138645   -1.640838   -3.257773
     99          6           0       -6.625781    1.132179   -5.711660
    100          6           0       -5.894473   -2.228090   -5.505654
    101          8           0       -5.946726   -3.500421   -5.359811
    102          6           0       -5.245901   -1.610220   -6.671447
    103          7           0       -8.326844   -2.690029   -0.641646
    104          6           0       -8.007736   -3.447182   -1.705990
    105          6           0       -8.187495   -4.915854   -1.404207
    106          6           0       -8.463779   -5.000581    0.168720
    107          6           0       -8.485350   -3.492968    0.503426
    108          6           0       -9.318009   -5.616296   -2.157682
    109          6           0       -7.533969   -5.928512    0.997608
    110          6           0       -6.130112   -5.367992    1.017469
    111          7           0       -8.506294   -0.677681    1.469185
    112          6           0       -8.900741   -1.798474    2.232289
    113          6           0       -9.362913   -1.293130    3.541274
    114          6           0       -9.225845    0.099499    3.439778
    115          6           0       -8.733392    0.439564    2.150845
    116          6           0       -9.875552   -2.087122    4.605654
    117          6           0       -9.395790    1.359920    4.126173
    118          8           0       -9.698434    1.691310    5.271745
    119          6           0       -9.245304    2.536080    3.067693
    120          6           0       -8.321106    3.569927    3.650388
    121          8           0       -7.125316    3.301476    3.861629
    122          8           0       -8.943574    4.762753    3.658763
    123          6           0       -8.062990    5.822897    4.217748
    124          1           0       -8.290173    2.426064   -3.805779
    125          1           0       -7.267007   -3.727548   -3.493203
    126          1           0       -9.093094   -3.782081    2.514885
    127          1           0       -9.467136    4.407531    0.560312
    128          1           0       -8.478681    4.345297   -2.077144
    129          1           0      -11.086213    3.519907   -0.868968
    130          1           0      -10.630106    2.629026   -2.336142
    131          1           0      -10.781551    4.357154   -2.437619
    132          1           0       -6.649292    4.318122   -0.543109
    133          1           0       -6.868552    4.259131    1.243964
    134          1           0       -8.383450    6.451512    0.240933
    135          1           0       -6.998377    6.361091   -0.787780
    136          1           0       -7.104873    2.099693   -5.517299
    137          1           0       -7.140874    0.747297   -6.598451
    138          1           0       -5.563381    1.241577   -5.939712
    139          1           0       -5.983591   -1.048538   -7.239595
    140          1           0       -4.740170   -2.426312   -7.191167
    141          1           0       -4.504218   -0.886100   -6.316245
    142          1           0       -7.285995   -5.470854   -1.633046
    143          1           0       -9.471317   -5.385009    0.385313
    144          1           0       -8.975822   -6.489212   -2.745054
    145          1           0       -9.800655   -4.891499   -2.799742
    146          1           0      -10.143206   -5.960401   -1.536515
    147          1           0       -7.468089   -6.914035    0.530098
    148          1           0       -7.871120   -6.077970    2.017894
    149          1           0       -5.707880   -5.726517    0.073925
    150          1           0       -5.575420   -5.754316    1.870180
    151          1           0       -6.143100   -4.272600    0.977677
    152          1           0       -9.427817   -1.713012    5.516737
    153          1           0       -9.654270   -3.141979    4.457032
    154          1           0      -10.943733   -1.874438    4.510662
    155          1           0      -10.241968    2.937284    2.879868
    156          1           0       -8.608269    6.287894    5.044883
    157          1           0       -7.796437    6.471651    3.362294
    158          1           0       -7.152962    5.507982    4.714884
 ---------------------------------------------------------------------

 SCF Done:  E(RCAM-B3LYP) =  -4069.81188470     A.U. after   19 cycles

 Excitation energies and oscillator strengths:

 Excited State   1:      Singlet-A      1.6701 eV  742.36 nm  f=0.0275  <S**2>=0.000
     309 -> 315        0.10426
     310 -> 316        0.13765
     311 -> 314        0.41317
     312 -> 313        0.54806
 This state for optimization and/or second-order correction.
 Total Energy, E(TD-HF/TD-DFT) =  -4069.75050829
 Copying the excited state density for this state as the 1-particle RhoCI density.

 Excited State   2:      Singlet-A      1.6854 eV  735.62 nm  f=0.7307  <S**2>=0.000
     309 -> 315        0.14137
     310 -> 316       -0.10609
     311 -> 314        0.54725
     312 -> 313       -0.41267

 Excited State   3:      Singlet-A      2.1864 eV  567.08 nm  f=0.0596  <S**2>=0.000
     309 -> 314        0.13528
     310 -> 313        0.62821
     312 -> 316       -0.26707

 Excited State   4:      Singlet-A      2.1932 eV  565.31 nm  f=0.1340  <S**2>=0.000
     309 -> 314        0.62637
     310 -> 313       -0.13437
     311 -> 315       -0.27238

 Excited State   5:      Singlet-A      2.8112 eV  441.03 nm  f=0.0000  <S**2>=0.000
     311 -> 313        0.70709

 The electronic state is 1-A.
 Alpha  occ. eigenvalues --  -46.87728 -46.87592 -19.26323 -19.26265 -19.19128
 Alpha  occ. eigenvalues --  -19.18995 -19.18729 -19.18621 -19.18122 -19.18000
 Alpha  occ. eigenvalues --  -14.42431 -14.42384 -14.41381 -14.41294 -14.39332
 Alpha  occ. eigenvalues --  -14.39281 -14.38535 -14.38521 -10.39056 -10.39052
 Alpha  occ. eigenvalues --  -10.35361 -10.35296 -10.34343 -10.34178 -10.31742
 Alpha  occ. eigenvalues --  -10.31674 -10.31344 -10.31248 -10.30954 -10.30842
 Alpha  occ. eigenvalues --  -10.30506 -10.30440 -10.30331 -10.30297 -10.30133
 Alpha  occ. eigenvalues --  -10.30070 -10.29856 -10.29834 -10.29562 -10.29363
 Alpha  occ. eigenvalues --  -10.29330 -10.29182 -10.28693 -10.28661 -10.28605
 Alpha  occ. eigenvalues --  -10.28494 -10.28337 -10.28299 -10.28081 -10.28059
 Alpha  occ. eigenvalues --  -10.27934 -10.27728 -10.27660 -10.27601 -10.27512
 Alpha  occ. eigenvalues --  -10.27457 -10.27428 -10.27419 -10.27394 -10.27391
 Alpha  occ. eigenvalues --  -10.27379 -10.27363 -10.27341 -10.27316 -10.27114
 Alpha  occ. eigenvalues --  -10.27003 -10.26651 -10.26633 -10.26304 -10.26288
 Alpha  occ. eigenvalues --  -10.26181 -10.26105 -10.26077 -10.25973 -10.25951
 Alpha  occ. eigenvalues --  -10.25869 -10.25804 -10.25793 -10.25369 -10.25344
 Alpha  occ. eigenvalues --  -10.24809 -10.24770 -10.24719 -10.24663 -10.24624
 Alpha  occ. eigenvalues --  -10.24598  -3.16470  -3.16342  -1.91352  -1.91224
 Alpha  occ. eigenvalues --   -1.90939  -1.90813  -1.90781  -1.90650  -1.16615
 Alpha  occ. eigenvalues --   -1.16612  -1.08610  -1.08583  -1.07129  -1.06913
 Alpha  occ. eigenvalues --   -1.06872  -1.06617  -1.04516  -1.04429  -1.03692
 Alpha  occ. eigenvalues --   -1.03596  -1.03166  -1.02972  -1.02344  -1.02045
 Alpha  occ. eigenvalues --   -0.91927  -0.91913  -0.89450  -0.89431  -0.89130
 Alpha  occ. eigenvalues --   -0.89092  -0.88217  -0.88158  -0.87810  -0.87735
 Alpha  occ. eigenvalues --   -0.87619  -0.87608  -0.87194  -0.87032  -0.84938
 Alpha  occ. eigenvalues --   -0.84922  -0.83868  -0.83816  -0.82882  -0.82842
 Alpha  occ. eigenvalues --   -0.82586  -0.82583  -0.81549  -0.81541  -0.80537
 Alpha  occ. eigenvalues --   -0.80383  -0.78724  -0.78559  -0.77153  -0.77080
 Alpha  occ. eigenvalues --   -0.76881  -0.76845  -0.75870  -0.75783  -0.74834
 Alpha  occ. eigenvalues --   -0.74745  -0.72709  -0.72635  -0.71611  -0.71521
 Alpha  occ. eigenvalues --   -0.69833  -0.69695  -0.68811  -0.68764  -0.67576
 Alpha  occ. eigenvalues --   -0.67537  -0.67155  -0.67129  -0.65229  -0.65213
 Alpha  occ. eigenvalues --   -0.64795  -0.64710  -0.64597  -0.64562  -0.64201
 Alpha  occ. eigenvalues --   -0.64142  -0.62256  -0.62233  -0.60366  -0.60261
 Alpha  occ. eigenvalues --   -0.59744  -0.59735  -0.58931  -0.58925  -0.58442
 Alpha  occ. eigenvalues --   -0.58365  -0.57539  -0.57507  -0.57244  -0.57170
 Alpha  occ. eigenvalues --   -0.56247  -0.56140  -0.55940  -0.55839  -0.55451
 Alpha  occ. eigenvalues --   -0.55382  -0.55281  -0.55193  -0.54472  -0.54437
 Alpha  occ. eigenvalues --   -0.53852  -0.53837  -0.53231  -0.53160  -0.53157
 Alpha  occ. eigenvalues --   -0.53076  -0.52860  -0.52845  -0.52680  -0.52578
 Alpha  occ. eigenvalues --   -0.52364  -0.52339  -0.51860  -0.51833  -0.51590
 Alpha  occ. eigenvalues --   -0.51554  -0.51145  -0.51138  -0.50483  -0.50378
 Alpha  occ. eigenvalues --   -0.49958  -0.49908  -0.49844  -0.49800  -0.49449
 Alpha  occ. eigenvalues --   -0.49412  -0.49154  -0.49137  -0.49048  -0.49041
 Alpha  occ. eigenvalues --   -0.48541  -0.48504  -0.48398  -0.48373  -0.48319
 Alpha  occ. eigenvalues --   -0.48256  -0.47629  -0.47528  -0.47230  -0.47048
 Alpha  occ. eigenvalues --   -0.46732  -0.46648  -0.46497  -0.46491  -0.46294
 Alpha  occ. eigenvalues --   -0.46206  -0.46105  -0.46030  -0.45775  -0.45774
 Alpha  occ. eigenvalues --   -0.45148  -0.45133  -0.44525  -0.44459  -0.44434
 Alpha  occ. eigenvalues --   -0.44412  -0.44077  -0.44067  -0.44028  -0.44012
 Alpha  occ. eigenvalues --   -0.43956  -0.43862  -0.43508  -0.43448  -0.43327
 Alpha  occ. eigenvalues --   -0.43322  -0.42966  -0.42886  -0.42846  -0.42662
 Alpha  occ. eigenvalues --   -0.42590  -0.42486  -0.41945  -0.41903  -0.41644
 Alpha  occ. eigenvalues --   -0.41611  -0.41473  -0.41397  -0.41079  -0.40929
 Alpha  occ. eigenvalues --   -0.40805  -0.40742  -0.40653  -0.40620  -0.40504
 Alpha  occ. eigenvalues --   -0.40433  -0.40175  -0.40160  -0.39364  -0.39362
 Alpha  occ. eigenvalues --   -0.38401  -0.38290  -0.37692  -0.37596  -0.37252
 Alpha  occ. eigenvalues --   -0.37204  -0.37203  -0.37136  -0.36733  -0.36675
 Alpha  occ. eigenvalues --   -0.36162  -0.36139  -0.34221  -0.34190  -0.33823
 Alpha  occ. eigenvalues --   -0.33737  -0.33122  -0.33111  -0.31260  -0.31182
 Alpha  occ. eigenvalues --   -0.30970  -0.30907  -0.29983  -0.29906  -0.29378
 Alpha  occ. eigenvalues --   -0.29258  -0.29253  -0.29146  -0.24015  -0.23971
 Alpha  occ. eigenvalues --   -0.21060  -0.21050
 Alpha virt. eigenvalues --   -0.08723  -0.08706  -0.01680  -0.01615   0.00015
 Alpha virt. eigenvalues --    0.00050   0.02259   0.02267   0.03204   0.03309
 Alpha virt. eigenvalues --    0.04779   0.04791   0.05129   0.05202   0.06227

 Mulliken charges:
               1
     1  Mg   0.839015
     2  C   -0.003011
     3  C   -0.094019
     4  C   -0.045792
     5  C   -0.063934
     6  N   -0.256790
     7  C   -0.052543
     8  C   -0.014029
     9  C   -0.087032
    10  C    0.046406
    11  C    0.104817
    12  C    0.053425
    13  C   -0.071702
    14  H    0.035728
    15  N   -0.433184
    16  C    0.168594
    17  C   -0.176972
    18  C   -0.003812
    19  C    0.148843
    20  C    0.110145
    21  C    0.012525
    22  O   -0.249563
    23  C    0.062337
    24  N   -0.341158
    25  C    0.041294
    26  C   -0.028185
    27  C   -0.023940
    28  C    0.074830
    29  C    0.076195
    30  C    0.035125
    31  C   -0.004538
    32  N   -0.310402
    33  C    0.080324
    34  C   -0.169844
    35  C    0.008166
    36  C    0.082944
    37  C    0.127359
    38  C    0.045919
    39  O   -0.188970
    40  C   -0.005301
    41  C    0.212780
    42  O   -0.257253
    43  O   -0.304729
    44  C    0.157873
    45  H   -0.017581
    46  H   -0.016752
    47  H   -0.041582
    48  H    0.000731
    49  H   -0.003943
    50  H    0.025361
    51  H    0.016476
    52  H    0.016613
    53  H    0.011563
    54  H    0.043985
    55  H    0.017729
    56  H    0.018162
    57  H    0.005853
    58  H    0.026813
    59  H    0.040149
    60  H    0.037225
    61  H    0.035861
    62  H    0.032071
    63  H    0.016708
    64  H    0.009315
    65  H    0.023231
    66  H    0.012487
    67  H    0.004656
    68  H    0.006327
    69  H    0.004628
    70  H    0.008905
    71  H    0.018366
    72  H    0.029013
    73  H    0.047255
    74  H    0.009134
    75  H    0.045846
    76  H    0.035027
    77  H    0.042666
    78  H    0.046478
    79  H    0.053284
    80  Mg   0.838082
    81  C   -0.016850
    82  C   -0.087595
    83  C   -0.045430
    84  C   -0.064907
    85  N   -0.254593
    86  C   -0.049923
    87  C   -0.015145
    88  C   -0.090555
    89  C    0.045865
    90  C    0.114387
    91  C    0.062458
    92  C   -0.077780
    93  H    0.034504
    94  N   -0.423549
    95  C    0.163163
    96  C   -0.174357
    97  C   -0.007527
    98  C    0.152219
    99  C    0.099303
   100  C    0.015859
   101  O   -0.253237
   102  C    0.060980
   103  N   -0.350066
   104  C    0.037569
   105  C   -0.019840
   106  C   -0.034759
   107  C    0.088855
   108  C    0.073700
   109  C    0.034763
   110  C   -0.007679
   111  N   -0.323997
   112  C    0.078306
   113  C   -0.163323
   114  C    0.002087
   115  C    0.096098
   116  C    0.131535
   117  C    0.042194
   118  O   -0.188377
   119  C    0.000963
   120  C    0.211198
   121  O   -0.251087
   122  O   -0.305613
   123  C    0.152165
   124  H   -0.019592
   125  H   -0.015525
   126  H   -0.040651
   127  H   -0.000869
   128  H   -0.004166
   129  H    0.022319
   130  H    0.014426
   131  H    0.016237
   132  H    0.014375
   133  H    0.037574
   134  H    0.020594
   135  H    0.019830
   136  H    0.008744
   137  H    0.026124
   138  H    0.040831
   139  H    0.038118
   140  H    0.036645
   141  H    0.034895
   142  H    0.014494
   143  H    0.012224
   144  H    0.025110
   145  H    0.011607
   146  H    0.005531
   147  H    0.006140
   148  H    0.003487
   149  H    0.011038
   150  H    0.017929
   151  H    0.030235
   152  H    0.045734
   153  H    0.008427
   154  H    0.046729
   155  H    0.034857
   156  H    0.043641
   157  H    0.049525
   158  H    0.053316
 Sum of Mulliken charges =  -0.00000

 Dipole moment (field-independent basis, Debye):
    X=              0.9519    Y=              3.1088    Z=              0.0167  Tot=              3.2514
 Quadrupole moment (field-independent basis, Debye-Ang):
   XX=           -477.8204   YY=           -460.5281   ZZ=           -536.2637
   XY=              3.1676   XZ=             67.4336   YZ=              4.3114

 Normal termination of Gaussian 16 at Sat Sep 11 21:38:27 2021.
