 Gaussian 16, Revision A.03,
 Gaussian 16:  ES64L-G16RevA.03 25-Dec-2016

 -----------------------------------
 #p cam-b3lyp/Def2SVP td=(nstates=5)
 -----------------------------------

 --------------------------------
 TDDFT excited states in gaussian
 --------------------------------
 Symbolic Z-matrix:
 Charge =  0 Multiplicity = 1

                         Standard orientation:
 ---------------------------------------------------------------------
 Center     Atomic      Atomic             Coordinates (Angstroms)
 Number     Number       Type             X           Y           Z
 ---------------------------------------------------------------------
      1         12           0       15.619513    0.634614    0.302880
      2          6           0       15.900380   -2.495970   -1.409653
      3          6           0       16.546712    2.143678   -2.613640
      4          6           0       15.820084    3.363751    1.905441
      5          6           0       15.830677   -1.148496    3.289783
      6          7           0       16.130228   -0.180101   -1.691125
      7          6           0       16.141339   -1.393908   -2.233086
      8          6           0       16.358804   -1.379741   -3.775772
      9          6           0       17.098463    0.026005   -3.912823
     10          6           0       16.532197    0.719046   -2.686054
     11          6           0       18.614134   -0.066452   -3.768964
     12          6           0       15.007616   -1.395672   -4.566827
     13          6           0       15.128670   -1.711012   -6.060568
     14          1           0       14.077176   -2.487597   -6.699805
     15          7           0       15.632536    2.501593   -0.342930
     16          6           0       16.026077    2.932938   -1.565368
     17          6           0       15.848668    4.400972   -1.556158
     18          6           0       15.500047    4.808463   -0.166730
     19          6           0       15.664752    3.561380    0.535433
     20          6           0       15.962384    5.251237   -2.784110
     21          6           0       15.094583    6.116830    0.434856
     22          8           0       15.062727    6.303300    1.699288
     23          6           0       14.817327    7.215578   -0.507972
     24          7           0       16.019740    1.081131    2.302399
     25          6           0       15.988659    2.342062    2.747450
     26          6           0       16.023799    2.393137    4.246148
     27          6           0       15.839741    0.887218    4.744226
     28          6           0       15.811108    0.184201    3.364655
     29          6           0       17.297859    2.983554    4.865979
     30          6           0       14.682551    0.611318    5.736803
     31          6           0       13.353354    0.816157    5.045156
     32          7           0       15.650578   -1.457685    0.879393
     33          6           0       15.766339   -1.972610    2.178671
     34          6           0       15.851005   -3.439532    2.056031
     35          6           0       15.794930   -3.676554    0.683981
     36          6           0       15.708806   -2.434794   -0.008051
     37          6           0       16.021671   -4.357119    3.129968
     38          6           0       15.812552   -4.688665   -0.359656
     39          8           0       15.778207   -5.919966   -0.374184
     40          6           0       16.004317   -3.959036   -1.762045
     41          6           0       14.986420   -4.527294   -2.712981
     42          8           0       13.766997   -4.326222   -2.539942
     43          8           0       15.612129   -5.011092   -3.796942
     44          6           0       14.656807   -5.563474   -4.794132
     45          1           0       17.053705    2.706986   -3.399505
     46          1           0       15.782801    4.276004    2.504476
     47          1           0       15.813078   -1.775481    4.183110
     48          1           0       17.000967   -2.176499   -4.151575
     49          1           0       16.801682    0.555467   -4.817981
     50          1           0       18.925397   -1.066348   -3.466895
     51          1           0       18.878765    0.662399   -3.002648
     52          1           0       19.110741    0.264463   -4.681462
     53          1           0       14.611902   -0.381600   -4.622764
     54          1           0       14.300326   -2.087720   -4.108422
     55          1           0       16.108746   -2.122929   -6.302818
     56          1           0       15.085539   -0.771995   -6.612461
     57          1           0       16.389888    4.695592   -3.617803
     58          1           0       16.698090    6.025701   -2.568120
     59          1           0       15.011931    5.711997   -3.053686
     60          1           0       15.706160    7.406299   -1.109761
     61          1           0       14.455974    8.046658    0.096660
     62          1           0       14.039431    6.897038   -1.202492
     63          1           0       15.207994    3.000534    4.635964
     64          1           0       16.725979    0.515493    5.259083
     65          1           0       17.111676    3.832257    5.524571
     66          1           0       17.971182    3.258511    4.054605
     67          1           0       17.907756    2.272028    5.422012
     68          1           0       14.722141    1.312497    6.569706
     69          1           0       14.701842   -0.396881    6.150825
     70          1           0       13.201780    1.892177    5.122858
     71          1           0       12.565252    0.272189    5.566889
     72          1           0       13.414592    0.571467    3.984560
     73          1           0       15.337416   -5.183262    2.936960
     74          1           0       15.813002   -3.886028    4.090245
     75          1           0       17.074138   -4.613959    3.010794
     76          1           0       17.024775   -4.163221   -2.084682
     77          1           0       14.953994   -6.594450   -4.986489
     78          1           0       14.654248   -4.871995   -5.636899
     79          1           0       13.631121   -5.705416   -4.451846
     80         12           0      -16.109778    0.259259   -0.456779
     81          6           0      -14.461324   -1.526690    2.183679
     82          6           0      -15.111501    3.140788    1.071242
     83          6           0      -17.925144    1.859332   -2.509003
     84          6           0      -17.906065   -2.653264   -1.117255
     85          7           0      -14.941206    0.629631    1.384283
     86          6           0      -14.314419   -0.126724    2.272775
     87          6           0      -13.418047    0.658385    3.267608
     88          6           0      -14.153731    2.083229    3.181214
     89          6           0      -14.746918    1.967395    1.778585
     90          6           0      -15.296194    2.231715    4.172208
     91          6           0      -11.928041    0.751041    2.784587
     92          6           0      -10.936522    1.231927    3.846372
     93          1           0       -9.590510    0.665620    3.849056
     94          7           0      -16.077088    2.173734   -0.978609
     95          6           0      -15.615482    3.209005   -0.246211
     96          6           0      -15.833915    4.410824   -1.066008
     97          6           0      -16.612178    4.020301   -2.272879
     98          6           0      -16.926430    2.643053   -1.949618
     99          6           0      -15.254841    5.750834   -0.716047
    100          6           0      -17.018640    4.767091   -3.507099
    101          8           0      -17.895457    4.301423   -4.317751
    102          6           0      -16.429047    6.101410   -3.689994
    103          7           0      -17.834338   -0.243693   -1.503343
    104          6           0      -18.392635    0.618470   -2.371033
    105          6           0      -19.454506   -0.057773   -3.205015
    106          6           0      -19.324534   -1.618780   -2.882650
    107          6           0      -18.220939   -1.563317   -1.803584
    108          6           0      -20.891235    0.396661   -2.948720
    109          6           0      -19.128272   -2.573248   -4.092264
    110          6           0      -17.776828   -2.332636   -4.725580
    111          7           0      -16.065123   -1.786595    0.236406
    112          6           0      -16.923693   -2.838014   -0.152789
    113          6           0      -16.577986   -4.011563    0.675265
    114          6           0      -15.549641   -3.551174    1.511364
    115          6           0      -15.287723   -2.181335    1.238549
    116          6           0      -17.220139   -5.281036    0.628359
    117          6           0      -14.633419   -3.909574    2.570030
    118          8           0      -14.337505   -4.955960    3.145563
    119          6           0      -13.974538   -2.580043    3.139774
    120          6           0      -12.490412   -2.803219    3.240070
    121          8           0      -11.806219   -2.973587    2.215634
    122          8           0      -12.093084   -2.563214    4.502962
    123          6           0      -10.626373   -2.760589    4.650024
    124          1           0      -15.045723    4.099109    1.587169
    125          1           0      -18.507548    2.333269   -3.302523
    126          1           0      -18.353325   -3.626592   -1.329996
    127          1           0      -13.439357    0.290078    4.286267
    128          1           0      -13.438530    2.900415    3.226447
    129          1           0      -15.501456    1.307596    4.691844
    130          1           0      -16.154740    2.535974    3.587934
    131          1           0      -15.092833    3.056560    4.861119
    132          1           0      -11.837228    1.569127    2.058474
    133          1           0      -11.599148   -0.187053    2.381530
    134          1           0      -11.366976    1.204574    4.854791
    135          1           0      -10.728155    2.290411    3.672524
    136          1           0      -14.869908    5.766855    0.311066
    137          1           0      -16.085121    6.465247   -0.706126
    138          1           0      -14.507168    6.087917   -1.437173
    139          1           0      -16.683466    6.728416   -2.838759
    140          1           0      -16.769554    6.439448   -4.670641
    141          1           0      -15.337653    6.004078   -3.694136
    142          1           0      -19.274598    0.099059   -4.261491
    143          1           0      -20.226789   -2.009511   -2.389591
    144          1           0      -21.399017    0.771804   -3.857288
    145          1           0      -20.876531    1.157567   -2.179723
    146          1           0      -21.543869   -0.358533   -2.514022
    147          1           0      -19.873920   -2.365361   -4.863592
    148          1           0      -19.217117   -3.622952   -3.833031
    149          1           0      -17.961096   -1.477755   -5.383068
    150          1           0      -17.458630   -3.205221   -5.292493
    151          1           0      -17.041026   -2.019306   -3.975849
    152          1           0      -16.437554   -6.027268    0.662671
    153          1           0      -17.830676   -5.384932   -0.266196
    154          1           0      -17.827507   -5.226023    1.535741
    155          1           0      -14.425439   -2.381976    4.112934
    156          1           0      -10.480921   -3.486804    5.455717
    157          1           0      -10.202509   -1.749891    4.800294
    158          1           0      -10.101153   -3.242395    3.833659
 ---------------------------------------------------------------------

 SCF Done:  E(RCAM-B3LYP) =  -4069.81176195     A.U. after   19 cycles

 Excitation energies and oscillator strengths:

 Excited State   1:      Singlet-A      1.6753 eV  740.06 nm  f=0.2096  <S**2>=0.000
     310 -> 316        0.16835
     311 -> 313        0.66564
     312 -> 314       -0.16610
     310 <- 316        0.10149
 This state for optimization and/or second-order correction.
 Total Energy, E(TD-HF/TD-DFT) =  -4069.75019502
 Copying the excited state density for this state as the 1-particle RhoCI density.

 Excited State   2:      Singlet-A      1.6801 eV  737.95 nm  f=0.5678  <S**2>=0.000
     309 -> 315        0.17036
     311 -> 313        0.16604
     312 -> 314        0.66528
     309 <- 315        0.10199

 Excited State   3:      Singlet-A      2.1860 eV  567.16 nm  f=0.0988  <S**2>=0.000
     310 -> 313        0.64226
     311 -> 316       -0.27297

 Excited State   4:      Singlet-A      2.1925 eV  565.50 nm  f=0.1020  <S**2>=0.000
     309 -> 314        0.64048
     312 -> 315       -0.27815

 Excited State   5:      Singlet-A      3.0636 eV  404.71 nm  f=0.0000  <S**2>=0.000
     312 -> 313        0.70711

 The electronic state is 1-A.
 Alpha  occ. eigenvalues --  -46.87778 -46.87660 -19.26336 -19.26256 -19.19149
 Alpha  occ. eigenvalues --  -19.18993 -19.18801 -19.18715 -19.18148 -19.18047
 Alpha  occ. eigenvalues --  -14.42496 -14.42431 -14.41432 -14.41359 -14.39384
 Alpha  occ. eigenvalues --  -14.39351 -14.38599 -14.38568 -10.39080 -10.39053
 Alpha  occ. eigenvalues --  -10.35434 -10.35393 -10.34368 -10.34224 -10.31738
 Alpha  occ. eigenvalues --  -10.31648 -10.31385 -10.31307 -10.31021 -10.30889
 Alpha  occ. eigenvalues --  -10.30551 -10.30489 -10.30397 -10.30359 -10.30190
 Alpha  occ. eigenvalues --  -10.30142 -10.29903 -10.29894 -10.29612 -10.29436
 Alpha  occ. eigenvalues --  -10.29400 -10.29237 -10.28727 -10.28713 -10.28641
 Alpha  occ. eigenvalues --  -10.28511 -10.28403 -10.28346 -10.28136 -10.28095
 Alpha  occ. eigenvalues --  -10.28000 -10.27774 -10.27708 -10.27668 -10.27567
 Alpha  occ. eigenvalues --  -10.27520 -10.27486 -10.27482 -10.27467 -10.27465
 Alpha  occ. eigenvalues --  -10.27464 -10.27435 -10.27384 -10.27378 -10.27135
 Alpha  occ. eigenvalues --  -10.27045 -10.26683 -10.26680 -10.26417 -10.26398
 Alpha  occ. eigenvalues --  -10.26214 -10.26170 -10.26140 -10.26023 -10.26002
 Alpha  occ. eigenvalues --  -10.25934 -10.25850 -10.25823 -10.25423 -10.25402
 Alpha  occ. eigenvalues --  -10.24871 -10.24813 -10.24770 -10.24732 -10.24690
 Alpha  occ. eigenvalues --  -10.24674  -3.16521  -3.16409  -1.91403  -1.91292
 Alpha  occ. eigenvalues --   -1.90989  -1.90880  -1.90831  -1.90717  -1.16630
 Alpha  occ. eigenvalues --   -1.16605  -1.08654  -1.08605  -1.07202  -1.06968
 Alpha  occ. eigenvalues --   -1.06934  -1.06615  -1.04562  -1.04493  -1.03742
 Alpha  occ. eigenvalues --   -1.03662  -1.03216  -1.03038  -1.02393  -1.02111
 Alpha  occ. eigenvalues --   -0.91984  -0.91952  -0.89503  -0.89494  -0.89166
 Alpha  occ. eigenvalues --   -0.89147  -0.88271  -0.88221  -0.87851  -0.87792
 Alpha  occ. eigenvalues --   -0.87682  -0.87654  -0.87257  -0.87120  -0.84996
 Alpha  occ. eigenvalues --   -0.84961  -0.83920  -0.83877  -0.82952  -0.82932
 Alpha  occ. eigenvalues --   -0.82649  -0.82629  -0.81590  -0.81563  -0.80576
 Alpha  occ. eigenvalues --   -0.80438  -0.78779  -0.78635  -0.77200  -0.77142
 Alpha  occ. eigenvalues --   -0.76913  -0.76894  -0.75902  -0.75834  -0.74881
 Alpha  occ. eigenvalues --   -0.74803  -0.72756  -0.72698  -0.71653  -0.71579
 Alpha  occ. eigenvalues --   -0.69892  -0.69759  -0.68853  -0.68824  -0.67622
 Alpha  occ. eigenvalues --   -0.67600  -0.67199  -0.67195  -0.65267  -0.65265
 Alpha  occ. eigenvalues --   -0.64834  -0.64768  -0.64650  -0.64601  -0.64252
 Alpha  occ. eigenvalues --   -0.64204  -0.62274  -0.62271  -0.60425  -0.60340
 Alpha  occ. eigenvalues --   -0.59793  -0.59784  -0.58991  -0.58968  -0.58484
 Alpha  occ. eigenvalues --   -0.58423  -0.57562  -0.57549  -0.57290  -0.57236
 Alpha  occ. eigenvalues --   -0.56291  -0.56202  -0.55954  -0.55878  -0.55502
 Alpha  occ. eigenvalues --   -0.55449  -0.55321  -0.55246  -0.54503  -0.54484
 Alpha  occ. eigenvalues --   -0.53908  -0.53873  -0.53281  -0.53226  -0.53202
 Alpha  occ. eigenvalues --   -0.53138  -0.52897  -0.52894  -0.52738  -0.52667
 Alpha  occ. eigenvalues --   -0.52423  -0.52402  -0.51895  -0.51884  -0.51654
 Alpha  occ. eigenvalues --   -0.51596  -0.51198  -0.51176  -0.50557  -0.50476
 Alpha  occ. eigenvalues --   -0.50016  -0.49978  -0.49901  -0.49868  -0.49495
 Alpha  occ. eigenvalues --   -0.49486  -0.49199  -0.49195  -0.49101  -0.49075
 Alpha  occ. eigenvalues --   -0.48572  -0.48554  -0.48445  -0.48427  -0.48376
 Alpha  occ. eigenvalues --   -0.48338  -0.47676  -0.47592  -0.47279  -0.47117
 Alpha  occ. eigenvalues --   -0.46778  -0.46707  -0.46550  -0.46534  -0.46341
 Alpha  occ. eigenvalues --   -0.46269  -0.46143  -0.46083  -0.45817  -0.45800
 Alpha  occ. eigenvalues --   -0.45209  -0.45185  -0.44557  -0.44510  -0.44489
 Alpha  occ. eigenvalues --   -0.44473  -0.44127  -0.44125  -0.44077  -0.44068
 Alpha  occ. eigenvalues --   -0.44000  -0.43937  -0.43547  -0.43472  -0.43382
 Alpha  occ. eigenvalues --   -0.43367  -0.43008  -0.42924  -0.42897  -0.42677
 Alpha  occ. eigenvalues --   -0.42635  -0.42554  -0.41991  -0.41962  -0.41684
 Alpha  occ. eigenvalues --   -0.41667  -0.41513  -0.41455  -0.41122  -0.40988
 Alpha  occ. eigenvalues --   -0.40850  -0.40807  -0.40720  -0.40696  -0.40554
 Alpha  occ. eigenvalues --   -0.40493  -0.40221  -0.40211  -0.39427  -0.39426
 Alpha  occ. eigenvalues --   -0.38452  -0.38351  -0.37726  -0.37647  -0.37303
 Alpha  occ. eigenvalues --   -0.37265  -0.37242  -0.37196  -0.36762  -0.36689
 Alpha  occ. eigenvalues --   -0.36214  -0.36172  -0.34267  -0.34252  -0.33852
 Alpha  occ. eigenvalues --   -0.33745  -0.33174  -0.33167  -0.31330  -0.31274
 Alpha  occ. eigenvalues --   -0.31017  -0.30972  -0.30007  -0.29951  -0.29431
 Alpha  occ. eigenvalues --   -0.29327  -0.29303  -0.29210  -0.24062  -0.24035
 Alpha  occ. eigenvalues --   -0.21116  -0.21109
 Alpha virt. eigenvalues --   -0.08791  -0.08756  -0.01732  -0.01683  -0.00040
 Alpha virt. eigenvalues --   -0.00028   0.02209   0.02220   0.03140   0.03229
 Alpha virt. eigenvalues --    0.04733   0.04738   0.05124   0.05175   0.06192

 Mulliken charges:
               1
     1  Mg   0.838743
     2  C   -0.002931
     3  C   -0.094108
     4  C   -0.045938
     5  C   -0.063957
     6  N   -0.256783
     7  C   -0.052460
     8  C   -0.013998
     9  C   -0.087001
    10  C    0.046337
    11  C    0.104814
    12  C    0.053464
    13  C   -0.071849
    14  H    0.036250
    15  N   -0.433144
    16  C    0.168418
    17  C   -0.177156
    18  C   -0.004035
    19  C    0.148734
    20  C    0.110177
    21  C    0.012256
    22  O   -0.249693
    23  C    0.062491
    24  N   -0.341144
    25  C    0.041263
    26  C   -0.028151
    27  C   -0.023962
    28  C    0.074819
    29  C    0.076181
    30  C    0.035139
    31  C   -0.004496
    32  N   -0.310475
    33  C    0.080422
    34  C   -0.169703
    35  C    0.008388
    36  C    0.083007
    37  C    0.127303
    38  C    0.046149
    39  O   -0.188361
    40  C   -0.005357
    41  C    0.212897
    42  O   -0.257054
    43  O   -0.304816
    44  C    0.157652
    45  H   -0.017610
    46  H   -0.016894
    47  H   -0.041500
    48  H    0.000956
    49  H   -0.004015
    50  H    0.025476
    51  H    0.016417
    52  H    0.016656
    53  H    0.011206
    54  H    0.044166
    55  H    0.017859
    56  H    0.017947
    57  H    0.005891
    58  H    0.026785
    59  H    0.039540
    60  H    0.037342
    61  H    0.035570
    62  H    0.031509
    63  H    0.016503
    64  H    0.009447
    65  H    0.023152
    66  H    0.012547
    67  H    0.004736
    68  H    0.006304
    69  H    0.004743
    70  H    0.008726
    71  H    0.018140
    72  H    0.029029
    73  H    0.047629
    74  H    0.009099
    75  H    0.046005
    76  H    0.035152
    77  H    0.042980
    78  H    0.046410
    79  H    0.053766
    80  Mg   0.837856
    81  C   -0.016789
    82  C   -0.087771
    83  C   -0.045520
    84  C   -0.064905
    85  N   -0.254573
    86  C   -0.049838
    87  C   -0.015087
    88  C   -0.090488
    89  C    0.045757
    90  C    0.114378
    91  C    0.062511
    92  C   -0.077967
    93  H    0.035093
    94  N   -0.423477
    95  C    0.162912
    96  C   -0.174640
    97  C   -0.007812
    98  C    0.152113
    99  C    0.099377
   100  C    0.015562
   101  O   -0.253205
   102  C    0.061193
   103  N   -0.350057
   104  C    0.037510
   105  C   -0.019827
   106  C   -0.034791
   107  C    0.088911
   108  C    0.073659
   109  C    0.034740
   110  C   -0.007693
   111  N   -0.324127
   112  C    0.078480
   113  C   -0.163126
   114  C    0.002269
   115  C    0.096198
   116  C    0.131487
   117  C    0.042389
   118  O   -0.187787
   119  C    0.000917
   120  C    0.211273
   121  O   -0.250968
   122  O   -0.305657
   123  C    0.151978
   124  H   -0.019659
   125  H   -0.015598
   126  H   -0.040464
   127  H   -0.000623
   128  H   -0.004292
   129  H    0.022456
   130  H    0.014385
   131  H    0.016293
   132  H    0.013920
   133  H    0.037731
   134  H    0.020776
   135  H    0.019593
   136  H    0.008779
   137  H    0.026117
   138  H    0.039803
   139  H    0.038244
   140  H    0.036372
   141  H    0.033915
   142  H    0.014394
   143  H    0.012396
   144  H    0.025121
   145  H    0.011627
   146  H    0.005654
   147  H    0.006241
   148  H    0.003657
   149  H    0.010921
   150  H    0.017959
   151  H    0.030136
   152  H    0.046066
   153  H    0.008504
   154  H    0.046924
   155  H    0.035023
   156  H    0.043974
   157  H    0.049519
   158  H    0.053681
 Sum of Mulliken charges =  -0.00000

 Dipole moment (field-independent basis, Debye):
    X=              1.7619    Y=              7.4417    Z=             -1.2504  Tot=              7.7490
 Quadrupole moment (field-independent basis, Debye-Ang):
   XX=           -432.4859   YY=           -538.9439   ZZ=           -470.6432
   XY=              7.1476   XZ=            -57.6170   YZ=             11.4112

 Normal termination of Gaussian 16 at Sun Sep 12 14:36:10 2021.
