 Gaussian 16, Revision A.03,
 Gaussian 16:  ES64L-G16RevA.03 25-Dec-2016

 -----------------------------------
 #p cam-b3lyp/Def2SVP td=(nstates=5)
 -----------------------------------

 --------------------------------
 TDDFT excited states in gaussian
 --------------------------------
 Symbolic Z-matrix:
 Charge =  0 Multiplicity = 1

                         Standard orientation:
 ---------------------------------------------------------------------
 Center     Atomic      Atomic             Coordinates (Angstroms)
 Number     Number       Type             X           Y           Z
 ---------------------------------------------------------------------
      1         12           0       16.084162    0.507989    0.730557
      2          6           0       16.382205   -2.371542   -1.374601
      3          6           0       17.066761    2.382234   -1.946152
      4          6           0       16.267821    3.001140    2.681732
      5          6           0       16.237500   -1.654060    3.459603
      6          7           0       16.625696   -0.040206   -1.344743
      7          6           0       16.641400   -1.172146   -2.041619
      8          6           0       16.885206   -0.956329   -3.565219
      9          6           0       17.632477    0.450726   -3.503742
     10          6           0       17.048024    0.979647   -2.205828
     11          6           0       19.145108    0.330974   -3.348467
     12          6           0       15.547659   -0.859813   -4.373541
     13          6           0       15.692970   -0.976490   -5.893615
     14          1           0       14.649567   -1.655791   -6.646746
     15          7           0       16.115357    2.443624    0.336611
     16          6           0       16.531346    3.029757   -0.811730
     17          6           0       16.359433    4.484847   -0.612130
     18          6           0       15.988722    4.707979    0.812959
     19          6           0       16.136643    3.378340    1.347334
     20          6           0       16.497340    5.488664   -1.715345
     21          6           0       15.578071    5.928190    1.574919
     22          8           0       15.525362    5.946769    2.852201
     23          6           0       15.321154    7.143151    0.780623
     24          7           0       16.451925    0.684962    2.777766
     25          6           0       16.418088    1.876495    3.384470
     26          6           0       16.427850    1.729615    4.877209
     27          6           0       16.229551    0.172372    5.169485
     28          6           0       16.221765   -0.342725    3.709046
     29          6           0       17.693403    2.225581    5.590233
     30          6           0       15.054546   -0.224794    6.097947
     31          6           0       13.738138    0.077347    5.417595
     32          7           0       16.097368   -1.642145    1.026860
     33          6           0       16.188971   -2.324324    2.248709
     34          6           0       16.270094   -3.762819    1.935307
     35          6           0       16.236528   -3.816809    0.543257
     36          6           0       16.166983   -2.494256    0.019512
     37          6           0       16.418895   -4.814815    2.881666
     38          6           0       16.268074   -4.682809   -0.624179
     39          8           0       16.229263   -5.901251   -0.801340
     40          6           0       16.486531   -3.776084   -1.914898
     41          6           0       15.482837   -4.208045   -2.948975
     42          8           0       14.261418   -4.024134   -2.770988
     43          8           0       16.125089   -4.548708   -4.076806
     44          6           0       15.184809   -4.959220   -5.153610
     45          1           0       17.589243    3.041019   -2.642539
     46          1           0       16.223819    3.826801    3.395024
     47          1           0       16.202261   -2.393073    4.262143
     48          1           0       17.530628   -1.700547   -4.032115
     49          1           0       17.353214    1.096526   -4.336014
     50          1           0       19.447337   -0.701849   -3.175681
     51          1           0       19.399417    0.950986   -2.488581
     52          1           0       19.658475    0.776127   -4.201151
     53          1           0       15.156847    0.155171   -4.301892
     54          1           0       14.830004   -1.601896   -4.021960
     55          1           0       16.675451   -1.358848   -6.171902
     56          1           0       15.662861    0.027253   -6.317636
     57          1           0       16.936873    5.045033   -2.607840
     58          1           0       17.232217    6.223492   -1.387175
     59          1           0       15.553397    5.986640   -1.937434
     60          1           0       16.220849    7.406058    0.223867
     61          1           0       14.952725    7.889570    1.483452
     62          1           0       14.554005    6.923523    0.037525
     63          1           0       15.607846    2.285329    5.330201
     64          1           0       17.105445   -0.269247    5.645360
     65          1           0       17.499264    2.981306    6.351741
     66          1           0       18.381519    2.600884    4.833308
     67          1           0       18.290993    1.443374    6.057624
     68          1           0       15.082607    0.360382    7.016494
     69          1           0       15.062906   -1.278820    6.375812
     70          1           0       13.589385    1.134670    5.633866
     71          1           0       12.939170   -0.525795    5.850124
     72          1           0       13.816523   -0.025956    4.335158
     73          1           0       15.734871   -5.604206    2.570313
     74          1           0       16.195681   -4.472988    3.892078
     75          1           0       17.472250   -5.060089    2.746982
     76          1           0       17.511556   -3.942184   -2.244832
     77          1           0       15.481281   -5.957678   -5.475199
     78          1           0       15.199279   -4.162810   -5.897873
     79          1           0       14.152896   -5.138783   -4.849880
     80         12           0      -15.639564    0.429443   -0.582687
     81          6           0      -17.792130   -1.778874    1.252762
     82          6           0      -18.024448    2.836650   -0.192416
     83          6           0      -13.977592    2.258449   -2.572670
     84          6           0      -13.996631   -2.398144   -1.787351
     85          7           0      -17.610639    0.410591    0.420690
     86          6           0      -18.296713   -0.466797    1.137508
     87          6           0      -19.556385    0.115473    1.833034
     88          6           0      -19.817760    1.360989    0.853613
     89          6           0      -18.392337    1.579725    0.350617
     90          6           0      -20.696785    1.016161   -0.337075
     91          6           0      -19.263853    0.589699    3.299848
     92          6           0      -20.508090    0.881364    4.141619
     93          1           0      -20.473512    0.566516    5.567156
     94          7           0      -15.700699    2.390879   -0.878657
     95          6           0      -16.741935    3.217019   -0.644978
     96          6           0      -16.288968    4.558285   -1.044961
     97          6           0      -14.952892    4.429870   -1.687717
     98          6           0      -14.831821    2.987492   -1.758203
     99          6           0      -17.065406    5.805227   -0.735620
    100          6           0      -13.955575    5.438370   -2.171951
    101          8           0      -12.965755    5.103741   -2.914320
    102          6           0      -14.223870    6.842618   -1.829016
    103          7           0      -14.334265   -0.006263   -2.141112
    104          6           0      -13.705137    0.975349   -2.810873
    105          6           0      -12.614595    0.419968   -3.695551
    106          6           0      -12.481317   -1.122830   -3.296079
    107          6           0      -13.629250   -1.217909   -2.267193
    108          6           0      -12.854837    0.536803   -5.200554
    109          6           0      -11.071115   -1.622386   -2.878409
    110          6           0      -10.665258   -0.986216   -1.568460
    111          7           0      -15.710847   -1.694654   -0.193876
    112          6           0      -14.954330   -2.703897   -0.828858
    113          6           0      -15.435363   -4.000490   -0.309368
    114          6           0      -16.462179   -3.653962    0.581738
    115          6           0      -16.624215   -2.242256    0.600075
    116          6           0      -14.962046   -5.282909   -0.706203
    117          6           0      -17.453010   -4.162016    1.503047
    118          8           0      -17.725718   -5.270946    1.960922
    119          6           0      -18.443264   -2.978370    1.883528
    120          6           0      -18.614160   -2.977969    3.377948
    121          8           0      -17.653681   -2.717819    4.123877
    122          8           0      -19.924005   -3.069565    3.671691
    123          6           0      -20.145270   -3.061889    5.142338
    124          1           0      -18.799849    3.591769   -0.324457
    125          1           0      -13.304288    2.849028   -3.198246
    126          1           0      -13.469622   -3.320713   -2.039939
    127          1           0      -20.417768   -0.541638    1.836911
    128          1           0      -20.165257    2.230852    1.404926
    129          1           0      -20.904396   -0.042180   -0.391510
    130          1           0      -20.147512    1.339427   -1.211635
    131          1           0      -21.611222    1.615920   -0.316796
    132          1           0      -18.818070    1.592247    3.269845
    133          1           0      -18.639076   -0.116589    3.811147
    134          1           0      -21.419941    0.481384    3.681721
    135          1           0      -20.669047    1.961995    4.160116
    136          1           0      -18.084600    5.572409   -0.403282
    137          1           0      -17.203613    6.338930   -1.682151
    138          1           0      -16.546906    6.460785   -0.032719
    139          1           0      -15.192341    7.133358   -2.229014
    140          1           0      -13.355777    7.401213   -2.184342
    141          1           0      -14.294714    6.929174   -0.739015
    142          1           0      -11.670867    0.915518   -3.503422
    143          1           0      -12.752463   -1.784929   -4.131497
    144          1           0      -12.050351    1.081395   -5.729983
    145          1           0      -13.809198    1.021761   -5.357233
    146          1           0      -12.988288   -0.409632   -5.721752
    147          1           0      -10.326398   -1.314887   -3.616653
    148          1           0      -11.005291   -2.701212   -2.784664
    149          1           0      -10.269515   -0.014358   -1.878261
    150          1           0       -9.902393   -1.583205   -1.072805
    151          1           0      -11.539564   -0.799127   -0.934249
    152          1           0      -14.852245   -5.867589    0.197448
    153          1           0      -14.022332   -5.209222   -1.249610
    154          1           0      -15.784858   -5.603639   -1.350714
    155          1           0      -19.384958   -3.159235    1.363828
    156          1           0      -20.715794   -3.963905    5.384306
    157          1           0      -20.621404   -2.089134    5.367724
    158          1           0      -19.277666   -3.182903    5.780351
 ---------------------------------------------------------------------

 SCF Done:  E(RCAM-B3LYP) =  -4069.81176653     A.U. after   19 cycles

 Excitation energies and oscillator strengths:

 Excited State   1:      Singlet-A      1.6753 eV  740.07 nm  f=0.2138  <S**2>=0.000
     310 -> 316        0.16865
     311 -> 313        0.66674
     312 -> 314       -0.16163
     310 <- 316        0.10168
 This state for optimization and/or second-order correction.
 Total Energy, E(TD-HF/TD-DFT) =  -4069.75020056
 Copying the excited state density for this state as the 1-particle RhoCI density.

 Excited State   2:      Singlet-A      1.6801 eV  737.95 nm  f=0.5636  <S**2>=0.000
     309 -> 315        0.17067
     311 -> 313        0.16158
     312 -> 314        0.66638
     309 <- 315        0.10218

 Excited State   3:      Singlet-A      2.1861 eV  567.16 nm  f=0.1002  <S**2>=0.000
     310 -> 313        0.64237
     311 -> 316       -0.27306

 Excited State   4:      Singlet-A      2.1925 eV  565.48 nm  f=0.1008  <S**2>=0.000
     309 -> 314        0.64059
     312 -> 315       -0.27826

 Excited State   5:      Singlet-A      3.0600 eV  405.18 nm  f=0.0000  <S**2>=0.000
     312 -> 313        0.70711

 The electronic state is 1-A.
 Alpha  occ. eigenvalues --  -46.87759 -46.87660 -19.26349 -19.26248 -19.19160
 Alpha  occ. eigenvalues --  -19.18983 -19.18778 -19.18715 -19.18133 -19.18051
 Alpha  occ. eigenvalues --  -14.42498 -14.42413 -14.41413 -14.41359 -14.39366
 Alpha  occ. eigenvalues --  -14.39352 -14.38600 -14.38550 -10.39090 -10.39043
 Alpha  occ. eigenvalues --  -10.35411 -10.35392 -10.34353 -10.34228 -10.31755
 Alpha  occ. eigenvalues --  -10.31644 -10.31369 -10.31309 -10.31024 -10.30872
 Alpha  occ. eigenvalues --  -10.30533 -10.30471 -10.30397 -10.30361 -10.30170
 Alpha  occ. eigenvalues --  -10.30141 -10.29894 -10.29884 -10.29594 -10.29437
 Alpha  occ. eigenvalues --  -10.29401 -10.29218 -10.28720 -10.28713 -10.28655
 Alpha  occ. eigenvalues --  -10.28502 -10.28405 -10.28328 -10.28142 -10.28081
 Alpha  occ. eigenvalues --  -10.28001 -10.27756 -10.27691 -10.27670 -10.27547
 Alpha  occ. eigenvalues --  -10.27515 -10.27484 -10.27469 -10.27465 -10.27464
 Alpha  occ. eigenvalues --  -10.27445 -10.27413 -10.27374 -10.27367 -10.27122
 Alpha  occ. eigenvalues --  -10.27051 -10.26693 -10.26668 -10.26417 -10.26373
 Alpha  occ. eigenvalues --  -10.26200 -10.26145 -10.26130 -10.26028 -10.25982
 Alpha  occ. eigenvalues --  -10.25934 -10.25849 -10.25807 -10.25400 -10.25398
 Alpha  occ. eigenvalues --  -10.24873 -10.24796 -10.24751 -10.24721 -10.24690
 Alpha  occ. eigenvalues --  -10.24646  -3.16502  -3.16410  -1.91384  -1.91293
 Alpha  occ. eigenvalues --   -1.90970  -1.90881  -1.90813  -1.90718  -1.16643
 Alpha  occ. eigenvalues --   -1.16597  -1.08658  -1.08591  -1.07179  -1.06967
 Alpha  occ. eigenvalues --   -1.06944  -1.06606  -1.04544  -1.04496  -1.03724
 Alpha  occ. eigenvalues --   -1.03663  -1.03197  -1.03039  -1.02374  -1.02111
 Alpha  occ. eigenvalues --   -0.91987  -0.91936  -0.89493  -0.89482  -0.89152
 Alpha  occ. eigenvalues --   -0.89152  -0.88250  -0.88218  -0.87833  -0.87793
 Alpha  occ. eigenvalues --   -0.87684  -0.87636  -0.87237  -0.87121  -0.85000
 Alpha  occ. eigenvalues --   -0.84946  -0.83899  -0.83874  -0.82932  -0.82930
 Alpha  occ. eigenvalues --   -0.82653  -0.82612  -0.81596  -0.81549  -0.80560
 Alpha  occ. eigenvalues --   -0.80443  -0.78760  -0.78636  -0.77182  -0.77144
 Alpha  occ. eigenvalues --   -0.76898  -0.76898  -0.75887  -0.75839  -0.74861
 Alpha  occ. eigenvalues --   -0.74802  -0.72738  -0.72699  -0.71636  -0.71581
 Alpha  occ. eigenvalues --   -0.69869  -0.69754  -0.68837  -0.68828  -0.67604
 Alpha  occ. eigenvalues --   -0.67602  -0.67201  -0.67183  -0.65272  -0.65250
 Alpha  occ. eigenvalues --   -0.64817  -0.64770  -0.64654  -0.64584  -0.64232
 Alpha  occ. eigenvalues --   -0.64202  -0.62278  -0.62261  -0.60405  -0.60340
 Alpha  occ. eigenvalues --   -0.59797  -0.59768  -0.58993  -0.58951  -0.58467
 Alpha  occ. eigenvalues --   -0.58425  -0.57554  -0.57548  -0.57272  -0.57236
 Alpha  occ. eigenvalues --   -0.56273  -0.56204  -0.55942  -0.55886  -0.55484
 Alpha  occ. eigenvalues --   -0.55452  -0.55302  -0.55246  -0.54487  -0.54486
 Alpha  occ. eigenvalues --   -0.53914  -0.53859  -0.53262  -0.53227  -0.53185
 Alpha  occ. eigenvalues --   -0.53142  -0.52902  -0.52878  -0.52719  -0.52669
 Alpha  occ. eigenvalues --   -0.52400  -0.52396  -0.51884  -0.51878  -0.51659
 Alpha  occ. eigenvalues --   -0.51580  -0.51200  -0.51159  -0.50535  -0.50476
 Alpha  occ. eigenvalues --   -0.49994  -0.49980  -0.49882  -0.49866  -0.49488
 Alpha  occ. eigenvalues --   -0.49478  -0.49203  -0.49178  -0.49105  -0.49060
 Alpha  occ. eigenvalues --   -0.48559  -0.48557  -0.48425  -0.48409  -0.48375
 Alpha  occ. eigenvalues --   -0.48339  -0.47658  -0.47595  -0.47260  -0.47119
 Alpha  occ. eigenvalues --   -0.46760  -0.46708  -0.46555  -0.46519  -0.46322
 Alpha  occ. eigenvalues --   -0.46270  -0.46126  -0.46085  -0.45822  -0.45785
 Alpha  occ. eigenvalues --   -0.45208  -0.45165  -0.44541  -0.44514  -0.44476
 Alpha  occ. eigenvalues --   -0.44470  -0.44128  -0.44107  -0.44076  -0.44052
 Alpha  occ. eigenvalues --   -0.43983  -0.43940  -0.43552  -0.43458  -0.43386
 Alpha  occ. eigenvalues --   -0.43349  -0.42990  -0.42930  -0.42901  -0.42662
 Alpha  occ. eigenvalues --   -0.42617  -0.42551  -0.41972  -0.41962  -0.41669
 Alpha  occ. eigenvalues --   -0.41667  -0.41497  -0.41458  -0.41105  -0.40990
 Alpha  occ. eigenvalues --   -0.40832  -0.40786  -0.40723  -0.40698  -0.40534
 Alpha  occ. eigenvalues --   -0.40491  -0.40228  -0.40198  -0.39421  -0.39402
 Alpha  occ. eigenvalues --   -0.38432  -0.38349  -0.37712  -0.37654  -0.37283
 Alpha  occ. eigenvalues --   -0.37265  -0.37227  -0.37200  -0.36770  -0.36676
 Alpha  occ. eigenvalues --   -0.36216  -0.36156  -0.34253  -0.34249  -0.33861
 Alpha  occ. eigenvalues --   -0.33733  -0.33176  -0.33149  -0.31308  -0.31274
 Alpha  occ. eigenvalues --   -0.30999  -0.30973  -0.29992  -0.29955  -0.29412
 Alpha  occ. eigenvalues --   -0.29328  -0.29285  -0.29212  -0.24044  -0.24036
 Alpha  occ. eigenvalues --   -0.21117  -0.21091
 Alpha virt. eigenvalues --   -0.08792  -0.08737  -0.01713  -0.01684  -0.00030
 Alpha virt. eigenvalues --   -0.00021   0.02207   0.02237   0.03160   0.03229
 Alpha virt. eigenvalues --    0.04729   0.04754   0.05135   0.05166   0.06182

 Mulliken charges:
               1
     1  Mg   0.838717
     2  C   -0.002959
     3  C   -0.094114
     4  C   -0.045839
     5  C   -0.063967
     6  N   -0.256764
     7  C   -0.052470
     8  C   -0.014003
     9  C   -0.087014
    10  C    0.046322
    11  C    0.104824
    12  C    0.053467
    13  C   -0.071809
    14  H    0.036149
    15  N   -0.433114
    16  C    0.168435
    17  C   -0.177155
    18  C   -0.004001
    19  C    0.148708
    20  C    0.110190
    21  C    0.012302
    22  O   -0.249625
    23  C    0.062460
    24  N   -0.341131
    25  C    0.041231
    26  C   -0.028168
    27  C   -0.023989
    28  C    0.074861
    29  C    0.076183
    30  C    0.035136
    31  C   -0.004514
    32  N   -0.310483
    33  C    0.080426
    34  C   -0.169708
    35  C    0.008349
    36  C    0.083007
    37  C    0.127307
    38  C    0.046123
    39  O   -0.188451
    40  C   -0.005328
    41  C    0.212861
    42  O   -0.257066
    43  O   -0.304813
    44  C    0.157694
    45  H   -0.017628
    46  H   -0.016843
    47  H   -0.041488
    48  H    0.000913
    49  H   -0.004031
    50  H    0.025457
    51  H    0.016434
    52  H    0.016630
    53  H    0.011232
    54  H    0.044141
    55  H    0.017837
    56  H    0.017953
    57  H    0.005861
    58  H    0.026791
    59  H    0.039582
    60  H    0.037317
    61  H    0.035654
    62  H    0.031546
    63  H    0.016577
    64  H    0.009435
    65  H    0.023202
    66  H    0.012519
    67  H    0.004729
    68  H    0.006358
    69  H    0.004733
    70  H    0.008794
    71  H    0.018200
    72  H    0.028991
    73  H    0.047589
    74  H    0.009125
    75  H    0.045976
    76  H    0.035120
    77  H    0.042921
    78  H    0.046395
    79  H    0.053710
    80  Mg   0.837863
    81  C   -0.016850
    82  C   -0.087794
    83  C   -0.045533
    84  C   -0.064882
    85  N   -0.254547
    86  C   -0.049844
    87  C   -0.015079
    88  C   -0.090511
    89  C    0.045750
    90  C    0.114383
    91  C    0.062533
    92  C   -0.077917
    93  H    0.034934
    94  N   -0.423487
    95  C    0.162919
    96  C   -0.174631
    97  C   -0.007810
    98  C    0.152142
    99  C    0.099371
   100  C    0.015571
   101  O   -0.253179
   102  C    0.061195
   103  N   -0.350093
   104  C    0.037543
   105  C   -0.019857
   106  C   -0.034794
   107  C    0.088932
   108  C    0.073664
   109  C    0.034709
   110  C   -0.007699
   111  N   -0.324119
   112  C    0.078475
   113  C   -0.163095
   114  C    0.002255
   115  C    0.096214
   116  C    0.131474
   117  C    0.042393
   118  O   -0.187848
   119  C    0.000922
   120  C    0.211259
   121  O   -0.250977
   122  O   -0.305646
   123  C    0.152021
   124  H   -0.019680
   125  H   -0.015571
   126  H   -0.040395
   127  H   -0.000656
   128  H   -0.004323
   129  H    0.022448
   130  H    0.014411
   131  H    0.016266
   132  H    0.013929
   133  H    0.037702
   134  H    0.020774
   135  H    0.019592
   136  H    0.008754
   137  H    0.026116
   138  H    0.039807
   139  H    0.038227
   140  H    0.036389
   141  H    0.033918
   142  H    0.014446
   143  H    0.012416
   144  H    0.025146
   145  H    0.011591
   146  H    0.005672
   147  H    0.006313
   148  H    0.003715
   149  H    0.010943
   150  H    0.018073
   151  H    0.030061
   152  H    0.046066
   153  H    0.008583
   154  H    0.046922
   155  H    0.035002
   156  H    0.043914
   157  H    0.049485
   158  H    0.053613
 Sum of Mulliken charges =  -0.00000

 Dipole moment (field-independent basis, Debye):
    X=             -0.3665    Y=              7.0512    Z=             -3.2361  Tot=              7.7670
 Quadrupole moment (field-independent basis, Debye-Ang):
   XX=           -349.9121   YY=           -540.8482   ZZ=           -478.4113
   XY=            -25.7394   XZ=            -28.2799   YZ=              1.0429

 Normal termination of Gaussian 16 at Sun Sep 12 10:39:59 2021.
