 Gaussian 16, Revision A.03,
 Gaussian 16:  ES64L-G16RevA.03 25-Dec-2016

 -----------------------------------
 #p cam-b3lyp/Def2SVP td=(nstates=5)
 -----------------------------------

 --------------------------------
 TDDFT excited states in gaussian
 --------------------------------
 Symbolic Z-matrix:
 Charge =  0 Multiplicity = 1

                         Standard orientation:
 ---------------------------------------------------------------------
 Center     Atomic      Atomic             Coordinates (Angstroms)
 Number     Number       Type             X           Y           Z
 ---------------------------------------------------------------------
      1         12           0       -6.308796   -1.130780    0.416345
      2          6           0       -6.748603    2.415539    0.210422
      3          6           0       -7.323969   -1.295921   -2.837149
      4          6           0       -6.365349   -4.288068    0.707815
      5          6           0       -6.434636   -0.796674    3.883072
      6          7           0       -6.928979    0.431206   -1.024565
      7          6           0       -6.996432    1.758555   -0.996888
      8          6           0       -7.281669    2.391888   -2.391486
      9          6           0       -7.988994    1.147229   -3.093279
     10          6           0       -7.350612    0.023651   -2.295806
     11          6           0       -9.498714    1.104561   -2.880144
     12          6           0       -5.967809    2.800487   -3.138848
     13          6           0       -6.163364    3.715113   -4.351519
     14          1           0       -5.162311    4.734122   -4.628762
     15          7           0       -6.300751   -2.545091   -0.962970
     16          6           0       -6.736514   -2.432621   -2.240760
     17          6           0       -6.519853   -3.756333   -2.863276
     18          6           0       -6.099210   -4.700180   -1.790753
     19          6           0       -6.265743   -3.877973   -0.619591
     20          6           0       -6.665258   -4.008288   -4.332673
     21          6           0       -5.632769   -6.121418   -1.816183
     22          8           0       -5.539896   -6.825918   -0.753343
     23          6           0       -5.368462   -6.702401   -3.144958
     24          7           0       -6.607894   -2.401329    2.045418
     25          6           0       -6.523542   -3.729254    1.909459
     26          6           0       -6.490787   -4.413746    3.243751
     27          6           0       -6.324970   -3.255789    4.330670
     28          6           0       -6.376293   -2.032695    3.382156
     29          6           0       -7.719925   -5.265738    3.589210
     30          6           0       -5.132639   -3.378327    5.312378
     31          6           0       -3.830454   -3.212535    4.561429
     32          7           0       -6.369944    0.514819    1.830314
     33          6           0       -6.441617    0.423384    3.227875
     34          6           0       -6.570662    1.798273    3.744687
     35          6           0       -6.581842    2.597989    2.603558
     36          6           0       -6.493477    1.772914    1.446089
     37          6           0       -6.717883    2.164320    5.111716
     38          6           0       -6.672685    3.955844    2.091861
     39          8           0       -6.671810    5.076858    2.602565
     40          6           0       -6.906984    3.883735    0.518415
     41          6           0       -5.947766    4.845367   -0.128480
     42          8           0       -4.716946    4.642441   -0.092855
     43          8           0       -6.633605    5.716510   -0.884309
     44          6           0       -5.738507    6.680752   -1.577990
     45          1           0       -7.850151   -1.493150   -3.773191
     46          1           0       -6.277255   -5.365873    0.859522
     47          1           0       -6.394121   -0.608562    4.957514
     48          1           0       -7.960854    3.244411   -2.373163
     49          1           0       -7.718672    1.065838   -4.145906
     50          1           0       -9.822778    1.866958   -2.171868
     51          1           0       -9.709590    0.108538   -2.490321
     52          1           0      -10.026328    1.171719   -3.831927
     53          1           0       -5.548110    1.924319   -3.633058
     54          1           0       -5.259552    3.261872   -2.449774
     55          1           0       -7.163840    4.148385   -4.366746
     56          1           0       -6.119776    3.102390   -5.252002
     57          1           0       -7.143967   -3.169999   -4.837307
     58          1           0       -7.369778   -4.831967   -4.446301
     59          1           0       -5.715771   -4.269522   -4.800180
     60          1           0       -6.277725   -6.657356   -3.744759
     61          1           0       -4.958644   -7.695257   -2.962926
     62          1           0       -4.630899   -6.085835   -3.659541
     63          1           0       -5.642611   -5.093536    3.313810
     64          1           0       -7.197075   -3.176522    4.980149
     65          1           0       -7.482179   -6.304985    3.817565
     66          1           0       -8.421022   -5.198545    2.757802
     67          1           0       -8.323279   -4.884835    4.412796
     68          1           0       -5.116559   -4.367949    5.767720
     69          1           0       -5.160376   -2.643442    6.117006
     70          1           0       -3.646990   -4.211994    4.168676
     71          1           0       -3.034742   -2.908483    5.242315
     72          1           0       -3.945176   -2.543266    3.708550
     73          1           0       -6.065100    3.022753    5.269633
     74          1           0       -6.454351    1.339296    5.773146
     75          1           0       -7.781065    2.401963    5.143755
     76          1           0       -7.945825    4.161593    0.343127
     77          1           0       -6.071277    7.681940   -1.303908
     78          1           0       -5.754933    6.413706   -2.634788
     79          1           0       -4.702788    6.707743   -1.237553
     80         12           0        6.882287   -0.281465   -0.192610
     81          6           0        5.249151    2.910096   -0.031710
     82          6           0        4.885817   -1.001117   -2.862969
     83          6           0        7.977912   -3.257219   -0.083428
     84          6           0        7.900041    0.228857    3.101246
     85          7           0        5.309900    0.885294   -1.221470
     86          6           0        4.818164    2.110123   -1.110473
     87          6           0        3.867636    2.528589   -2.264144
     88          6           0        3.402402    1.065497   -2.735078
     89          6           0        4.619911    0.263548   -2.279848
     90          6           0        2.184351    0.551136   -1.985996
     91          6           0        4.619655    3.289410   -3.412024
     92          6           0        3.709483    3.995904   -4.419096
     93          1           0        4.153331    5.265992   -4.986854
     94          7           0        6.859850   -1.709631   -1.570444
     95          6           0        5.992986   -1.836428   -2.596959
     96          6           0        6.388448   -3.061787   -3.308481
     97          6           0        7.456558   -3.736782   -2.522201
     98          6           0        7.458319   -2.920422   -1.324857
     99          6           0        5.823152   -3.444877   -4.645300
    100          6           0        8.323005   -4.928527   -2.796475
    101          8           0        9.018530   -5.482145   -1.873120
    102          6           0        8.261174   -5.485091   -4.155851
    103          7           0        7.624639   -1.454754    1.354857
    104          6           0        8.083099   -2.697092    1.121781
    105          6           0        8.817296   -3.242003    2.323614
    106          6           0        8.966362   -2.009188    3.331336
    107          6           0        8.179672   -0.940196    2.541531
    108          6           0        8.141188   -4.408595    3.043568
    109          6           0       10.401938   -1.664181    3.813791
    110          6           0       11.224641   -1.145419    2.656444
    111          7           0        6.796477    1.344421    1.227664
    112          6           0        7.259524    1.337016    2.561687
    113          6           0        6.876361    2.630994    3.162730
    114          6           0        6.191388    3.297503    2.135563
    115          6           0        6.132947    2.468764    0.982625
    116          6           0        7.124653    3.030196    4.506272
    117          6           0        5.495224    4.509466    1.767872
    118          8           0        5.303535    5.598750    2.306801
    119          6           0        4.744046    4.262285    0.389095
    120          6           0        5.033431    5.430292   -0.513431
    121          8           0        6.189046    5.643333   -0.920559
    122          8           0        3.870680    5.971549   -0.920144
    123          6           0        4.105431    7.127048   -1.826534
    124          1           0        4.156650   -1.414524   -3.560325
    125          1           0        8.466794   -4.232481   -0.025731
    126          1           0        8.265977    0.503771    4.092802
    127          1           0        3.007651    3.110836   -1.955600
    128          1           0        3.294153    1.014096   -3.815359
    129          1           0        1.902886    1.207282   -1.175810
    130          1           0        2.462919   -0.422620   -1.604875
    131          1           0        1.359096    0.377385   -2.682478
    132          1           0        5.098546    2.556197   -4.073699
    133          1           0        5.323381    3.990449   -3.007133
    134          1           0        2.677679    4.076888   -4.056108
    135          1           0        3.630971    3.372282   -5.312937
    136          1           0        4.939487   -2.844837   -4.895279
    137          1           0        5.439559   -4.466409   -4.549421
    138          1           0        6.570656   -3.421312   -5.441134
    139          1           0        7.237720   -5.775464   -4.380985
    140          1           0        9.014983   -6.274336   -4.183052
    141          1           0        8.528927   -4.697384   -4.868908
    142          1           0        9.804554   -3.591810    2.047815
    143          1           0        8.413601   -2.178655    4.267059
    144          1           0        8.780963   -5.308594    3.112712
    145          1           0        7.217126   -4.637524    2.529529
    146          1           0        7.796252   -4.190853    4.052929
    147          1           0       10.906594   -2.563735    4.174719
    148          1           0       10.424020   -0.937492    4.619041
    149          1           0       11.569370   -2.061939    2.168343
    150          1           0       12.061928   -0.551558    3.017442
    151          1           0       10.596850   -0.605485    1.938115
    152          1           0        7.465006    4.056463    4.468288
    153          1           0        7.858756    2.384479    4.983677
    154          1           0        6.126762    2.904185    4.934757
    155          1           0        3.679762    4.168034    0.608166
    156          1           0        3.578427    7.983705   -1.395152
    157          1           0        3.782854    6.790237   -2.829656
    158          1           0        5.115773    7.512993   -1.895208
 ---------------------------------------------------------------------

 SCF Done:  E(RCAM-B3LYP) =  -4069.81158742     A.U. after   19 cycles

 Excitation energies and oscillator strengths:

 Excited State   1:      Singlet-A      1.6648 eV  744.73 nm  f=0.0056  <S**2>=0.000
     309 -> 315        0.11164
     310 -> 316       -0.12969
     311 -> 313        0.44604
     312 -> 314        0.52207
 This state for optimization and/or second-order correction.
 Total Energy, E(TD-HF/TD-DFT) =  -4069.75040641
 Copying the excited state density for this state as the 1-particle RhoCI density.

 Excited State   2:      Singlet-A      1.6895 eV  733.86 nm  f=0.7356  <S**2>=0.000
     309 -> 315        0.13545
     310 -> 316        0.11487
     311 -> 313        0.52082
     312 -> 314       -0.44507

 Excited State   3:      Singlet-A      2.1846 eV  567.55 nm  f=0.0549  <S**2>=0.000
     309 -> 313        0.17973
     310 -> 314        0.61744
     312 -> 316        0.26106

 Excited State   4:      Singlet-A      2.1932 eV  565.31 nm  f=0.1376  <S**2>=0.000
     309 -> 313        0.61503
     310 -> 314       -0.17818
     311 -> 315       -0.26793

 Excited State   5:      Singlet-A      2.6183 eV  473.54 nm  f=0.0000  <S**2>=0.000
     312 -> 313        0.70701

 The electronic state is 1-A.
 Alpha  occ. eigenvalues --  -46.87924 -46.87533 -19.26389 -19.26151 -19.19130
 Alpha  occ. eigenvalues --  -19.18984 -19.18946 -19.18615 -19.18265 -19.17885
 Alpha  occ. eigenvalues --  -14.42578 -14.42365 -14.41569 -14.41234 -14.39531
 Alpha  occ. eigenvalues --  -14.39227 -14.38707 -14.38468 -10.39189 -10.38909
 Alpha  occ. eigenvalues --  -10.35581 -10.35295 -10.34486 -10.34059 -10.31780
 Alpha  occ. eigenvalues --  -10.31570 -10.31527 -10.31166 -10.31044 -10.30887
 Alpha  occ. eigenvalues --  -10.30688 -10.30624 -10.30328 -10.30269 -10.30227
 Alpha  occ. eigenvalues --  -10.30030 -10.30029 -10.29768 -10.29749 -10.29379
 Alpha  occ. eigenvalues --  -10.29319 -10.29276 -10.28896 -10.28724 -10.28553
 Alpha  occ. eigenvalues --  -10.28533 -10.28489 -10.28270 -10.28253 -10.27981
 Alpha  occ. eigenvalues --  -10.27908 -10.27871 -10.27853 -10.27709 -10.27632
 Alpha  occ. eigenvalues --  -10.27598 -10.27546 -10.27543 -10.27526 -10.27418
 Alpha  occ. eigenvalues --  -10.27388 -10.27346 -10.27345 -10.27273 -10.27265
 Alpha  occ. eigenvalues --  -10.26888 -10.26860 -10.26563 -10.26559 -10.26353
 Alpha  occ. eigenvalues --  -10.26343 -10.26269 -10.26134 -10.26050 -10.25914
 Alpha  occ. eigenvalues --  -10.25820 -10.25814 -10.25716 -10.25521 -10.25302
 Alpha  occ. eigenvalues --  -10.24945 -10.24905 -10.24776 -10.24737 -10.24646
 Alpha  occ. eigenvalues --  -10.24565  -3.16667  -3.16283  -1.91549  -1.91165
 Alpha  occ. eigenvalues --   -1.91135  -1.90977  -1.90754  -1.90591  -1.16739
 Alpha  occ. eigenvalues --   -1.16451  -1.08720  -1.08486  -1.07348  -1.06869
 Alpha  occ. eigenvalues --   -1.06766  -1.06751  -1.04709  -1.04360  -1.03882
 Alpha  occ. eigenvalues --   -1.03535  -1.03355  -1.02914  -1.02531  -1.01983
 Alpha  occ. eigenvalues --   -0.92089  -0.91839  -0.89627  -0.89377  -0.89328
 Alpha  occ. eigenvalues --   -0.88998  -0.88392  -0.88109  -0.87974  -0.87801
 Alpha  occ. eigenvalues --   -0.87661  -0.87555  -0.87407  -0.87016  -0.85120
 Alpha  occ. eigenvalues --   -0.84861  -0.84037  -0.83765  -0.83098  -0.82836
 Alpha  occ. eigenvalues --   -0.82779  -0.82518  -0.81698  -0.81442  -0.80717
 Alpha  occ. eigenvalues --   -0.80303  -0.78922  -0.78520  -0.77339  -0.77057
 Alpha  occ. eigenvalues --   -0.77017  -0.76757  -0.76043  -0.75685  -0.75002
 Alpha  occ. eigenvalues --   -0.74683  -0.72888  -0.72571  -0.71788  -0.71444
 Alpha  occ. eigenvalues --   -0.70006  -0.69654  -0.69006  -0.68692  -0.67761
 Alpha  occ. eigenvalues --   -0.67473  -0.67371  -0.67077  -0.65420  -0.65124
 Alpha  occ. eigenvalues --   -0.64970  -0.64740  -0.64637  -0.64511  -0.64378
 Alpha  occ. eigenvalues --   -0.64086  -0.62406  -0.62119  -0.60567  -0.60230
 Alpha  occ. eigenvalues --   -0.59937  -0.59650  -0.59103  -0.58860  -0.58619
 Alpha  occ. eigenvalues --   -0.58289  -0.57693  -0.57421  -0.57388  -0.57111
 Alpha  occ. eigenvalues --   -0.56426  -0.56095  -0.56076  -0.55729  -0.55644
 Alpha  occ. eigenvalues --   -0.55441  -0.55322  -0.55116  -0.54627  -0.54349
 Alpha  occ. eigenvalues --   -0.54036  -0.53764  -0.53420  -0.53353  -0.53106
 Alpha  occ. eigenvalues --   -0.53032  -0.53006  -0.52895  -0.52761  -0.52557
 Alpha  occ. eigenvalues --   -0.52535  -0.52298  -0.52006  -0.51756  -0.51749
 Alpha  occ. eigenvalues --   -0.51526  -0.51306  -0.51061  -0.50715  -0.50384
 Alpha  occ. eigenvalues --   -0.50141  -0.50048  -0.49856  -0.49757  -0.49646
 Alpha  occ. eigenvalues --   -0.49362  -0.49332  -0.49220  -0.49061  -0.48950
 Alpha  occ. eigenvalues --   -0.48705  -0.48581  -0.48554  -0.48411  -0.48261
 Alpha  occ. eigenvalues --   -0.48218  -0.47819  -0.47466  -0.47416  -0.47002
 Alpha  occ. eigenvalues --   -0.46913  -0.46694  -0.46583  -0.46474  -0.46417
 Alpha  occ. eigenvalues --   -0.46268  -0.46149  -0.45953  -0.45924  -0.45671
 Alpha  occ. eigenvalues --   -0.45306  -0.45092  -0.44688  -0.44636  -0.44371
 Alpha  occ. eigenvalues --   -0.44344  -0.44260  -0.44220  -0.44135  -0.43985
 Alpha  occ. eigenvalues --   -0.43963  -0.43810  -0.43603  -0.43511  -0.43403
 Alpha  occ. eigenvalues --   -0.43248  -0.43141  -0.42806  -0.42783  -0.42757
 Alpha  occ. eigenvalues --   -0.42739  -0.42445  -0.42122  -0.41843  -0.41818
 Alpha  occ. eigenvalues --   -0.41670  -0.41523  -0.41326  -0.41260  -0.41001
 Alpha  occ. eigenvalues --   -0.40962  -0.40851  -0.40679  -0.40611  -0.40573
 Alpha  occ. eigenvalues --   -0.40398  -0.40372  -0.40093  -0.39540  -0.39325
 Alpha  occ. eigenvalues --   -0.38581  -0.38237  -0.37900  -0.37525  -0.37433
 Alpha  occ. eigenvalues --   -0.37402  -0.37146  -0.37064  -0.36820  -0.36606
 Alpha  occ. eigenvalues --   -0.36305  -0.36082  -0.34406  -0.34122  -0.33883
 Alpha  occ. eigenvalues --   -0.33695  -0.33306  -0.33046  -0.31475  -0.31173
 Alpha  occ. eigenvalues --   -0.31157  -0.30841  -0.30123  -0.29786  -0.29574
 Alpha  occ. eigenvalues --   -0.29435  -0.29207  -0.29077  -0.24203  -0.23904
 Alpha  occ. eigenvalues --   -0.21249  -0.20989
 Alpha virt. eigenvalues --   -0.08896  -0.08664  -0.01873  -0.01560  -0.00187
 Alpha virt. eigenvalues --    0.00092   0.02094   0.02351   0.02952   0.03340
 Alpha virt. eigenvalues --    0.04583   0.04862   0.04989   0.05344   0.06021

 Mulliken charges:
               1
     1  Mg   0.837859
     2  C   -0.003252
     3  C   -0.094663
     4  C   -0.045807
     5  C   -0.063718
     6  N   -0.256761
     7  C   -0.052661
     8  C   -0.013833
     9  C   -0.086886
    10  C    0.045958
    11  C    0.104775
    12  C    0.053642
    13  C   -0.071576
    14  H    0.035427
    15  N   -0.433116
    16  C    0.167984
    17  C   -0.177590
    18  C   -0.004221
    19  C    0.148488
    20  C    0.110220
    21  C    0.011994
    22  O   -0.249381
    23  C    0.062713
    24  N   -0.341094
    25  C    0.041176
    26  C   -0.028182
    27  C   -0.024134
    28  C    0.074911
    29  C    0.076096
    30  C    0.035065
    31  C   -0.004536
    32  N   -0.310588
    33  C    0.080508
    34  C   -0.169215
    35  C    0.008693
    36  C    0.082990
    37  C    0.127169
    38  C    0.046474
    39  O   -0.187488
    40  C   -0.005462
    41  C    0.213162
    42  O   -0.257379
    43  O   -0.304719
    44  C    0.157497
    45  H   -0.017631
    46  H   -0.016682
    47  H   -0.040984
    48  H    0.001299
    49  H   -0.004426
    50  H    0.025706
    51  H    0.016633
    52  H    0.016744
    53  H    0.010132
    54  H    0.043723
    55  H    0.018541
    56  H    0.017595
    57  H    0.005745
    58  H    0.027082
    59  H    0.038511
    60  H    0.037563
    61  H    0.035754
    62  H    0.030461
    63  H    0.016603
    64  H    0.009766
    65  H    0.023387
    66  H    0.012561
    67  H    0.004985
    68  H    0.006629
    69  H    0.005099
    70  H    0.008732
    71  H    0.018547
    72  H    0.028572
    73  H    0.048362
    74  H    0.009408
    75  H    0.046270
    76  H    0.035399
    77  H    0.043563
    78  H    0.045934
    79  H    0.053877
    80  Mg   0.837782
    81  C   -0.016774
    82  C   -0.087834
    83  C   -0.045664
    84  C   -0.065052
    85  N   -0.254584
    86  C   -0.049434
    87  C   -0.015405
    88  C   -0.090646
    89  C    0.045876
    90  C    0.114337
    91  C    0.062578
    92  C   -0.077655
    93  H    0.034117
    94  N   -0.423460
    95  C    0.162836
    96  C   -0.174864
    97  C   -0.008044
    98  C    0.152072
    99  C    0.099558
   100  C    0.015398
   101  O   -0.253440
   102  C    0.061289
   103  N   -0.350055
   104  C    0.037457
   105  C   -0.019762
   106  C   -0.034824
   107  C    0.089022
   108  C    0.073728
   109  C    0.034792
   110  C   -0.007622
   111  N   -0.324211
   112  C    0.078656
   113  C   -0.163159
   114  C    0.002682
   115  C    0.096106
   116  C    0.131447
   117  C    0.042737
   118  O   -0.187020
   119  C    0.000777
   120  C    0.211015
   121  O   -0.251676
   122  O   -0.304560
   123  C    0.152339
   124  H   -0.020256
   125  H   -0.015879
   126  H   -0.040614
   127  H    0.001449
   128  H   -0.005248
   129  H    0.025110
   130  H    0.013930
   131  H    0.015669
   132  H    0.013362
   133  H    0.037599
   134  H    0.021788
   135  H    0.018692
   136  H    0.008213
   137  H    0.025688
   138  H    0.039288
   139  H    0.038017
   140  H    0.036074
   141  H    0.033671
   142  H    0.014152
   143  H    0.012326
   144  H    0.024847
   145  H    0.011765
   146  H    0.005494
   147  H    0.006021
   148  H    0.003585
   149  H    0.010795
   150  H    0.017740
   151  H    0.030233
   152  H    0.046004
   153  H    0.008173
   154  H    0.047504
   155  H    0.037562
   156  H    0.044399
   157  H    0.049024
   158  H    0.052965
 Sum of Mulliken charges =  -0.00000

 Dipole moment (field-independent basis, Debye):
    X=             -4.7282    Y=             -4.1945    Z=             -6.0720  Tot=              8.7646
 Quadrupole moment (field-independent basis, Debye-Ang):
   XX=           -513.1593   YY=           -563.7266   ZZ=           -447.1092
   XY=             -4.6433   XZ=             29.3379   YZ=            -28.5627

 Normal termination of Gaussian 16 at Sat Sep 11 14:05:07 2021.
