 Gaussian 16, Revision A.03,
 Gaussian 16:  ES64L-G16RevA.03 25-Dec-2016

 -----------------------------------
 #p cam-b3lyp/Def2SVP td=(nstates=5)
 -----------------------------------

 --------------------------------
 TDDFT excited states in gaussian
 --------------------------------
 Symbolic Z-matrix:
 Charge =  0 Multiplicity = 1

                         Standard orientation:
 ---------------------------------------------------------------------
 Center     Atomic      Atomic             Coordinates (Angstroms)
 Number     Number       Type             X           Y           Z
 ---------------------------------------------------------------------
      1         12           0       -4.376453    0.624049    0.611234
      2          6           0       -4.901863   -2.220474   -1.497047
      3          6           0       -4.837757   -1.453955    3.278098
      4          6           0       -4.368177    3.190554    2.473922
      5          6           0       -5.080942    2.620788   -2.156868
      6          7           0       -4.806836   -1.543314    0.745213
      7          6           0       -4.924889   -2.531831   -0.135735
      8          6           0       -4.999777   -3.941407    0.523706
      9          6           0       -5.537882   -3.517514    1.963413
     10          6           0       -4.999551   -2.098578    2.015832
     11          6           0       -7.059642   -3.469214    2.055135
     12          6           0       -3.596439   -4.629719    0.616443
     13          6           0       -3.622720   -6.125604    0.943538
     14          1           0       -2.626483   -6.993379    0.333764
     15          7           0       -4.092196    0.792582    2.558962
     16          6           0       -4.316186   -0.160293    3.495521
     17          6           0       -3.953607    0.450010    4.792728
     18          6           0       -3.681408    1.894914    4.555550
     19          6           0       -4.066792    2.024417    3.173492
     20          6           0       -3.847021   -0.329264    6.067531
     21          6           0       -3.167068    2.988148    5.437836
     22          8           0       -3.224881    4.219578    5.098998
     23          6           0       -2.667989    2.581967    6.764101
     24          7           0       -4.893500    2.619475    0.281732
     25          6           0       -4.741009    3.539242    1.240772
     26          6           0       -4.903319    4.927576    0.696599
     27          6           0       -4.959140    4.775991   -0.892004
     28          6           0       -4.897487    3.231319   -0.983981
     29          6           0       -6.141512    5.695293    1.179815
     30          6           0       -3.940391    5.605049   -1.713729
     31          6           0       -2.539373    5.096572   -1.457411
     32          7           0       -4.726936    0.299346   -1.506023
     33          6           0       -5.023576    1.273139   -2.470597
     34          6           0       -5.284257    0.562485   -3.735937
     35          6           0       -5.136441   -0.785127   -3.413541
     36          6           0       -4.830260   -0.909899   -2.028270
     37          6           0       -5.666571    1.165215   -4.966785
     38          6           0       -5.190165   -2.150013   -3.911593
     39          8           0       -5.312773   -2.662615   -5.025011
     40          6           0       -5.160518   -3.139952   -2.664609
     41          6           0       -4.142861   -4.208726   -2.956852
     42          8           0       -2.928147   -3.932385   -3.030835
     43          8           0       -4.725864   -5.414001   -2.867624
     44          6           0       -3.763836   -6.520441   -3.117517
     45          1           0       -5.195966   -1.957926    4.177897
     46          1           0       -4.268037    4.109434    3.055359
     47          1           0       -5.223890    3.182327   -3.081905
     48          1           0       -5.702535   -4.627654    0.050821
     49          1           0       -5.095861   -4.120049    2.756692
     50          1           0       -7.522284   -3.609035    1.078235
     51          1           0       -7.296186   -2.481164    2.450479
     52          1           0       -7.426047   -4.182955    2.793443
     53          1           0       -3.070598   -4.256830    1.495366
     54          1           0       -3.027587   -4.471091   -0.300383
     55          1           0       -4.621861   -6.543645    0.817565
     56          1           0       -3.410354   -6.246716    2.005815
     57          1           0       -4.265868   -1.329237    5.961862
     58          1           0       -4.493741    0.160615    6.795186
     59          1           0       -2.825065   -0.359671    6.445700
     60          1           0       -3.467579    2.083225    7.312244
     61          1           0       -2.258670    3.482702    7.220155
     62          1           0       -1.878323    1.841630    6.632662
     63          1           0       -4.054581    5.554882    0.965960
     64          1           0       -5.928213    5.068501   -1.296984
     65          1           0       -5.907780    6.647208    1.657238
     66          1           0       -6.698684    5.045856    1.854413
     67          1           0       -6.884885    5.895617    0.408658
     68          1           0       -3.964168    6.649418   -1.404418
     69          1           0       -4.125737    5.572857   -2.787443
     70          1           0       -2.258691    5.609345   -0.538110
     71          1           0       -1.877390    5.375634   -2.277846
     72          1           0       -2.536288    4.026747   -1.247765
     73          1           0       -5.079351    0.673778   -5.742434
     74          1           0       -5.486038    2.239857   -4.954354
     75          1           0       -6.728351    0.920414   -4.990283
     76          1           0       -6.165722   -3.548199   -2.564502
     77          1           0       -4.172304   -7.123986   -3.928147
     78          1           0       -3.597238   -7.008994   -2.157326
     79          1           0       -2.799595   -6.234749   -3.539369
     80         12           0        4.519547    0.655997   -0.773907
     81          6           0        4.618333   -2.388200    1.124019
     82          6           0        4.088484    2.307702    2.179168
     83          6           0        3.978581    3.298352   -2.445057
     84          6           0        3.815684   -1.281791   -3.583755
     85          7           0        4.387686   -0.058125    1.315322
     86          6           0        4.500546   -1.230552    1.921149
     87          6           0        4.567084   -1.150470    3.469927
     88          6           0        3.824620    0.259355    3.669938
     89          6           0        4.145194    0.898085    2.320152
     90          6           0        2.315187    0.132639    3.791930
     91          6           0        6.042017   -1.103660    4.003210
     92          6           0        6.189264   -1.336123    5.508552
     93          1           0        7.361757   -2.061747    5.989370
     94          7           0        4.583335    2.560917   -0.220931
     95          6           0        4.409275    3.053256    1.023491
     96          6           0        4.531250    4.513993    0.898943
     97          6           0        4.627493    4.855126   -0.546424
     98          6           0        4.373739    3.558070   -1.140855
     99          6           0        4.627343    5.426735    2.086833
    100          6           0        4.890147    6.139066   -1.273550
    101          8           0        4.693171    6.250894   -2.535103
    102          6           0        5.295326    7.287724   -0.450194
    103          7           0        3.768639    0.987266   -2.684081
    104          6           0        3.685768    2.231003   -3.188242
    105          6           0        3.379153    2.201015   -4.666578
    106          6           0        3.512932    0.668043   -5.102093
    107          6           0        3.798873    0.036860   -3.721783
    108          6           0        2.001936    2.726406   -5.071121
    109          6           0        4.481340    0.351450   -6.274537
    110          6           0        5.907960    0.619612   -5.852355
    111          7           0        4.440073   -1.454958   -1.227336
    112          6           0        4.099364   -2.049991   -2.461809
    113          6           0        4.072800   -3.511511   -2.248027
    114          6           0        4.379786   -3.665378   -0.887671
    115          6           0        4.563460   -2.388856   -0.290807
    116          6           0        3.745308   -4.489873   -3.228682
    117          6           0        4.579768   -4.616938    0.181552
    118          8           0        4.637584   -5.843840    0.253013
    119          6           0        4.618736   -3.827047    1.560294
    120          6           0        5.803048   -4.320862    2.345202
    121          8           0        6.960342   -4.119868    1.936684
    122          8           0        5.384651   -4.754043    3.548385
    123          6           0        6.524987   -5.243634    4.367990
    124          1           0        3.723567    2.898895    3.019531
    125          1           0        3.886320    4.173185   -3.092850
    126          1           0        3.700820   -1.959113   -4.432708
    127          1           0        4.026007   -1.932579    3.988899
    128          1           0        4.273226    0.830827    4.478349
    129          1           0        1.979184   -0.876489    3.605072
    130          1           0        1.902650    0.811015    3.056629
    131          1           0        1.983084    0.504948    4.765284
    132          1           0        6.414982   -0.073634    3.934795
    133          1           0        6.662734   -1.795890    3.468262
    134          1           0        5.274475   -1.745857    5.953775
    135          1           0        6.315270   -0.367601    5.998549
    136          1           0        4.361471    4.907322    3.015777
    137          1           0        3.848671    6.188074    1.968917
    138          1           0        5.597839    5.922178    2.159936
    139          1           0        4.524933    7.491313    0.289738
    140          1           0        5.523884    8.087762   -1.156997
    141          1           0        6.201111    7.018412    0.104462
    142          1           0        4.099213    2.788505   -5.222874
    143          1           0        2.551802    0.255961   -5.443048
    144          1           0        2.048513    3.554582   -5.803265
    145          1           0        1.479441    3.038558   -4.176640
    146          1           0        1.326114    1.979875   -5.484806
    147          1           0        4.279042    1.011537   -7.121595
    148          1           0        4.403635   -0.668689   -6.635480
    149          1           0        6.012974    1.697465   -6.008213
    150          1           0        6.603337    0.061072   -6.475658
    151          1           0        6.044551    0.426474   -4.781981
    152          1           0        4.464448   -5.291027   -3.121463
    153          1           0        3.764337   -4.069135   -4.231875
    154          1           0        2.731994   -4.751443   -2.912415
    155          1           0        3.676911   -4.020274    2.075282
    156          1           0        6.287700   -6.269925    4.664826
    157          1           0        6.650898   -4.501234    5.178380
    158          1           0        7.477255   -5.382431    3.869621
 ---------------------------------------------------------------------

 SCF Done:  E(RCAM-B3LYP) =  -4069.81212174     A.U. after   19 cycles

 Excitation energies and oscillator strengths:

 Excited State   1:      Singlet-A      1.6625 eV  745.76 nm  f=0.2227  <S**2>=0.000
     309 -> 315        0.11313
     310 -> 316       -0.12719
     311 -> 313       -0.45508
     312 -> 314        0.51382
 This state for optimization and/or second-order correction.
 Total Energy, E(TD-HF/TD-DFT) =  -4069.75102502
 Copying the excited state density for this state as the 1-particle RhoCI density.

 Excited State   2:      Singlet-A      1.6844 eV  736.07 nm  f=0.4491  <S**2>=0.000
     309 -> 315       -0.13161
     310 -> 316       -0.11714
     311 -> 313        0.51279
     312 -> 314        0.45444

 Excited State   3:      Singlet-A      2.1848 eV  567.48 nm  f=0.0842  <S**2>=0.000
     309 -> 313       -0.16412
     310 -> 314        0.62131
     312 -> 316        0.26383

 Excited State   4:      Singlet-A      2.1902 eV  566.10 nm  f=0.1113  <S**2>=0.000
     309 -> 313        0.61980
     310 -> 314        0.16279
     311 -> 315        0.26733

 Excited State   5:      Singlet-A      2.3493 eV  527.76 nm  f=0.0000  <S**2>=0.000
     312 -> 313        0.70707

 The electronic state is 1-A.
 Alpha  occ. eigenvalues --  -46.87898 -46.87456 -19.26313 -19.26307 -19.19088
 Alpha  occ. eigenvalues --  -19.19074 -19.19013 -19.18542 -19.18276 -19.17899
 Alpha  occ. eigenvalues --  -14.42542 -14.42310 -14.41547 -14.41142 -14.39517
 Alpha  occ. eigenvalues --  -14.39152 -14.38690 -14.38389 -10.39134 -10.39013
 Alpha  occ. eigenvalues --  -10.35651 -10.35222 -10.34490 -10.34079 -10.31749
 Alpha  occ. eigenvalues --  -10.31668 -10.31485 -10.31125 -10.31003 -10.30865
 Alpha  occ. eigenvalues --  -10.30669 -10.30621 -10.30315 -10.30183 -10.30147
 Alpha  occ. eigenvalues --  -10.30016 -10.29906 -10.29752 -10.29665 -10.29376
 Alpha  occ. eigenvalues --  -10.29220 -10.29188 -10.28783 -10.28640 -10.28633
 Alpha  occ. eigenvalues --  -10.28475 -10.28454 -10.28219 -10.28163 -10.28048
 Alpha  occ. eigenvalues --  -10.27912 -10.27823 -10.27797 -10.27717 -10.27640
 Alpha  occ. eigenvalues --  -10.27575 -10.27537 -10.27499 -10.27472 -10.27299
 Alpha  occ. eigenvalues --  -10.27264 -10.27260 -10.27237 -10.27231 -10.27128
 Alpha  occ. eigenvalues --  -10.26926 -10.26691 -10.26682 -10.26629 -10.26280
 Alpha  occ. eigenvalues --  -10.26266 -10.26220 -10.26118 -10.25987 -10.25956
 Alpha  occ. eigenvalues --  -10.25877 -10.25686 -10.25533 -10.25523 -10.25140
 Alpha  occ. eigenvalues --  -10.24948 -10.24896 -10.24693 -10.24666 -10.24510
 Alpha  occ. eigenvalues --  -10.24486  -3.16641  -3.16206  -1.91522  -1.91109
 Alpha  occ. eigenvalues --   -1.91089  -1.90951  -1.90677  -1.90514  -1.16666
 Alpha  occ. eigenvalues --   -1.16593  -1.08729  -1.08515  -1.07419  -1.06873
 Alpha  occ. eigenvalues --   -1.06798  -1.06694  -1.04674  -1.04314  -1.03860
 Alpha  occ. eigenvalues --   -1.03461  -1.03343  -1.02821  -1.02515  -1.01902
 Alpha  occ. eigenvalues --   -0.92067  -0.91810  -0.89602  -0.89270  -0.89231
 Alpha  occ. eigenvalues --   -0.89043  -0.88369  -0.87989  -0.87981  -0.87756
 Alpha  occ. eigenvalues --   -0.87562  -0.87487  -0.87430  -0.86925  -0.85040
 Alpha  occ. eigenvalues --   -0.84870  -0.84009  -0.83655  -0.83142  -0.82745
 Alpha  occ. eigenvalues --   -0.82722  -0.82516  -0.81647  -0.81462  -0.80686
 Alpha  occ. eigenvalues --   -0.80284  -0.78930  -0.78428  -0.77296  -0.76986
 Alpha  occ. eigenvalues --   -0.76978  -0.76748  -0.75985  -0.75704  -0.74977
 Alpha  occ. eigenvalues --   -0.74595  -0.72874  -0.72487  -0.71757  -0.71403
 Alpha  occ. eigenvalues --   -0.69967  -0.69525  -0.68948  -0.68689  -0.67752
 Alpha  occ. eigenvalues --   -0.67421  -0.67279  -0.67074  -0.65341  -0.65145
 Alpha  occ. eigenvalues --   -0.64936  -0.64690  -0.64587  -0.64500  -0.64350
 Alpha  occ. eigenvalues --   -0.63985  -0.62355  -0.62147  -0.60578  -0.60137
 Alpha  occ. eigenvalues --   -0.59873  -0.59659  -0.59078  -0.58799  -0.58598
 Alpha  occ. eigenvalues --   -0.58244  -0.57666  -0.57417  -0.57407  -0.57036
 Alpha  occ. eigenvalues --   -0.56422  -0.56024  -0.56016  -0.55776  -0.55646
 Alpha  occ. eigenvalues --   -0.55410  -0.55299  -0.55056  -0.54584  -0.54315
 Alpha  occ. eigenvalues --   -0.53942  -0.53807  -0.53428  -0.53313  -0.53037
 Alpha  occ. eigenvalues --   -0.53007  -0.52994  -0.52873  -0.52764  -0.52514
 Alpha  occ. eigenvalues --   -0.52495  -0.52174  -0.52024  -0.51693  -0.51616
 Alpha  occ. eigenvalues --   -0.51531  -0.51273  -0.51027  -0.50755  -0.50294
 Alpha  occ. eigenvalues --   -0.50112  -0.50057  -0.49834  -0.49647  -0.49610
 Alpha  occ. eigenvalues --   -0.49336  -0.49322  -0.49156  -0.49060  -0.48957
 Alpha  occ. eigenvalues --   -0.48669  -0.48610  -0.48537  -0.48416  -0.48188
 Alpha  occ. eigenvalues --   -0.48149  -0.47787  -0.47430  -0.47404  -0.46927
 Alpha  occ. eigenvalues --   -0.46876  -0.46607  -0.46530  -0.46456  -0.46417
 Alpha  occ. eigenvalues --   -0.46248  -0.46065  -0.45893  -0.45874  -0.45655
 Alpha  occ. eigenvalues --   -0.45287  -0.45000  -0.44677  -0.44609  -0.44388
 Alpha  occ. eigenvalues --   -0.44307  -0.44238  -0.44145  -0.44120  -0.43983
 Alpha  occ. eigenvalues --   -0.43887  -0.43783  -0.43567  -0.43454  -0.43423
 Alpha  occ. eigenvalues --   -0.43228  -0.43115  -0.42818  -0.42765  -0.42720
 Alpha  occ. eigenvalues --   -0.42702  -0.42340  -0.42067  -0.41797  -0.41788
 Alpha  occ. eigenvalues --   -0.41581  -0.41503  -0.41314  -0.41223  -0.40999
 Alpha  occ. eigenvalues --   -0.40905  -0.40832  -0.40640  -0.40583  -0.40559
 Alpha  occ. eigenvalues --   -0.40279  -0.40249  -0.40136  -0.39491  -0.39186
 Alpha  occ. eigenvalues --   -0.38537  -0.38143  -0.37777  -0.37551  -0.37402
 Alpha  occ. eigenvalues --   -0.37314  -0.37063  -0.37032  -0.36769  -0.36673
 Alpha  occ. eigenvalues --   -0.36257  -0.36031  -0.34384  -0.34058  -0.33836
 Alpha  occ. eigenvalues --   -0.33763  -0.33286  -0.32969  -0.31539  -0.31135
 Alpha  occ. eigenvalues --   -0.31102  -0.30783  -0.30130  -0.29807  -0.29584
 Alpha  occ. eigenvalues --   -0.29437  -0.29126  -0.28999  -0.24179  -0.23830
 Alpha  occ. eigenvalues --   -0.21232  -0.20910
 Alpha virt. eigenvalues --   -0.08891  -0.08587  -0.01859  -0.01477  -0.00200
 Alpha virt. eigenvalues --    0.00146   0.02089   0.02395   0.02848   0.03482
 Alpha virt. eigenvalues --    0.04658   0.04895   0.05041   0.05252   0.06182

 Mulliken charges:
               1
     1  Mg   0.838843
     2  C   -0.002805
     3  C   -0.094094
     4  C   -0.046215
     5  C   -0.064000
     6  N   -0.256893
     7  C   -0.051955
     8  C   -0.014043
     9  C   -0.086995
    10  C    0.046373
    11  C    0.104787
    12  C    0.053488
    13  C   -0.073042
    14  H    0.039501
    15  N   -0.433012
    16  C    0.168065
    17  C   -0.177567
    18  C   -0.004807
    19  C    0.148553
    20  C    0.110172
    21  C    0.010899
    22  O   -0.250161
    23  C    0.063032
    24  N   -0.341286
    25  C    0.041482
    26  C   -0.028015
    27  C   -0.024114
    28  C    0.075353
    29  C    0.076168
    30  C    0.035002
    31  C   -0.004660
    32  N   -0.310526
    33  C    0.080748
    34  C   -0.170047
    35  C    0.008291
    36  C    0.083169
    37  C    0.127374
    38  C    0.045875
    39  O   -0.188269
    40  C   -0.005182
    41  C    0.212947
    42  O   -0.257533
    43  O   -0.304718
    44  C    0.157661
    45  H   -0.017436
    46  H   -0.017288
    47  H   -0.041213
    48  H    0.001198
    49  H   -0.003651
    50  H    0.025539
    51  H    0.016192
    52  H    0.016960
    53  H    0.010994
    54  H    0.044333
    55  H    0.017500
    56  H    0.018207
    57  H    0.006495
    58  H    0.026921
    59  H    0.037939
    60  H    0.038329
    61  H    0.034573
    62  H    0.029177
    63  H    0.016113
    64  H    0.009611
    65  H    0.023004
    66  H    0.012495
    67  H    0.005023
    68  H    0.006555
    69  H    0.004916
    70  H    0.008063
    71  H    0.020724
    72  H    0.028460
    73  H    0.047074
    74  H    0.009377
    75  H    0.046418
    76  H    0.035487
    77  H    0.043070
    78  H    0.047476
    79  H    0.053459
    80  Mg   0.838065
    81  C   -0.017145
    82  C   -0.088100
    83  C   -0.045494
    84  C   -0.060974
    85  N   -0.254471
    86  C   -0.050036
    87  C   -0.014985
    88  C   -0.090534
    89  C    0.045316
    90  C    0.114788
    91  C    0.062697
    92  C   -0.077434
    93  H    0.034481
    94  N   -0.423417
    95  C    0.162464
    96  C   -0.174454
    97  C   -0.008192
    98  C    0.152069
    99  C    0.099350
   100  C    0.015197
   101  O   -0.253856
   102  C    0.061280
   103  N   -0.349860
   104  C    0.037729
   105  C   -0.020104
   106  C   -0.035599
   107  C    0.088812
   108  C    0.073118
   109  C    0.034565
   110  C   -0.007531
   111  N   -0.324447
   112  C    0.078326
   113  C   -0.160719
   114  C    0.001914
   115  C    0.096679
   116  C    0.131170
   117  C    0.042507
   118  O   -0.189146
   119  C    0.000860
   120  C    0.211039
   121  O   -0.250942
   122  O   -0.306101
   123  C    0.152162
   124  H   -0.019451
   125  H   -0.016119
   126  H   -0.038466
   127  H   -0.002170
   128  H   -0.004873
   129  H    0.021504
   130  H    0.016495
   131  H    0.013030
   132  H    0.014218
   133  H    0.037729
   134  H    0.019483
   135  H    0.019461
   136  H    0.008800
   137  H    0.026685
   138  H    0.039038
   139  H    0.038340
   140  H    0.035733
   141  H    0.033721
   142  H    0.013703
   143  H    0.016429
   144  H    0.023567
   145  H    0.011099
   146  H    0.008566
   147  H    0.006080
   148  H    0.004491
   149  H    0.010399
   150  H    0.017474
   151  H    0.029722
   152  H    0.044372
   153  H    0.009111
   154  H    0.051130
   155  H    0.033804
   156  H    0.043134
   157  H    0.049108
   158  H    0.053667
 Sum of Mulliken charges =  -0.00000

 Dipole moment (field-independent basis, Debye):
    X=             -3.1397    Y=              1.7724    Z=              6.4690  Tot=              7.4059
 Quadrupole moment (field-independent basis, Debye-Ang):
   XX=           -519.5190   YY=           -517.9657   ZZ=           -481.4379
   XY=             21.7271   XZ=             -1.1181   YZ=            -18.0200

 Normal termination of Gaussian 16 at Fri Sep 10 00:18:12 2021.
