 Gaussian 16, Revision A.03,
 Gaussian 16:  ES64L-G16RevA.03 25-Dec-2016

 -----------------------------------
 #p cam-b3lyp/Def2SVP td=(nstates=5)
 -----------------------------------

 --------------------------------
 TDDFT excited states in gaussian
 --------------------------------
 Symbolic Z-matrix:
 Charge =  0 Multiplicity = 1

                         Standard orientation:
 ---------------------------------------------------------------------
 Center     Atomic      Atomic             Coordinates (Angstroms)
 Number     Number       Type             X           Y           Z
 ---------------------------------------------------------------------
      1         12           0        6.418515    0.675019   -0.067470
      2          6           0        6.799950   -2.823583   -0.720547
      3          6           0        7.356864    1.229192   -3.300960
      4          6           0        6.529476    3.771121    0.609628
      5          6           0        6.623349   -0.086750    3.327146
      6          7           0        6.980075   -0.704030   -1.705615
      7          6           0        7.028260   -2.025319   -1.843620
      8          6           0        7.270065   -2.484656   -3.312604
      9          6           0        7.978757   -1.171257   -3.873617
     10          6           0        7.376827   -0.147423   -2.927378
     11          6           0        9.493672   -1.173232   -3.696042
     12          6           0        5.932488   -2.782034   -4.070355
     13          6           0        6.084839   -3.541918   -5.391233
     14          1           0        5.062184   -4.506838   -5.766007
     15          7           0        6.398245    2.249057   -1.261138
     16          6           0        6.801160    2.290310   -2.553904
     17          6           0        6.589351    3.683332   -3.002576
     18          6           0        6.209043    4.492220   -1.811291
     19          6           0        6.391572    3.529558   -0.755193
     20          6           0        6.702848    4.113337   -4.432948
     21          6           0        5.763496    5.911137   -1.649137
     22          8           0        5.707000    6.479833   -0.505473
     23          6           0        5.475793    6.655101   -2.888809
     24          7           0        6.776051    1.730686    1.697571
     25          6           0        6.708357    3.066139    1.728667
     26          6           0        6.718237    3.580695    3.137593
     27          6           0        6.561470    2.299255    4.077321
     28          6           0        6.571426    1.202338    2.984185
     29          6           0        7.968033    4.368744    3.553528
     30          6           0        5.395267    2.313607    5.097214
     31          6           0        4.072915    2.257460    4.365549
     32          7           0        6.489236   -1.133432    1.130674
     33          6           0        6.596138   -1.216405    2.526511
     34          6           0        6.717037   -2.646093    2.866281
     35          6           0        6.688546   -3.298612    1.635326
     36          6           0        6.584529   -2.335727    0.591140
     37          6           0        6.891853   -3.180125    4.173447
     38          6           0        6.746575   -4.583741    0.957878
     39          8           0        6.741267   -5.759221    1.326268
     40          6           0        6.943709   -4.320377   -0.600199
     41          6           0        5.954770   -5.183145   -1.335685
     42          8           0        4.728359   -4.971561   -1.243419
     43          8           0        6.608935   -5.962214   -2.210706
     44          6           0        5.682916   -6.822547   -2.994588
     45          1           0        7.863094    1.534403   -4.218847
     46          1           0        6.461264    4.822858    0.895343
     47          1           0        6.606081   -0.405808    4.370868
     48          1           0        7.936629   -3.340915   -3.417178
     49          1           0        7.684243   -0.957095   -4.900806
     50          1           0        9.823340   -2.021173   -3.095845
     51          1           0        9.728856   -0.235647   -3.191944
     52          1           0        9.996986   -1.128429   -4.662192
     53          1           0        5.514120   -1.846542   -4.441682
     54          1           0        5.234306   -3.316645   -3.425328
     55          1           0        7.078039   -3.981846   -5.485705
     56          1           0        6.028627   -2.822055   -6.207834
     57          1           0        7.156551    3.338264   -5.049357
     58          1           0        7.416683    4.936310   -4.462336
     59          1           0        5.746330    4.441657   -4.839902
     60          1           0        6.369468    6.673775   -3.512946
     61          1           0        5.085450    7.622624   -2.575151
     62          1           0        4.716804    6.115726   -3.456223
     63          1           0        5.882302    4.256639    3.312918
     64          1           0        7.447780    2.129907    4.689244
     65          1           0        7.751510    5.374523    3.914403
     66          1           0        8.647677    4.396561    2.702293
     67          1           0        8.585397    3.881759    4.307932
     68          1           0        5.405079    3.239436    5.671400
     69          1           0        5.431478    1.484572    5.804067
     70          1           0        3.894996    3.299931    4.103954
     71          1           0        3.289476    1.881015    5.024125
     72          1           0        4.156871    1.697494    3.433951
     73          1           0        6.230287   -4.043674    4.241143
     74          1           0        6.656842   -2.440164    4.938189
     75          1           0        7.951815   -3.432530    4.148367
     76          1           0        7.973709   -4.586755   -0.835281
     77          1           0        6.007177   -7.853832   -2.854800
     78          1           0        5.677717   -6.427065   -4.010448
     79          1           0        4.655468   -6.879119   -2.633355
     80         12           0       -6.782553    0.071757   -0.424619
     81          6           0       -5.696641   -0.577822    2.933638
     82          6           0       -6.492733    3.395756    0.283639
     83          6           0       -8.161028    0.685162   -3.215848
     84          6           0       -8.058392   -3.170693   -0.491382
     85          7           0       -6.164262    1.145837    1.407406
     86          6           0       -5.714384    0.793037    2.602189
     87          6           0       -5.182398    1.970449    3.462569
     88          6           0       -6.006812    3.163736    2.773170
     89          6           0       -6.208253    2.553140    1.387800
     90          6           0       -7.373175    3.390822    3.398330
     91          6           0       -3.634808    2.175048    3.304064
     92          6           0       -2.998757    3.100916    4.343283
     93          1           0       -1.649454    2.797877    4.812358
     94          7           0       -6.804367    1.734142   -1.508396
     95          6           0       -6.648012    2.998291   -1.062555
     96          6           0       -6.765987    3.860650   -2.248539
     97          6           0       -7.168667    3.015145   -3.405118
     98          6           0       -7.419346    1.754630   -2.735536
     99          6           0       -6.428705    5.323269   -2.227908
    100          6           0       -7.317443    3.298057   -4.869375
    101          8           0       -7.908722    2.477762   -5.656986
    102          6           0       -6.833535    4.605206   -5.337009
    103          7           0       -8.125503   -0.995984   -1.598813
    104          6           0       -8.525128   -0.525754   -2.793428
    105          6           0       -9.267956   -1.582949   -3.575051
    106          6           0       -9.073183   -2.941023   -2.753301
    107          6           0       -8.292296   -2.392282   -1.539006
    108          6           0      -10.759707   -1.327107   -3.788590
    109          6           0       -8.482772   -4.152448   -3.525669
    110          6           0       -7.044537   -3.874862   -3.899557
    111          7           0       -6.717255   -1.652461    0.875706
    112          6           0       -7.341492   -2.901905    0.667586
    113          6           0       -7.105947   -3.713491    1.879311
    114          6           0       -6.374887   -2.864994    2.724357
    115          6           0       -6.186699   -1.606042    2.092603
    116          6           0       -7.588100   -5.033972    2.102814
    117          6           0       -5.728740   -2.744445    4.011469
    118          8           0       -5.489049   -3.516602    4.938864
    119          6           0       -5.369769   -1.215404    4.255482
    120          6           0       -3.945925   -1.143371    4.735071
    121          8           0       -3.009745   -1.479040    3.988395
    122          8           0       -3.909337   -0.489009    5.910158
    123          6           0       -2.516690   -0.382305    6.421038
    124          1           0       -6.654425    4.457894    0.469658
    125          1           0       -8.564953    0.806275   -4.223646
    126          1           0       -8.339585   -4.225819   -0.473731
    127          1           0       -5.426959    1.909853    4.516269
    128          1           0       -5.409915    4.069696    2.707443
    129          1           0       -7.613242    2.632306    4.128505
    130          1           0       -8.079609    3.364327    2.579008
    131          1           0       -7.433659    4.399933    3.815910
    132          1           0       -3.441832    2.755131    2.392472
    133          1           0       -3.124224    1.231691    3.299917
    134          1           0       -3.667504    3.288951    5.192021
    135          1           0       -2.857025    4.085269    3.890536
    136          1           0       -6.322066    5.697055   -1.202086
    137          1           0       -7.299527    5.857826   -2.622620
    138          1           0       -5.558276    5.563523   -2.842147
    139          1           0       -7.356543    5.395671   -4.804032
    140          1           0       -6.943771    4.586181   -6.422990
    141          1           0       -5.773110    4.698946   -5.077540
    142          1           0       -8.840574   -1.705436   -4.562691
    143          1           0      -10.028893   -3.323332   -2.365626
    144          1           0      -11.052872   -1.319208   -4.855394
    145          1           0      -11.015883   -0.387752   -3.316863
    146          1           0      -11.424919   -2.027078   -3.285841
    147          1           0       -9.023489   -4.303850   -4.463140
    148          1           0       -8.532171   -5.083740   -2.971374
    149          1           0       -7.137265   -3.287566   -4.818029
    150          1           0       -6.508805   -4.804977   -4.078204
    151          1           0       -6.558537   -3.239734   -3.149846
    152          1           0       -6.771354   -5.594084    2.538359
    153          1           0       -7.937036   -5.491433    1.179370
    154          1           0       -8.409275   -4.827322    2.794359
    155          1           0       -6.071127   -0.828319    4.995641
    156          1           0       -2.511656   -0.812629    7.427253
    157          1           0       -2.245710    0.686253    6.328817
    158          1           0       -1.756214   -0.979576    5.931772
 ---------------------------------------------------------------------

 SCF Done:  E(RCAM-B3LYP) =  -4069.81134885     A.U. after   19 cycles

 Excitation energies and oscillator strengths:

 Excited State   1:      Singlet-A      1.6652 eV  744.57 nm  f=0.0089  <S**2>=0.000
     309 -> 315       -0.11053
     310 -> 316        0.13052
     311 -> 314       -0.44260
     312 -> 313        0.52495
 This state for optimization and/or second-order correction.
 Total Energy, E(TD-HF/TD-DFT) =  -4069.75015439
 Copying the excited state density for this state as the 1-particle RhoCI density.

 Excited State   2:      Singlet-A      1.6893 eV  733.93 nm  f=0.7346  <S**2>=0.000
     309 -> 315        0.13578
     310 -> 316        0.11400
     311 -> 314        0.52372
     312 -> 313        0.44169

 Excited State   3:      Singlet-A      2.1845 eV  567.56 nm  f=0.0493  <S**2>=0.000
     309 -> 314        0.21180
     310 -> 313        0.60718
     312 -> 316       -0.25680

 Excited State   4:      Singlet-A      2.1922 eV  565.57 nm  f=0.1424  <S**2>=0.000
     309 -> 314        0.60486
     310 -> 313       -0.21031
     311 -> 315       -0.26293

 Excited State   5:      Singlet-A      2.7099 eV  457.52 nm  f=0.0000  <S**2>=0.000
     312 -> 314        0.70705

 The electronic state is 1-A.
 Alpha  occ. eigenvalues --  -46.87702 -46.87558 -19.26221 -19.26122 -19.19010
 Alpha  occ. eigenvalues --  -19.18846 -19.18776 -19.18646 -19.18044 -19.17933
 Alpha  occ. eigenvalues --  -14.42398 -14.42356 -14.41367 -14.41261 -14.39315
 Alpha  occ. eigenvalues --  -14.39254 -14.38494 -14.38484 -10.38947 -10.38913
 Alpha  occ. eigenvalues --  -10.35413 -10.35326 -10.34262 -10.34109 -10.31645
 Alpha  occ. eigenvalues --  -10.31514 -10.31300 -10.31202 -10.30927 -10.30818
 Alpha  occ. eigenvalues --  -10.30468 -10.30417 -10.30297 -10.30254 -10.30143
 Alpha  occ. eigenvalues --  -10.30053 -10.29837 -10.29796 -10.29541 -10.29344
 Alpha  occ. eigenvalues --  -10.29302 -10.29173 -10.28642 -10.28617 -10.28548
 Alpha  occ. eigenvalues --  -10.28415 -10.28303 -10.28269 -10.28041 -10.28016
 Alpha  occ. eigenvalues --  -10.27900 -10.27697 -10.27636 -10.27571 -10.27502
 Alpha  occ. eigenvalues --  -10.27463 -10.27435 -10.27421 -10.27411 -10.27390
 Alpha  occ. eigenvalues --  -10.27382 -10.27372 -10.27306 -10.27296 -10.27031
 Alpha  occ. eigenvalues --  -10.26934 -10.26580 -10.26575 -10.26406 -10.26374
 Alpha  occ. eigenvalues --  -10.26173 -10.26144 -10.26052 -10.25938 -10.25938
 Alpha  occ. eigenvalues --  -10.25836 -10.25734 -10.25721 -10.25407 -10.25332
 Alpha  occ. eigenvalues --  -10.24768 -10.24729 -10.24708 -10.24685 -10.24635
 Alpha  occ. eigenvalues --  -10.24594  -3.16445  -3.16308  -1.91326  -1.91190
 Alpha  occ. eigenvalues --   -1.90913  -1.90779  -1.90755  -1.90616  -1.16511
 Alpha  occ. eigenvalues --   -1.16469  -1.08536  -1.08495  -1.07182  -1.06901
 Alpha  occ. eigenvalues --   -1.06799  -1.06471  -1.04486  -1.04395  -1.03676
 Alpha  occ. eigenvalues --   -1.03565  -1.03143  -1.02940  -1.02321  -1.02011
 Alpha  occ. eigenvalues --   -0.91881  -0.91867  -0.89458  -0.89400  -0.89085
 Alpha  occ. eigenvalues --   -0.89050  -0.88229  -0.88131  -0.87764  -0.87686
 Alpha  occ. eigenvalues --   -0.87585  -0.87582  -0.87208  -0.87038  -0.84900
 Alpha  occ. eigenvalues --   -0.84886  -0.83884  -0.83786  -0.82926  -0.82860
 Alpha  occ. eigenvalues --   -0.82560  -0.82560  -0.81488  -0.81467  -0.80499
 Alpha  occ. eigenvalues --   -0.80343  -0.78717  -0.78544  -0.77138  -0.77048
 Alpha  occ. eigenvalues --   -0.76835  -0.76799  -0.75818  -0.75738  -0.74832
 Alpha  occ. eigenvalues --   -0.74714  -0.72684  -0.72599  -0.71586  -0.71486
 Alpha  occ. eigenvalues --   -0.69867  -0.69668  -0.68781  -0.68730  -0.67554
 Alpha  occ. eigenvalues --   -0.67504  -0.67125  -0.67104  -0.65184  -0.65168
 Alpha  occ. eigenvalues --   -0.64758  -0.64670  -0.64552  -0.64528  -0.64202
 Alpha  occ. eigenvalues --   -0.64111  -0.62174  -0.62167  -0.60376  -0.60254
 Alpha  occ. eigenvalues --   -0.59705  -0.59696  -0.58898  -0.58893  -0.58411
 Alpha  occ. eigenvalues --   -0.58324  -0.57461  -0.57436  -0.57226  -0.57142
 Alpha  occ. eigenvalues --   -0.56219  -0.56105  -0.55849  -0.55778  -0.55444
 Alpha  occ. eigenvalues --   -0.55361  -0.55260  -0.55149  -0.54426  -0.54384
 Alpha  occ. eigenvalues --   -0.53810  -0.53792  -0.53225  -0.53136  -0.53132
 Alpha  occ. eigenvalues --   -0.53044  -0.52813  -0.52795  -0.52689  -0.52591
 Alpha  occ. eigenvalues --   -0.52395  -0.52309  -0.51800  -0.51771  -0.51562
 Alpha  occ. eigenvalues --   -0.51520  -0.51099  -0.51097  -0.50529  -0.50404
 Alpha  occ. eigenvalues --   -0.49984  -0.49891  -0.49853  -0.49783  -0.49430
 Alpha  occ. eigenvalues --   -0.49400  -0.49117  -0.49101  -0.49003  -0.48996
 Alpha  occ. eigenvalues --   -0.48487  -0.48452  -0.48405  -0.48359  -0.48287
 Alpha  occ. eigenvalues --   -0.48254  -0.47614  -0.47501  -0.47218  -0.47029
 Alpha  occ. eigenvalues --   -0.46715  -0.46611  -0.46456  -0.46454  -0.46275
 Alpha  occ. eigenvalues --   -0.46174  -0.46066  -0.45984  -0.45713  -0.45703
 Alpha  occ. eigenvalues --   -0.45142  -0.45121  -0.44472  -0.44440  -0.44412
 Alpha  occ. eigenvalues --   -0.44379  -0.44078  -0.44032  -0.43999  -0.43986
 Alpha  occ. eigenvalues --   -0.43920  -0.43848  -0.43447  -0.43380  -0.43303
 Alpha  occ. eigenvalues --   -0.43286  -0.42935  -0.42823  -0.42789  -0.42631
 Alpha  occ. eigenvalues --   -0.42531  -0.42464  -0.41935  -0.41866  -0.41608
 Alpha  occ. eigenvalues --   -0.41565  -0.41439  -0.41361  -0.41055  -0.40894
 Alpha  occ. eigenvalues --   -0.40793  -0.40769  -0.40642  -0.40606  -0.40505
 Alpha  occ. eigenvalues --   -0.40401  -0.40128  -0.40127  -0.39408  -0.39336
 Alpha  occ. eigenvalues --   -0.38409  -0.38261  -0.37642  -0.37551  -0.37252
 Alpha  occ. eigenvalues --   -0.37172  -0.37159  -0.37097  -0.36646  -0.36587
 Alpha  occ. eigenvalues --   -0.36112  -0.36085  -0.34191  -0.34151  -0.33719
 Alpha  occ. eigenvalues --   -0.33611  -0.33089  -0.33073  -0.31306  -0.31204
 Alpha  occ. eigenvalues --   -0.30946  -0.30874  -0.29900  -0.29836  -0.29366
 Alpha  occ. eigenvalues --   -0.29234  -0.29217  -0.29105  -0.23987  -0.23935
 Alpha  occ. eigenvalues --   -0.21038  -0.21018
 Alpha virt. eigenvalues --   -0.08694  -0.08685  -0.01668  -0.01589   0.00017
 Alpha virt. eigenvalues --    0.00059   0.02304   0.02314   0.03251   0.03353
 Alpha virt. eigenvalues --    0.04813   0.04826   0.05256   0.05303   0.06268

 Mulliken charges:
               1
     1  Mg   0.839515
     2  C   -0.002509
     3  C   -0.094049
     4  C   -0.046183
     5  C   -0.063971
     6  N   -0.256702
     7  C   -0.052223
     8  C   -0.014077
     9  C   -0.086992
    10  C    0.046289
    11  C    0.104870
    12  C    0.053473
    13  C   -0.071837
    14  H    0.036552
    15  N   -0.432984
    16  C    0.168247
    17  C   -0.177353
    18  C   -0.004420
    19  C    0.148637
    20  C    0.110237
    21  C    0.011826
    22  O   -0.250450
    23  C    0.062669
    24  N   -0.341104
    25  C    0.041151
    26  C   -0.028006
    27  C   -0.023903
    28  C    0.074925
    29  C    0.076272
    30  C    0.035182
    31  C   -0.004104
    32  N   -0.310756
    33  C    0.081087
    34  C   -0.168844
    35  C    0.008747
    36  C    0.083736
    37  C    0.127100
    38  C    0.046932
    39  O   -0.187660
    40  C   -0.005662
    41  C    0.212823
    42  O   -0.255793
    43  O   -0.305129
    44  C    0.157524
    45  H   -0.017834
    46  H   -0.017522
    47  H   -0.041582
    48  H    0.000957
    49  H   -0.004106
    50  H    0.025438
    51  H    0.016249
    52  H    0.016469
    53  H    0.011220
    54  H    0.044835
    55  H    0.017650
    56  H    0.017733
    57  H    0.005911
    58  H    0.026445
    59  H    0.039076
    60  H    0.037464
    61  H    0.034727
    62  H    0.031178
    63  H    0.015804
    64  H    0.009397
    65  H    0.022634
    66  H    0.012647
    67  H    0.004639
    68  H    0.005575
    69  H    0.004798
    70  H    0.007803
    71  H    0.016809
    72  H    0.030643
    73  H    0.048800
    74  H    0.008935
    75  H    0.045783
    76  H    0.034946
    77  H    0.042827
    78  H    0.046105
    79  H    0.054460
    80  Mg   0.838317
    81  C   -0.016423
    82  C   -0.087697
    83  C   -0.045661
    84  C   -0.064939
    85  N   -0.254520
    86  C   -0.049703
    87  C   -0.015162
    88  C   -0.090537
    89  C    0.045728
    90  C    0.114431
    91  C    0.062402
    92  C   -0.077651
    93  H    0.034589
    94  N   -0.423387
    95  C    0.162792
    96  C   -0.174816
    97  C   -0.008085
    98  C    0.152077
    99  C    0.099449
   100  C    0.015324
   101  O   -0.253549
   102  C    0.061342
   103  N   -0.350107
   104  C    0.037461
   105  C   -0.019716
   106  C   -0.034860
   107  C    0.089120
   108  C    0.073761
   109  C    0.034739
   110  C   -0.007654
   111  N   -0.324283
   112  C    0.078837
   113  C   -0.162640
   114  C    0.002453
   115  C    0.096676
   116  C    0.131330
   117  C    0.043034
   118  O   -0.187381
   119  C    0.000622
   120  C    0.211176
   121  O   -0.249638
   122  O   -0.305926
   123  C    0.151928
   124  H   -0.019858
   125  H   -0.015921
   126  H   -0.040403
   127  H   -0.000806
   128  H   -0.004268
   129  H    0.022336
   130  H    0.014280
   131  H    0.016084
   132  H    0.014225
   133  H    0.038307
   134  H    0.020380
   135  H    0.019850
   136  H    0.008833
   137  H    0.025806
   138  H    0.039422
   139  H    0.038214
   140  H    0.035860
   141  H    0.033595
   142  H    0.014185
   143  H    0.012264
   144  H    0.024827
   145  H    0.011540
   146  H    0.005522
   147  H    0.005915
   148  H    0.003776
   149  H    0.010519
   150  H    0.018189
   151  H    0.030605
   152  H    0.046786
   153  H    0.008531
   154  H    0.046683
   155  H    0.034734
   156  H    0.043555
   157  H    0.048817
   158  H    0.054370
 Sum of Mulliken charges =  -0.00000

 Dipole moment (field-independent basis, Debye):
    X=              1.0100    Y=              6.2609    Z=             -3.4977  Tot=              7.2424
 Quadrupole moment (field-independent basis, Debye-Ang):
   XX=           -474.8362   YY=           -518.2093   ZZ=           -483.8253
   XY=              2.8571   XZ=            -25.7634   YZ=             34.5018

 Normal termination of Gaussian 16 at Sat Sep 11 08:18:56 2021.
