 Gaussian 16, Revision A.03,
 Gaussian 16:  ES64L-G16RevA.03 25-Dec-2016

 -----------------------------------
 #p cam-b3lyp/Def2SVP td=(nstates=5)
 -----------------------------------

 --------------------------------
 TDDFT excited states in gaussian
 --------------------------------
 Symbolic Z-matrix:
 Charge =  0 Multiplicity = 1

                         Standard orientation:
 ---------------------------------------------------------------------
 Center     Atomic      Atomic             Coordinates (Angstroms)
 Number     Number       Type             X           Y           Z
 ---------------------------------------------------------------------
      1         12           0        7.691610    0.662810    0.110178
      2          6           0        8.029739   -2.531992   -1.468151
      3          6           0        8.608610    2.062765   -2.863423
      4          6           0        7.841689    3.459621    1.597439
      5          6           0        7.916802   -0.989837    3.170195
      6          7           0        8.224429   -0.226604   -1.845760
      7          6           0        8.257183   -1.461747   -2.336189
      8          6           0        8.481629   -1.508850   -3.877221
      9          6           0        9.199708   -0.098493   -4.070242
     10          6           0        8.616858    0.636298   -2.875967
     11          6           0       10.715955   -0.160691   -3.916527
     12          6           0        7.134584   -1.579463   -4.672338
     13          6           0        7.267588   -1.955223   -6.151009
     14          1           0        6.231456   -2.774583   -6.761276
     15          7           0        7.678278    2.501023   -0.613455
     16          6           0        8.070708    2.886917   -1.851345
     17          6           0        7.870176    4.351034   -1.904544
     18          6           0        7.508674    4.810852   -0.534881
     19          6           0        7.689691    3.597104    0.219723
     20          6           0        7.976253    5.150739   -3.166673
     21          6           0        7.079852    6.136683    0.009560
     22          8           0        7.039137    6.375503    1.264901
     23          6           0        6.789763    7.190357   -0.979713
     24          7           0        8.075380    1.199131    2.090762
     25          6           0        8.022371    2.476968    2.482307
     26          6           0        8.049675    2.591424    3.977665
     27          6           0        7.887008    1.104985    4.537837
     28          6           0        7.875911    0.344346    3.188921
     29          6           0        9.311365    3.227533    4.577260
     30          6           0        6.729661    0.852580    5.536466
     31          6           0        5.400663    1.007034    4.831479
     32          7           0        7.752897   -1.402701    0.774220
     33          6           0        7.870654   -1.860759    2.094444
     34          6           0        7.978970   -3.330000    2.033894
     35          6           0        7.933066   -3.625235    0.672801
     36          6           0        7.830656   -2.415129   -0.071140
     37          6           0        8.159018   -4.198893    3.146117
     38          6           0        7.971509   -4.679828   -0.327306
     39          8           0        7.956615   -5.911045   -0.290219
     40          6           0        8.158340   -4.006713   -1.758332
     41          6           0        7.153984   -4.630497   -2.688639
     42          8           0        5.930749   -4.441783   -2.529110
     43          8           0        7.792305   -5.149320   -3.748786
     44          6           0        6.850481   -5.758189   -4.725720
     45          1           0        9.110355    2.600609   -3.670218
     46          1           0        7.787244    4.395492    2.157456
     47          1           0        7.904885   -1.578995    4.089001
     48          1           0        9.138007   -2.310347   -4.216624
     49          1           0        8.898878    0.387738   -4.998036
     50          1           0       11.041495   -1.141952   -3.571459
     51          1           0       10.965486    0.603787   -3.180456
     52          1           0       11.211565    0.139517   -4.840118
     53          1           0        6.723226   -0.575059   -4.772429
     54          1           0        6.436131   -2.262845   -4.188108
     55          1           0        8.255151   -2.361283   -6.371791
     56          1           0        7.212272   -1.040990   -6.742042
     57          1           0        8.416354    4.567486   -3.974554
     58          1           0        8.698658    5.945198   -2.980457
     59          1           0        7.019941    5.584593   -3.459194
     60          1           0        7.678296    7.369793   -1.585403
     61          1           0        6.412543    8.040212   -0.411996
     62          1           0        6.020241    6.830617   -1.663359
     63          1           0        7.222593    3.201574    4.338327
     64          1           0        8.776562    0.769344    5.071421
     65          1           0        9.108762    4.100045    5.198854
     66          1           0        9.984074    3.478895    3.757766
     67          1           0        9.929771    2.549760    5.165151
     68          1           0        6.754305    1.588624    6.339322
     69          1           0        6.762875   -0.136928    5.992561
     70          1           0        5.231810    2.082817    4.863287
     71          1           0        4.618782    0.472955    5.372433
     72          1           0        5.470717    0.719072    3.782357
     73          1           0        7.488762   -5.043195    2.985243
     74          1           0        7.938461   -3.691314    4.084904
     75          1           0        9.215944   -4.443717    3.042077
     76          1           0        9.183388   -4.207980   -2.067995
     77          1           0        7.164756   -6.791465   -4.873388
     78          1           0        6.840992   -5.102802   -5.596802
     79          1           0        5.825562   -5.901958   -4.381902
     80         12           0       -8.161227    0.208792   -0.325311
     81          6           0       -6.628053   -1.407525    2.488219
     82          6           0       -7.364658    3.184285    1.139788
     83          6           0       -9.892841    1.656872   -2.555108
     84          6           0       -9.809184   -2.792518   -0.974982
     85          7           0       -7.128740    0.695743    1.569181
     86          6           0       -6.535593   -0.000624    2.527102
     87          6           0       -5.733632    0.856441    3.542908
     88          6           0       -6.510754    2.248395    3.349470
     89          6           0       -7.006800    2.054515    1.918029
     90          6           0       -7.719894    2.393960    4.258385
     91          6           0       -4.219353    0.984897    3.152409
     92          6           0       -3.316402    1.544417    4.253939
     93          1           0       -1.954712    1.029015    4.366465
     94          7           0       -8.160522    2.100708   -0.924653
     95          6           0       -7.783632    3.180916   -0.208838
     96          6           0       -7.989375    4.339983   -1.091096
     97          6           0       -8.673311    3.872806   -2.327505
     98          6           0       -8.960358    2.498892   -1.966873
     99          6           0       -7.480884    5.713510   -0.762014
    100          6           0       -9.023838    4.553948   -3.615674
    101          8           0       -9.829333    4.023948   -4.460141
    102          6           0       -8.469892    5.900833   -3.816971
    103          7           0       -9.795460   -0.399347   -1.457477
    104          6           0      -10.325314    0.406047   -2.394761
    105          6           0      -11.306570   -0.342011   -3.265368
    106          6           0      -11.144224   -1.882961   -2.869507
    107          6           0      -10.115959   -1.743386   -1.725567
    108          6           0      -12.771768    0.068687   -3.120714
    109          6           0      -10.836673   -2.877177   -4.022599
    110          6           0       -9.455870   -2.612152   -4.578051
    111          7           0       -8.091453   -1.804586    0.455387
    112          6           0       -8.886066   -2.901884    0.057141
    113          6           0       -8.554909   -4.027683    0.954554
    114          6           0       -7.599792   -3.496313    1.834267
    115          6           0       -7.367973   -2.129725    1.520903
    116          6           0       -9.148525   -5.320966    0.920611
    117          6           0       -6.742798   -3.777760    2.963446
    118          8           0       -6.449215   -4.788547    3.600515
    119          6           0       -6.168704   -2.402926    3.517193
    120          6           0       -4.687479   -2.566674    3.721316
    121          8           0       -3.932427   -2.752440    2.750753
    122          8           0       -4.381913   -2.261675    4.995667
    123          6           0       -2.922003   -2.398428    5.244212
    124          1           0       -7.365738    4.164286    1.617774
    125          1           0      -10.438199    2.076697   -3.403525
    126          1           0      -10.207814   -3.789520   -1.174374
    127          1           0       -5.808663    0.528714    4.572821
    128          1           0       -5.828600    3.092725    3.405547
    129          1           0       -7.926665    1.484432    4.802567
    130          1           0       -8.548441    2.642498    3.608173
    131          1           0       -7.590452    3.252720    4.923297
    132          1           0       -4.109595    1.776044    2.399558
    133          1           0       -3.832742    0.044276    2.811266
    134          1           0       -3.810545    1.541529    5.233099
    135          1           0       -3.133722    2.602081    4.049036
    136          1           0       -7.164573    5.784946    0.285962
    137          1           0       -8.334157    6.396442   -0.835358
    138          1           0       -6.699804    6.048949   -1.447622
    139          1           0       -8.800765    6.551561   -3.011037
    140          1           0       -8.757119    6.186430   -4.830782
    141          1           0       -7.377854    5.843981   -3.747376
    142          1           0      -11.063614   -0.221070   -4.313903
    143          1           0      -12.062729   -2.286840   -2.418878
    144          1           0      -13.231792    0.388012   -4.074899
    145          1           0      -12.833490    0.859808   -2.385286
    146          1           0      -13.424969   -0.692183   -2.696919
    147          1           0      -11.537119   -2.728185   -4.848022
    148          1           0      -10.906027   -3.918232   -3.725313
    149          1           0       -9.626184   -1.791714   -5.281598
    150          1           0       -9.071481   -3.494327   -5.086027
    151          1           0       -8.781798   -2.241939   -3.796884
    152          1           0       -8.344599   -6.035675    1.036366
    153          1           0       -9.695431   -5.483214   -0.005845
    154          1           0       -9.815340   -5.252224    1.784268
    155          1           0       -6.688696   -2.182904    4.450343
    156          1           0       -2.804512   -3.085882    6.087594
    157          1           0       -2.543913   -1.367496    5.378243
    158          1           0       -2.328340   -2.892738    4.484160
 ---------------------------------------------------------------------

 SCF Done:  E(RCAM-B3LYP) =  -4069.81152976     A.U. after   19 cycles

 Excitation energies and oscillator strengths:

 Excited State   1:      Singlet-A      1.6696 eV  742.59 nm  f=0.0170  <S**2>=0.000
     309 -> 315       -0.10487
     310 -> 316        0.13657
     311 -> 313       -0.41679
     312 -> 314        0.54534
 This state for optimization and/or second-order correction.
 Total Energy, E(TD-HF/TD-DFT) =  -4069.75017228
 Copying the excited state density for this state as the 1-particle RhoCI density.

 Excited State   2:      Singlet-A      1.6855 eV  735.59 nm  f=0.7389  <S**2>=0.000
     309 -> 315        0.14040
     310 -> 316        0.10683
     311 -> 313        0.54448
     312 -> 314        0.41624

 Excited State   3:      Singlet-A      2.1853 eV  567.35 nm  f=0.0728  <S**2>=0.000
     309 -> 313        0.13296
     310 -> 314        0.62883
     312 -> 316       -0.26664

 Excited State   4:      Singlet-A      2.1922 eV  565.57 nm  f=0.1237  <S**2>=0.000
     309 -> 313        0.62691
     310 -> 314       -0.13206
     311 -> 315       -0.27207

 Excited State   5:      Singlet-A      2.7937 eV  443.80 nm  f=0.0000  <S**2>=0.000
     312 -> 313        0.70705

 The electronic state is 1-A.
 Alpha  occ. eigenvalues --  -46.87764 -46.87586 -19.26220 -19.26180 -19.19025
 Alpha  occ. eigenvalues --  -19.18914 -19.18816 -19.18661 -19.18109 -19.17960
 Alpha  occ. eigenvalues --  -14.42423 -14.42415 -14.41424 -14.41288 -14.39373
 Alpha  occ. eigenvalues --  -14.39280 -14.38550 -14.38523 -10.38979 -10.38961
 Alpha  occ. eigenvalues --  -10.35451 -10.35341 -10.34327 -10.34136 -10.31618
 Alpha  occ. eigenvalues --  -10.31562 -10.31361 -10.31229 -10.30948 -10.30872
 Alpha  occ. eigenvalues --  -10.30531 -10.30478 -10.30324 -10.30282 -10.30193
 Alpha  occ. eigenvalues --  -10.30078 -10.29896 -10.29823 -10.29600 -10.29369
 Alpha  occ. eigenvalues --  -10.29328 -10.29230 -10.28693 -10.28631 -10.28543
 Alpha  occ. eigenvalues --  -10.28457 -10.28329 -10.28328 -10.28068 -10.28060
 Alpha  occ. eigenvalues --  -10.27927 -10.27757 -10.27694 -10.27596 -10.27558
 Alpha  occ. eigenvalues --  -10.27507 -10.27465 -10.27460 -10.27454 -10.27410
 Alpha  occ. eigenvalues --  -10.27406 -10.27396 -10.27364 -10.27319 -10.27092
 Alpha  occ. eigenvalues --  -10.26954 -10.26631 -10.26586 -10.26431 -10.26380
 Alpha  occ. eigenvalues --  -10.26213 -10.26190 -10.26081 -10.25995 -10.25955
 Alpha  occ. eigenvalues --  -10.25864 -10.25795 -10.25772 -10.25443 -10.25350
 Alpha  occ. eigenvalues --  -10.24796 -10.24792 -10.24763 -10.24734 -10.24671
 Alpha  occ. eigenvalues --  -10.24619  -3.16507  -3.16336  -1.91388  -1.91218
 Alpha  occ. eigenvalues --   -1.90975  -1.90817  -1.90807  -1.90644  -1.16529
 Alpha  occ. eigenvalues --   -1.16514  -1.08563  -1.08561  -1.07220  -1.06915
 Alpha  occ. eigenvalues --   -1.06813  -1.06538  -1.04544  -1.04419  -1.03733
 Alpha  occ. eigenvalues --   -1.03590  -1.03203  -1.02967  -1.02380  -1.02038
 Alpha  occ. eigenvalues --   -0.91927  -0.91905  -0.89509  -0.89426  -0.89137
 Alpha  occ. eigenvalues --   -0.89068  -0.88279  -0.88156  -0.87829  -0.87716
 Alpha  occ. eigenvalues --   -0.87637  -0.87608  -0.87256  -0.87059  -0.84937
 Alpha  occ. eigenvalues --   -0.84917  -0.83932  -0.83811  -0.82966  -0.82877
 Alpha  occ. eigenvalues --   -0.82609  -0.82575  -0.81523  -0.81500  -0.80553
 Alpha  occ. eigenvalues --   -0.80358  -0.78771  -0.78568  -0.77191  -0.77069
 Alpha  occ. eigenvalues --   -0.76887  -0.76813  -0.75871  -0.75753  -0.74881
 Alpha  occ. eigenvalues --   -0.74735  -0.72743  -0.72626  -0.71639  -0.71507
 Alpha  occ. eigenvalues --   -0.69914  -0.69696  -0.68833  -0.68747  -0.67608
 Alpha  occ. eigenvalues --   -0.67526  -0.67175  -0.67118  -0.65238  -0.65186
 Alpha  occ. eigenvalues --   -0.64814  -0.64692  -0.64581  -0.64568  -0.64254
 Alpha  occ. eigenvalues --   -0.64135  -0.62231  -0.62178  -0.60426  -0.60276
 Alpha  occ. eigenvalues --   -0.59759  -0.59716  -0.58954  -0.58917  -0.58468
 Alpha  occ. eigenvalues --   -0.58346  -0.57522  -0.57456  -0.57279  -0.57165
 Alpha  occ. eigenvalues --   -0.56275  -0.56129  -0.55903  -0.55785  -0.55494
 Alpha  occ. eigenvalues --   -0.55375  -0.55312  -0.55169  -0.54479  -0.54401
 Alpha  occ. eigenvalues --   -0.53844  -0.53827  -0.53275  -0.53183  -0.53157
 Alpha  occ. eigenvalues --   -0.53061  -0.52867  -0.52812  -0.52733  -0.52606
 Alpha  occ. eigenvalues --   -0.52444  -0.52337  -0.51869  -0.51804  -0.51576
 Alpha  occ. eigenvalues --   -0.51571  -0.51156  -0.51119  -0.50569  -0.50421
 Alpha  occ. eigenvalues --   -0.50029  -0.49910  -0.49899  -0.49806  -0.49479
 Alpha  occ. eigenvalues --   -0.49417  -0.49173  -0.49121  -0.49048  -0.49023
 Alpha  occ. eigenvalues --   -0.48543  -0.48471  -0.48450  -0.48411  -0.48309
 Alpha  occ. eigenvalues --   -0.48271  -0.47664  -0.47519  -0.47268  -0.47049
 Alpha  occ. eigenvalues --   -0.46769  -0.46634  -0.46506  -0.46472  -0.46330
 Alpha  occ. eigenvalues --   -0.46197  -0.46124  -0.46006  -0.45764  -0.45732
 Alpha  occ. eigenvalues --   -0.45190  -0.45143  -0.44528  -0.44488  -0.44430
 Alpha  occ. eigenvalues --   -0.44399  -0.44128  -0.44051  -0.44047  -0.44007
 Alpha  occ. eigenvalues --   -0.43976  -0.43865  -0.43457  -0.43437  -0.43354
 Alpha  occ. eigenvalues --   -0.43304  -0.42991  -0.42841  -0.42801  -0.42679
 Alpha  occ. eigenvalues --   -0.42588  -0.42489  -0.41988  -0.41889  -0.41665
 Alpha  occ. eigenvalues --   -0.41588  -0.41489  -0.41378  -0.41107  -0.40916
 Alpha  occ. eigenvalues --   -0.40840  -0.40812  -0.40656  -0.40624  -0.40554
 Alpha  occ. eigenvalues --   -0.40425  -0.40176  -0.40138  -0.39454  -0.39364
 Alpha  occ. eigenvalues --   -0.38457  -0.38284  -0.37693  -0.37562  -0.37303
 Alpha  occ. eigenvalues --   -0.37214  -0.37195  -0.37116  -0.36659  -0.36645
 Alpha  occ. eigenvalues --   -0.36141  -0.36132  -0.34251  -0.34177  -0.33737
 Alpha  occ. eigenvalues --   -0.33678  -0.33149  -0.33099  -0.31345  -0.31220
 Alpha  occ. eigenvalues --   -0.31003  -0.30898  -0.29966  -0.29863  -0.29422
 Alpha  occ. eigenvalues --   -0.29282  -0.29258  -0.29134  -0.24047  -0.23961
 Alpha  occ. eigenvalues --   -0.21097  -0.21044
 Alpha virt. eigenvalues --   -0.08743  -0.08719  -0.01724  -0.01613  -0.00034
 Alpha virt. eigenvalues --    0.00038   0.02242   0.02287   0.03163   0.03314
 Alpha virt. eigenvalues --    0.04759   0.04810   0.05192   0.05288   0.06241

 Mulliken charges:
               1
     1  Mg   0.838978
     2  C   -0.002636
     3  C   -0.093989
     4  C   -0.046165
     5  C   -0.064136
     6  N   -0.256738
     7  C   -0.052302
     8  C   -0.014026
     9  C   -0.087019
    10  C    0.046323
    11  C    0.104836
    12  C    0.053450
    13  C   -0.071953
    14  H    0.036748
    15  N   -0.433078
    16  C    0.168306
    17  C   -0.177220
    18  C   -0.004270
    19  C    0.148666
    20  C    0.110191
    21  C    0.011979
    22  O   -0.250163
    23  C    0.062601
    24  N   -0.341144
    25  C    0.041203
    26  C   -0.028078
    27  C   -0.023965
    28  C    0.074845
    29  C    0.076229
    30  C    0.035229
    31  C   -0.004356
    32  N   -0.310592
    33  C    0.080631
    34  C   -0.169465
    35  C    0.008627
    36  C    0.083281
    37  C    0.127210
    38  C    0.046563
    39  O   -0.187790
    40  C   -0.005494
    41  C    0.212878
    42  O   -0.256281
    43  O   -0.305025
    44  C    0.157470
    45  H   -0.017663
    46  H   -0.017271
    47  H   -0.041590
    48  H    0.001037
    49  H   -0.004003
    50  H    0.025497
    51  H    0.016291
    52  H    0.016615
    53  H    0.011186
    54  H    0.044645
    55  H    0.017740
    56  H    0.017803
    57  H    0.005968
    58  H    0.026628
    59  H    0.039284
    60  H    0.037461
    61  H    0.035062
    62  H    0.031309
    63  H    0.016024
    64  H    0.009505
    65  H    0.022862
    66  H    0.012663
    67  H    0.004734
    68  H    0.005991
    69  H    0.004823
    70  H    0.008247
    71  H    0.017279
    72  H    0.029606
    73  H    0.048190
    74  H    0.008916
    75  H    0.046011
    76  H    0.035109
    77  H    0.042992
    78  H    0.046260
    79  H    0.054428
    80  Mg   0.838056
    81  C   -0.016589
    82  C   -0.087750
    83  C   -0.045622
    84  C   -0.065010
    85  N   -0.254542
    86  C   -0.049728
    87  C   -0.015085
    88  C   -0.090514
    89  C    0.045756
    90  C    0.114427
    91  C    0.062474
    92  C   -0.078011
    93  H    0.035505
    94  N   -0.423434
    95  C    0.162856
    96  C   -0.174759
    97  C   -0.007990
    98  C    0.152083
    99  C    0.099429
   100  C    0.015424
   101  O   -0.253435
   102  C    0.061272
   103  N   -0.350086
   104  C    0.037459
   105  C   -0.019783
   106  C   -0.034796
   107  C    0.089021
   108  C    0.073735
   109  C    0.034746
   110  C   -0.007665
   111  N   -0.324183
   112  C    0.078648
   113  C   -0.162972
   114  C    0.002388
   115  C    0.096415
   116  C    0.131416
   117  C    0.042707
   118  O   -0.187439
   119  C    0.000808
   120  C    0.211252
   121  O   -0.250102
   122  O   -0.305950
   123  C    0.151749
   124  H   -0.019794
   125  H   -0.015811
   126  H   -0.040484
   127  H   -0.000705
   128  H   -0.004271
   129  H    0.022383
   130  H    0.014270
   131  H    0.016151
   132  H    0.013973
   133  H    0.038257
   134  H    0.020423
   135  H    0.019605
   136  H    0.008797
   137  H    0.025906
   138  H    0.039531
   139  H    0.038196
   140  H    0.036066
   141  H    0.033744
   142  H    0.014253
   143  H    0.012310
   144  H    0.024934
   145  H    0.011576
   146  H    0.005557
   147  H    0.006055
   148  H    0.003694
   149  H    0.010735
   150  H    0.018002
   151  H    0.030350
   152  H    0.046425
   153  H    0.008455
   154  H    0.046805
   155  H    0.034833
   156  H    0.043719
   157  H    0.049141
   158  H    0.054740
 Sum of Mulliken charges =  -0.00000

 Dipole moment (field-independent basis, Debye):
    X=              1.5445    Y=              7.1607    Z=             -1.5871  Tot=              7.4953
 Quadrupole moment (field-independent basis, Debye-Ang):
   XX=           -469.9625   YY=           -536.3096   ZZ=           -469.9375
   XY=             13.1445   XZ=            -28.1626   YZ=             16.1489

 Normal termination of Gaussian 16 at Sun Sep 12 00:15:39 2021.
