 Gaussian 16, Revision A.03,
 Gaussian 16:  ES64L-G16RevA.03 25-Dec-2016

 -----------------------------------
 #p cam-b3lyp/Def2SVP td=(nstates=5)
 -----------------------------------

 --------------------------------
 TDDFT excited states in gaussian
 --------------------------------
 Symbolic Z-matrix:
 Charge =  0 Multiplicity = 1

                         Standard orientation:
 ---------------------------------------------------------------------
 Center     Atomic      Atomic             Coordinates (Angstroms)
 Number     Number       Type             X           Y           Z
 ---------------------------------------------------------------------
      1         12           0        5.361613   -0.559024    0.889721
      2          6           0        5.853379    2.368274   -1.110607
      3          6           0        5.753066    1.431422    3.633433
      4          6           0        5.383999   -3.189790    2.660367
      5          6           0        6.135141   -2.442103   -1.938941
      6          7           0        5.747634    1.610135    1.105098
      7          6           0        5.855606    2.631438    0.261029
      8          6           0        5.895538    4.017870    0.970666
      9          6           0        6.426393    3.553571    2.400568
     10          6           0        5.915664    2.123514    2.396662
     11          6           0        7.947737    3.531512    2.507944
     12          6           0        4.477961    4.675154    1.071585
     13          6           0        4.471169    6.158696    1.451598
     14          1           0        3.464601    7.028147    0.861492
     15          7           0        5.059806   -0.802148    2.826897
     16          6           0        5.254842    0.120995    3.799036
     17          6           0        4.890457   -0.541934    5.069638
     18          6           0        4.649420   -1.982494    4.778465
     19          6           0        5.052131   -2.055307    3.397198
     20          6           0        4.754793    0.189329    6.369869
     21          6           0        4.147315   -3.116148    5.615634
     22          8           0        4.233083   -4.333407    5.234192
     23          6           0        3.626073   -2.767100    6.949619
     24          7           0        5.921490   -2.531093    0.495877
     25          6           0        5.776890   -3.487146    1.420019
     26          6           0        5.972436   -4.851858    0.829037
     27          6           0        6.042337   -4.642853   -0.752477
     28          6           0        5.951177   -3.097372   -0.790530
     29          6           0        7.220283   -5.612150    1.298978
     30          6           0        5.049061   -5.461749   -1.614586
     31          6           0        3.635596   -4.989922   -1.356524
     32          7           0        5.728368   -0.152548   -1.210592
     33          6           0        6.054544   -1.085518   -2.205504
     34          6           0        6.314732   -0.325426   -3.441882
     35          6           0        6.136866    1.006761   -3.073797
     36          6           0        5.813397    1.076268   -1.688579
     37          6           0        6.722095   -0.876513   -4.688795
     38          6           0        6.168973    2.389271   -3.522675
     39          8           0        6.293401    2.943400   -4.615814
     40          6           0        6.106365    3.333504   -2.241921
     41          6           0        5.070997    4.392088   -2.507860
     42          8           0        3.862846    4.095087   -2.605462
     43          8           0        5.629085    5.604491   -2.369442
     44          6           0        4.648133    6.700282   -2.591092
     45          1           0        6.091551    1.909934    4.554517
     46          1           0        5.295782   -4.130522    3.207797
     47          1           0        6.299096   -2.967535   -2.881540
     48          1           0        6.589649    4.733967    0.530396
     49          1           0        5.964050    4.118861    3.209523
     50          1           0        8.418008    3.714896    1.541954
     51          1           0        8.199485    2.534799    2.870821
     52          1           0        8.292008    4.225520    3.275151
     53          1           0        3.950165    4.261152    1.930710
     54          1           0        3.922248    4.538230    0.143275
     55          1           0        5.463153    6.600215    1.351920
     56          1           0        4.245037    6.237842    2.514989
     57          1           0        5.154917    1.200347    6.304392
     58          1           0        5.403198   -0.313491    7.087122
     59          1           0        3.728426    0.186485    6.737150
     60          1           0        4.409712   -2.272769    7.524157
     61          1           0        3.229744   -3.691230    7.368853
     62          1           0        2.823396   -2.037985    6.835382
     63          1           0        5.133406   -5.504655    1.066335
     64          1           0        7.021299   -4.901970   -1.156415
     65          1           0        7.000278   -6.584779    1.739769
     66          1           0        7.757229   -4.976435    2.002431
     67          1           0        7.975720   -5.770510    0.529787
     68          1           0        5.090135   -6.515796   -1.342109
     69          1           0        5.245273   -5.387833   -2.684299
     70          1           0        3.355226   -5.540384   -0.459185
     71          1           0        2.988118   -5.252411   -2.193831
     72          1           0        3.609125   -3.928485   -1.109266
     73          1           0        6.133659   -0.369279   -5.453273
     74          1           0        6.562701   -1.954212   -4.716402
     75          1           0        7.779023   -0.610522   -4.691473
     76          1           0        7.102174    3.757319   -2.115952
     77          1           0        5.053295    7.340052   -3.375166
     78          1           0        4.461598    7.151081   -1.616213
     79          1           0        3.694317    6.411150   -3.033785
     80         12           0       -5.066435   -0.732100   -0.862756
     81          6           0       -7.228843    1.540928    0.879768
     82          6           0       -3.914125    1.950785   -2.625972
     83          6           0       -3.482485   -2.758964   -2.720264
     84          6           0       -7.157113   -3.312509    0.193774
     85          7           0       -5.581866    1.417651   -0.790946
     86          6           0       -6.373681    2.174233   -0.045993
     87          6           0       -6.183818    3.701113   -0.251328
     88          6           0       -5.568954    3.669669   -1.734511
     89          6           0       -4.949322    2.273865   -1.712689
     90          6           0       -6.626441    3.705795   -2.825265
     91          6           0       -5.173273    4.321319    0.776371
     92          6           0       -5.173422    5.850458    0.835555
     93          1           0       -4.951060    6.497083    2.125868
     94          7           0       -3.536272   -0.423586   -2.088305
     95          6           0       -3.201793    0.733463   -2.697106
     96          6           0       -2.012024    0.432043   -3.508134
     97          6           0       -1.769316   -1.035355   -3.457571
     98          6           0       -2.958062   -1.475103   -2.755009
     99          6           0       -1.185661    1.497568   -4.167842
    100          6           0       -0.658217   -1.901129   -3.969509
    101          8           0       -0.768783   -3.176963   -4.023073
    102          6           0        0.526630   -1.205824   -4.493116
    103          7           0       -5.399906   -2.714747   -1.392153
    104          6           0       -4.528637   -3.377822   -2.172622
    105          6           0       -4.830071   -4.857403   -2.191848
    106          6           0       -5.942317   -5.083931   -1.065266
    107          6           0       -6.165831   -3.618406   -0.632035
    108          6           0       -5.332707   -5.416671   -3.522620
    109          6           0       -5.629241   -6.139136    0.030706
    110          6           0       -4.486323   -5.660337    0.896673
    111          7           0       -6.758908   -0.916864    0.467458
    112          6           0       -7.501332   -2.085332    0.745984
    113          6           0       -8.625596   -1.689145    1.618611
    114          6           0       -8.471246   -0.302838    1.769688
    115          6           0       -7.342994    0.137261    1.026146
    116          6           0       -9.638981   -2.556660    2.115184
    117          6           0       -9.012418    0.889961    2.380484
    118          8           0       -9.910861    1.121029    3.188657
    119          6           0       -8.306136    2.156206    1.729186
    120          6           0       -7.881832    3.074963    2.841999
    121          8           0       -7.009016    2.722320    3.654670
    122          8           0       -8.414884    4.292945    2.635253
    123          6           0       -8.013600    5.242569    3.707171
    124          1           0       -3.648653    2.682632   -3.389390
    125          1           0       -2.907669   -3.517748   -3.256272
    126          1           0       -7.796439   -4.073896    0.645688
    127          1           0       -7.100612    4.278315   -0.241047
    128          1           0       -4.799069    4.426711   -1.859063
    129          1           0       -7.624813    3.627164   -2.421263
    130          1           0       -6.412131    2.864099   -3.470755
    131          1           0       -6.500171    4.599360   -3.443279
    132          1           0       -4.149377    4.147137    0.421369
    133          1           0       -5.335253    3.921665    1.758546
    134          1           0       -6.048656    6.282241    0.335076
    135          1           0       -4.323887    6.220230    0.256279
    136          1           0       -1.702219    2.465331   -4.167145
    137          1           0       -1.108196    1.231792   -5.227666
    138          1           0       -0.180363    1.571487   -3.747629
    139          1           0        0.229906   -0.550980   -5.308965
    140          1           0        1.246482   -1.992049   -4.728778
    141          1           0        0.931595   -0.562126   -3.704272
    142          1           0       -3.949673   -5.434765   -1.937583
    143          1           0       -6.892645   -5.432923   -1.495280
    144          1           0       -4.709327   -6.243707   -3.911833
    145          1           0       -5.378878   -4.606188   -4.237836
    146          1           0       -6.360342   -5.775944   -3.513931
    147          1           0       -5.300406   -7.075074   -0.427605
    148          1           0       -6.480181   -6.371398    0.662329
    149          1           0       -3.602352   -5.945037    0.318206
    150          1           0       -4.502992   -6.159495    1.863419
    151          1           0       -4.487316   -4.567358    0.980711
    152          1           0       -9.785690   -2.300372    3.155993
    153          1           0       -9.360277   -3.601787    1.997760
    154          1           0      -10.471057   -2.277959    1.463066
    155          1           0       -9.029034    2.627604    1.062268
    156          1           0       -8.935037    5.651372    4.133234
    157          1           0       -7.319502    5.958234    3.227795
    158          1           0       -7.537320    4.830653    4.589170
 ---------------------------------------------------------------------

 SCF Done:  E(RCAM-B3LYP) =  -4069.81305646     A.U. after   18 cycles

 Excitation energies and oscillator strengths:

 Excited State   1:      Singlet-A      1.6549 eV  749.19 nm  f=0.1176  <S**2>=0.000
     309 -> 315        0.11661
     310 -> 316        0.12283
     311 -> 313       -0.47187
     312 -> 314        0.49961
 This state for optimization and/or second-order correction.
 Total Energy, E(TD-HF/TD-DFT) =  -4069.75223964
 Copying the excited state density for this state as the 1-particle RhoCI density.

 Excited State   2:      Singlet-A      1.6978 eV  730.26 nm  f=0.6273  <S**2>=0.000
     309 -> 315       -0.13127
     310 -> 316        0.12305
     311 -> 313        0.49768
     312 -> 314        0.47026

 Excited State   3:      Singlet-A      2.1873 eV  566.85 nm  f=0.0099  <S**2>=0.000
     309 -> 313       -0.35180
     310 -> 314        0.53850
     311 -> 315       -0.14868
     312 -> 316       -0.22880

 Excited State   4:      Singlet-A      2.1963 eV  564.52 nm  f=0.1712  <S**2>=0.000
     309 -> 313        0.53583
     310 -> 314        0.34906
     311 -> 315        0.23523
     312 -> 316       -0.15313

 Excited State   5:      Singlet-A      2.4872 eV  498.49 nm  f=0.0000  <S**2>=0.000
     312 -> 313        0.70693

 The electronic state is 1-A.
 Alpha  occ. eigenvalues --  -46.87867 -46.87442 -19.26561 -19.26251 -19.19327
 Alpha  occ. eigenvalues --  -19.19049 -19.18825 -19.18416 -19.18323 -19.17859
 Alpha  occ. eigenvalues --  -14.42525 -14.42282 -14.41496 -14.41145 -14.39465
 Alpha  occ. eigenvalues --  -14.39120 -14.38680 -14.38383 -10.39364 -10.38973
 Alpha  occ. eigenvalues --  -10.35454 -10.35072 -10.34548 -10.34043 -10.31971
 Alpha  occ. eigenvalues --  -10.31692 -10.31503 -10.31106 -10.30989 -10.30786
 Alpha  occ. eigenvalues --  -10.30659 -10.30577 -10.30215 -10.30188 -10.30135
 Alpha  occ. eigenvalues --  -10.29972 -10.29902 -10.29712 -10.29703 -10.29306
 Alpha  occ. eigenvalues --  -10.29179 -10.29142 -10.28866 -10.28703 -10.28547
 Alpha  occ. eigenvalues --  -10.28538 -10.28455 -10.28215 -10.28167 -10.27946
 Alpha  occ. eigenvalues --  -10.27877 -10.27795 -10.27759 -10.27645 -10.27495
 Alpha  occ. eigenvalues --  -10.27494 -10.27433 -10.27433 -10.27412 -10.27340
 Alpha  occ. eigenvalues --  -10.27329 -10.27271 -10.27212 -10.27188 -10.26881
 Alpha  occ. eigenvalues --  -10.26871 -10.26861 -10.26542 -10.26371 -10.26319
 Alpha  occ. eigenvalues --  -10.26056 -10.26005 -10.25980 -10.25945 -10.25920
 Alpha  occ. eigenvalues --  -10.25842 -10.25715 -10.25674 -10.25408 -10.25255
 Alpha  occ. eigenvalues --  -10.24936 -10.24840 -10.24644 -10.24572 -10.24481
 Alpha  occ. eigenvalues --  -10.24380  -3.16610  -3.16193  -1.91492  -1.91078
 Alpha  occ. eigenvalues --   -1.91075  -1.90920  -1.90664  -1.90500  -1.16911
 Alpha  occ. eigenvalues --   -1.16541  -1.08798  -1.08479  -1.07222  -1.06939
 Alpha  occ. eigenvalues --   -1.06832  -1.06670  -1.04662  -1.04277  -1.03814
 Alpha  occ. eigenvalues --   -1.03444  -1.03303  -1.02819  -1.02479  -1.01890
 Alpha  occ. eigenvalues --   -0.92081  -0.91781  -0.89512  -0.89295  -0.89288
 Alpha  occ. eigenvalues --   -0.88965  -0.88268  -0.88034  -0.87964  -0.87744
 Alpha  occ. eigenvalues --   -0.87585  -0.87466  -0.87309  -0.86753  -0.85076
 Alpha  occ. eigenvalues --   -0.84803  -0.83907  -0.83700  -0.82952  -0.82726
 Alpha  occ. eigenvalues --   -0.82628  -0.82372  -0.81735  -0.81432  -0.80691
 Alpha  occ. eigenvalues --   -0.80235  -0.78851  -0.78329  -0.77267  -0.77024
 Alpha  occ. eigenvalues --   -0.76915  -0.76730  -0.76030  -0.75631  -0.74909
 Alpha  occ. eigenvalues --   -0.74612  -0.72837  -0.72475  -0.71742  -0.71382
 Alpha  occ. eigenvalues --   -0.69813  -0.69578  -0.68957  -0.68616  -0.67720
 Alpha  occ. eigenvalues --   -0.67385  -0.67311  -0.66966  -0.65392  -0.65083
 Alpha  occ. eigenvalues --   -0.64954  -0.64692  -0.64572  -0.64466  -0.64261
 Alpha  occ. eigenvalues --   -0.64014  -0.62455  -0.62123  -0.60471  -0.60038
 Alpha  occ. eigenvalues --   -0.59900  -0.59592  -0.59060  -0.58789  -0.58584
 Alpha  occ. eigenvalues --   -0.58217  -0.57758  -0.57386  -0.57351  -0.57006
 Alpha  occ. eigenvalues --   -0.56403  -0.56153  -0.55968  -0.55713  -0.55586
 Alpha  occ. eigenvalues --   -0.55393  -0.55192  -0.55071  -0.54593  -0.54329
 Alpha  occ. eigenvalues --   -0.54003  -0.53724  -0.53351  -0.53307  -0.53036
 Alpha  occ. eigenvalues --   -0.53011  -0.52900  -0.52798  -0.52707  -0.52323
 Alpha  occ. eigenvalues --   -0.52300  -0.52220  -0.52020  -0.51714  -0.51695
 Alpha  occ. eigenvalues --   -0.51416  -0.51273  -0.51007  -0.50567  -0.50083
 Alpha  occ. eigenvalues --   -0.50020  -0.49925  -0.49686  -0.49632  -0.49593
 Alpha  occ. eigenvalues --   -0.49312  -0.49223  -0.49197  -0.48945  -0.48913
 Alpha  occ. eigenvalues --   -0.48724  -0.48523  -0.48466  -0.48365  -0.48199
 Alpha  occ. eigenvalues --   -0.48031  -0.47750  -0.47353  -0.47346  -0.46844
 Alpha  occ. eigenvalues --   -0.46839  -0.46658  -0.46506  -0.46431  -0.46345
 Alpha  occ. eigenvalues --   -0.46229  -0.46028  -0.45958  -0.45892  -0.45657
 Alpha  occ. eigenvalues --   -0.45195  -0.45019  -0.44699  -0.44540  -0.44327
 Alpha  occ. eigenvalues --   -0.44268  -0.44223  -0.44123  -0.44077  -0.43928
 Alpha  occ. eigenvalues --   -0.43859  -0.43631  -0.43625  -0.43442  -0.43399
 Alpha  occ. eigenvalues --   -0.43188  -0.43102  -0.42913  -0.42779  -0.42700
 Alpha  occ. eigenvalues --   -0.42609  -0.42332  -0.42005  -0.41784  -0.41782
 Alpha  occ. eigenvalues --   -0.41607  -0.41471  -0.41269  -0.41213  -0.40929
 Alpha  occ. eigenvalues --   -0.40849  -0.40789  -0.40545  -0.40525  -0.40432
 Alpha  occ. eigenvalues --   -0.40346  -0.40315  -0.40020  -0.39320  -0.39250
 Alpha  occ. eigenvalues --   -0.38464  -0.38173  -0.37865  -0.37486  -0.37371
 Alpha  occ. eigenvalues --   -0.37330  -0.37071  -0.36988  -0.36919  -0.36645
 Alpha  occ. eigenvalues --   -0.36272  -0.36042  -0.34366  -0.34043  -0.34040
 Alpha  occ. eigenvalues --   -0.33730  -0.33267  -0.32959  -0.31358  -0.31106
 Alpha  occ. eigenvalues --   -0.30985  -0.30755  -0.30189  -0.29772  -0.29522
 Alpha  occ. eigenvalues --   -0.29413  -0.29068  -0.28973  -0.24155  -0.23823
 Alpha  occ. eigenvalues --   -0.21194  -0.20888
 Alpha virt. eigenvalues --   -0.08844  -0.08550  -0.01802  -0.01463  -0.00117
 Alpha virt. eigenvalues --    0.00246   0.02096   0.02413   0.02964   0.03435
 Alpha virt. eigenvalues --    0.04632   0.04839   0.04920   0.05293   0.06039

 Mulliken charges:
               1
     1  Mg   0.838043
     2  C   -0.004231
     3  C   -0.094085
     4  C   -0.045235
     5  C   -0.063359
     6  N   -0.256960
     7  C   -0.052787
     8  C   -0.013998
     9  C   -0.087084
    10  C    0.046495
    11  C    0.104730
    12  C    0.053454
    13  C   -0.071562
    14  H    0.034552
    15  N   -0.433351
    16  C    0.168905
    17  C   -0.176639
    18  C   -0.003352
    19  C    0.149040
    20  C    0.110009
    21  C    0.012919
    22  O   -0.248919
    23  C    0.062138
    24  N   -0.341366
    25  C    0.041823
    26  C   -0.028247
    27  C   -0.023897
    28  C    0.075236
    29  C    0.076143
    30  C    0.034744
    31  C   -0.005669
    32  N   -0.309813
    33  C    0.078981
    34  C   -0.171231
    35  C    0.007241
    36  C    0.080928
    37  C    0.127639
    38  C    0.044002
    39  O   -0.189800
    40  C   -0.004649
    41  C    0.213390
    42  O   -0.260878
    43  O   -0.303890
    44  C    0.158188
    45  H   -0.017275
    46  H   -0.016104
    47  H   -0.040846
    48  H    0.000723
    49  H   -0.003758
    50  H    0.025427
    51  H    0.016793
    52  H    0.016940
    53  H    0.011864
    54  H    0.042265
    55  H    0.018217
    56  H    0.018773
    57  H    0.005950
    58  H    0.027202
    59  H    0.040869
    60  H    0.037268
    61  H    0.036334
    62  H    0.032542
    63  H    0.017519
    64  H    0.009160
    65  H    0.023531
    66  H    0.012152
    67  H    0.004873
    68  H    0.006298
    69  H    0.004828
    70  H    0.008132
    71  H    0.026345
    72  H    0.026796
    73  H    0.045790
    74  H    0.010085
    75  H    0.046245
    76  H    0.035567
    77  H    0.043279
    78  H    0.047021
    79  H    0.051464
    80  Mg   0.837001
    81  C   -0.017017
    82  C   -0.086335
    83  C   -0.045776
    84  C   -0.065043
    85  N   -0.254467
    86  C   -0.050642
    87  C   -0.015040
    88  C   -0.090549
    89  C    0.045443
    90  C    0.114375
    91  C    0.062331
    92  C   -0.077352
    93  H    0.033026
    94  N   -0.423721
    95  C    0.162800
    96  C   -0.173129
    97  C   -0.007836
    98  C    0.152152
    99  C    0.097516
   100  C    0.014741
   101  O   -0.255741
   102  C    0.060997
   103  N   -0.350048
   104  C    0.037884
   105  C   -0.019798
   106  C   -0.034478
   107  C    0.088389
   108  C    0.073874
   109  C    0.034887
   110  C   -0.007470
   111  N   -0.323816
   112  C    0.077599
   113  C   -0.163901
   114  C    0.001840
   115  C    0.095554
   116  C    0.131667
   117  C    0.041718
   118  O   -0.189234
   119  C    0.001099
   120  C    0.211167
   121  O   -0.251643
   122  O   -0.305512
   123  C    0.152337
   124  H   -0.018634
   125  H   -0.016140
   126  H   -0.041205
   127  H   -0.001211
   128  H   -0.003744
   129  H    0.022069
   130  H    0.014628
   131  H    0.016233
   132  H    0.014687
   133  H    0.036977
   134  H    0.020640
   135  H    0.019891
   136  H    0.008903
   137  H    0.026079
   138  H    0.051891
   139  H    0.039970
   140  H    0.033494
   141  H    0.040761
   142  H    0.013937
   143  H    0.011901
   144  H    0.024492
   145  H    0.011771
   146  H    0.005375
   147  H    0.005632
   148  H    0.003275
   149  H    0.010767
   150  H    0.017683
   151  H    0.030294
   152  H    0.045177
   153  H    0.008021
   154  H    0.046337
   155  H    0.034626
   156  H    0.043494
   157  H    0.049322
   158  H    0.052884
 Sum of Mulliken charges =  -0.00000

 Dipole moment (field-independent basis, Debye):
    X=              3.3469    Y=              3.0404    Z=              0.7570  Tot=              4.5846
 Quadrupole moment (field-independent basis, Debye-Ang):
   XX=           -530.4301   YY=           -463.7592   ZZ=           -520.6216
   XY=              7.6614   XZ=             52.8386   YZ=             20.0297

 Normal termination of Gaussian 16 at Fri Sep 10 11:05:36 2021.
