 Gaussian 16, Revision A.03,
 Gaussian 16:  ES64L-G16RevA.03 25-Dec-2016

 -----------------------------------
 #p cam-b3lyp/Def2SVP td=(nstates=5)
 -----------------------------------

 --------------------------------
 TDDFT excited states in gaussian
 --------------------------------
 Symbolic Z-matrix:
 Charge =  0 Multiplicity = 1

                         Standard orientation:
 ---------------------------------------------------------------------
 Center     Atomic      Atomic             Coordinates (Angstroms)
 Number     Number       Type             X           Y           Z
 ---------------------------------------------------------------------
      1         12           0       -7.601345   -1.062006    0.465697
      2          6           0       -7.998617    2.458015   -0.047954
      3          6           0       -8.587824   -1.494992   -2.771964
      4          6           0       -7.696730   -4.181855    1.026113
      5          6           0       -7.755817   -0.430303    3.889547
      6          7           0       -8.190101    0.377038   -1.110109
      7          6           0       -8.242625    1.702505   -1.197000
      8          6           0       -8.507526    2.216802   -2.643617
      9          6           0       -9.222436    0.924069   -3.243403
     10          6           0       -8.604443   -0.133623   -2.346019
     11          6           0      -10.734476    0.915842   -3.042974
     12          6           0       -7.182137    2.545817   -3.409662
     13          6           0       -7.355853    3.355016   -4.698217
     14          1           0       -6.340659    4.335812   -5.051443
     15          7           0       -7.596558   -2.589478   -0.787162
     16          6           0       -8.019019   -2.582474   -2.074316
     17          6           0       -7.811690   -3.956947   -2.578816
     18          6           0       -7.411932   -4.809669   -1.425060
     19          6           0       -7.580013   -3.888269   -0.330460
     20          6           0       -7.946199   -4.332522   -4.022630
     21          6           0       -6.961559   -6.232707   -1.323769
     22          8           0       -6.886707   -6.844339   -0.203555
     23          6           0       -6.691481   -6.928349   -2.595060
     24          7           0       -7.930198   -2.184821    2.194505
     25          6           0       -7.859769   -3.520333    2.173742
     26          6           0       -7.847342   -4.088099    3.562060
     27          6           0       -7.678479   -2.842955    4.547380
     28          6           0       -7.706926   -1.705301    3.497045
     29          6           0       -9.089325   -4.894234    3.966580
     30          6           0       -6.496875   -2.893412    5.548221
     31          6           0       -5.185902   -2.806480    4.799294
     32          7           0       -7.656908    0.699424    1.732709
     33          6           0       -7.742708    0.729030    3.132151
     34          6           0       -7.860855    2.144489    3.527859
     35          6           0       -7.852200    2.843395    2.322330
     36          6           0       -7.762441    1.921140    1.240812
     37          6           0       -8.016676    2.628043    4.856892
     38          6           0       -7.922711    4.153212    1.695222
     39          8           0       -7.913799    5.313848    2.107944
     40          6           0       -8.143073    3.948822    0.131415
     41          6           0       -7.166904    4.841176   -0.585597
     42          8           0       -5.938873    4.629031   -0.520019
     43          8           0       -7.835626    5.651454   -1.420344
     44          6           0       -6.923102    6.543072   -2.184851
     45          1           0       -9.107438   -1.766241   -3.693032
     46          1           0       -7.622393   -5.243536    1.270542
     47          1           0       -7.723218   -0.151116    4.944272
     48          1           0       -9.177059    3.074898   -2.705438
     49          1           0       -8.943216    0.749783   -4.282336
     50          1           0      -11.056418    1.739600   -2.406031
     51          1           0      -10.960371   -0.040762   -2.571410
     52          1           0      -11.252350    0.906654   -4.002400
     53          1           0       -6.767876    1.626072   -3.822601
     54          1           0       -6.475135    3.057109   -2.755403
     55          1           0       -8.351122    3.795955   -4.760840
     56          1           0       -7.310845    2.666847   -5.542371
     57          1           0       -8.410543   -3.535611   -4.602168
     58          1           0       -8.658999   -5.155407   -4.072500
     59          1           0       -6.995425   -4.642956   -4.456210
     60          1           0       -7.594512   -6.925318   -3.205858
     61          1           0       -6.294767   -7.906205   -2.324382
     62          1           0       -5.942128   -6.366066   -3.152964
     63          1           0       -7.007689   -4.768314    3.698869
     64          1           0       -8.555665   -2.699011    5.178647
     65          1           0       -8.865630   -5.912509    4.285610
     66          1           0       -9.781790   -4.891219    3.125287
     67          1           0       -9.695971   -4.437687    4.748222
     68          1           0       -6.496378   -3.840420    6.086851
     69          1           0       -6.523740   -2.091933    6.286571
     70          1           0       -5.010211   -3.837845    4.495564
     71          1           0       -4.393177   -2.453560    5.459782
     72          1           0       -5.284970   -2.211697    3.891051
     73          1           0       -7.355626    3.489898    4.947373
     74          1           0       -7.768803    1.860082    5.589283
     75          1           0       -9.077324    2.878805    4.857478
     76          1           0       -9.176982    4.221598   -0.077747
     77          1           0       -7.246951    7.567556   -2.001037
     78          1           0       -6.932682    6.186506   -3.214984
     79          1           0       -5.890376    6.588209   -1.837319
     80         12           0        8.242349   -0.277476   -0.184713
     81          6           0        6.283560    2.726701   -0.053889
     82          6           0        6.012268   -1.453739   -2.482047
     83          6           0        9.682003   -3.098345    0.008984
     84          6           0        9.614490    0.648936    2.881992
     85          7           0        6.424110    0.614905   -1.073490
     86          6           0        5.811737    1.786636   -0.993619
     87          6           0        4.676658    1.991289   -2.032508
     88          6           0        4.327630    0.449306   -2.314216
     89          6           0        5.679168   -0.173841   -1.971134
     90          6           0        3.285948   -0.115481   -1.362774
     91          6           0        5.178780    2.713252   -3.331984
     92          6           0        4.069012    3.221268   -4.255063
     93          1           0        4.284029    4.470641   -4.979857
     94          7           0        8.206972   -1.825317   -1.426290
     95          6           0        7.234378   -2.139532   -2.307531
     96          6           0        7.673711   -3.379265   -2.966485
     97          6           0        8.906531   -3.860706   -2.285993
     98          6           0        8.969306   -2.937917   -1.170369
     99          6           0        6.987433   -3.945352   -4.175618
    100          6           0        9.862704   -4.976149   -2.582194
    101          8           0       10.732412   -5.363256   -1.723949
    102          6           0        9.689398   -5.663525   -3.870208
    103          7           0        9.311743   -1.213437    1.332750
    104          6           0        9.877478   -2.417652    1.138485
    105          6           0       10.820563   -2.765477    2.265429
    106          6           0       10.955119   -1.433154    3.139720
    107          6           0        9.953026   -0.532641    2.384558
    108          6           0       10.384652   -3.922110    3.164633
    109          6           0       12.391296   -0.895540    3.386756
    110          6           0       12.989969   -0.406710    2.087508
    111          7           0        8.153661    1.458852    1.098003
    112          6           0        8.784395    1.627436    2.350138
    113          6           0        8.334773    2.925806    2.892816
    114          6           0        7.448764    3.415838    1.921554
    115          6           0        7.337417    2.479114    0.858703
    116          6           0        8.707933    3.475376    4.151717
    117          6           0        6.574189    4.507711    1.558741
    118          8           0        6.328827    5.617521    2.029764
    119          6           0        5.683583    4.052734    0.323333
    120          6           0        5.714760    5.152909   -0.701924
    121          8           0        6.774661    5.445598   -1.282896
    122          8           0        4.453832    5.528367   -0.983827
    123          6           0        4.432165    6.610088   -2.004231
    124          1           0        5.251570   -2.005827   -3.034690
    125          1           0       10.284491   -4.007199    0.075891
    126          1           0       10.072070    1.054101    3.787058
    127          1           0        3.802337    2.507325   -1.654317
    128          1           0        4.086171    0.283845   -3.360959
    129          1           0        3.038036    0.582102   -0.576615
    130          1           0        3.723368   -1.013895   -0.947342
    131          1           0        2.402826   -0.440283   -1.920386
    132          1           0        5.649424    1.974197   -3.993077
    133          1           0        5.842790    3.519454   -3.087549
    134          1           0        3.091006    3.228353   -3.758687
    135          1           0        3.947807    2.510264   -5.075922
    136          1           0        6.014886   -3.467577   -4.346699
    137          1           0        6.741258   -4.987497   -3.944953
    138          1           0        7.616906   -3.920027   -5.067684
    139          1           0        8.686187   -6.079409   -3.925485
    140          1           0       10.519989   -6.368675   -3.939211
    141          1           0        9.768275   -4.923960   -4.674849
    142          1           0       11.797391   -3.034982    1.882974
    143          1           0       10.552633   -1.569207    4.154282
    144          1           0       11.128428   -4.739591    3.215621
    145          1           0        9.434469   -4.294398    2.805362
    146          1           0       10.151282   -3.646088    4.191546
    147          1           0       13.040031   -1.698810    3.744593
    148          1           0       12.433390   -0.096882    4.119810
    149          1           0       13.372512   -1.324657    1.631279
    150          1           0       13.792254    0.303142    2.278535
    151          1           0       12.215282   -0.006476    1.423191
    152          1           0        8.918530    4.523222    3.983883
    153          1           0        9.568197    2.958497    4.571902
    154          1           0        7.795970    3.287351    4.724645
    155          1           0        4.675249    3.869204    0.696355
    156          1           0        3.869727    7.444302   -1.573605
    157          1           0        4.022985    6.147068   -2.921798
    158          1           0        5.373014    7.091120   -2.244749
 ---------------------------------------------------------------------

 SCF Done:  E(RCAM-B3LYP) =  -4069.81168663     A.U. after   19 cycles

 Excitation energies and oscillator strengths:

 Excited State   1:      Singlet-A      1.6694 eV  742.71 nm  f=0.0133  <S**2>=0.000
     309 -> 315        0.10608
     310 -> 316        0.13570
     311 -> 313        0.42099
     312 -> 314        0.54213
 This state for optimization and/or second-order correction.
 Total Energy, E(TD-HF/TD-DFT) =  -4069.75033895
 Copying the excited state density for this state as the 1-particle RhoCI density.

 Excited State   2:      Singlet-A      1.6854 eV  735.62 nm  f=0.7413  <S**2>=0.000
     309 -> 315        0.13981
     310 -> 316       -0.10788
     311 -> 313        0.54125
     312 -> 314       -0.42041

 Excited State   3:      Singlet-A      2.1853 eV  567.34 nm  f=0.0768  <S**2>=0.000
     309 -> 313       -0.10997
     310 -> 314        0.63323
     312 -> 316       -0.26849

 Excited State   4:      Singlet-A      2.1927 eV  565.44 nm  f=0.1204  <S**2>=0.000
     309 -> 313        0.63127
     310 -> 314        0.10915
     311 -> 315       -0.27435

 Excited State   5:      Singlet-A      2.7359 eV  453.17 nm  f=0.0000  <S**2>=0.000
     312 -> 313        0.70702

 The electronic state is 1-A.
 Alpha  occ. eigenvalues --  -46.87904 -46.87574 -19.26375 -19.26201 -19.19116
 Alpha  occ. eigenvalues --  -19.19032 -19.18931 -19.18648 -19.18255 -19.17941
 Alpha  occ. eigenvalues --  -14.42557 -14.42408 -14.41552 -14.41275 -14.39511
 Alpha  occ. eigenvalues --  -14.39268 -14.38690 -14.38511 -10.39175 -10.38959
 Alpha  occ. eigenvalues --  -10.35565 -10.35327 -10.34476 -10.34115 -10.31767
 Alpha  occ. eigenvalues --  -10.31603 -10.31507 -10.31212 -10.31021 -10.30930
 Alpha  occ. eigenvalues --  -10.30671 -10.30609 -10.30312 -10.30311 -10.30271
 Alpha  occ. eigenvalues --  -10.30065 -10.30016 -10.29810 -10.29733 -10.29361
 Alpha  occ. eigenvalues --  -10.29357 -10.29317 -10.28864 -10.28674 -10.28602
 Alpha  occ. eigenvalues --  -10.28550 -10.28471 -10.28314 -10.28225 -10.28028
 Alpha  occ. eigenvalues --  -10.27914 -10.27892 -10.27833 -10.27691 -10.27604
 Alpha  occ. eigenvalues --  -10.27589 -10.27582 -10.27538 -10.27507 -10.27450
 Alpha  occ. eigenvalues --  -10.27409 -10.27390 -10.27385 -10.27307 -10.27251
 Alpha  occ. eigenvalues --  -10.26924 -10.26841 -10.26590 -10.26543 -10.26367
 Alpha  occ. eigenvalues --  -10.26330 -10.26266 -10.26118 -10.26078 -10.25911
 Alpha  occ. eigenvalues --  -10.25887 -10.25853 -10.25762 -10.25515 -10.25334
 Alpha  occ. eigenvalues --  -10.24930 -10.24890 -10.24782 -10.24777 -10.24674
 Alpha  occ. eigenvalues --  -10.24606  -3.16648  -3.16324  -1.91529  -1.91207
 Alpha  occ. eigenvalues --   -1.91116  -1.90958  -1.90795  -1.90632  -1.16725
 Alpha  occ. eigenvalues --   -1.16500  -1.08712  -1.08543  -1.07333  -1.06902
 Alpha  occ. eigenvalues --   -1.06814  -1.06737  -1.04688  -1.04403  -1.03864
 Alpha  occ. eigenvalues --   -1.03577  -1.03337  -1.02955  -1.02514  -1.02025
 Alpha  occ. eigenvalues --   -0.92072  -0.91888  -0.89615  -0.89415  -0.89299
 Alpha  occ. eigenvalues --   -0.89043  -0.88381  -0.88145  -0.87961  -0.87780
 Alpha  occ. eigenvalues --   -0.87705  -0.87595  -0.87387  -0.87049  -0.85093
 Alpha  occ. eigenvalues --   -0.84901  -0.84027  -0.83800  -0.83081  -0.82866
 Alpha  occ. eigenvalues --   -0.82757  -0.82558  -0.81682  -0.81484  -0.80699
 Alpha  occ. eigenvalues --   -0.80343  -0.78904  -0.78557  -0.77320  -0.77055
 Alpha  occ. eigenvalues --   -0.77037  -0.76797  -0.76023  -0.75730  -0.74990
 Alpha  occ. eigenvalues --   -0.74720  -0.72873  -0.72612  -0.71771  -0.71487
 Alpha  occ. eigenvalues --   -0.69998  -0.69687  -0.68982  -0.68731  -0.67744
 Alpha  occ. eigenvalues --   -0.67513  -0.67340  -0.67110  -0.65395  -0.65168
 Alpha  occ. eigenvalues --   -0.64953  -0.64722  -0.64678  -0.64552  -0.64365
 Alpha  occ. eigenvalues --   -0.64123  -0.62392  -0.62163  -0.60550  -0.60265
 Alpha  occ. eigenvalues --   -0.59912  -0.59694  -0.59087  -0.58902  -0.58603
 Alpha  occ. eigenvalues --   -0.58332  -0.57679  -0.57439  -0.57407  -0.57152
 Alpha  occ. eigenvalues --   -0.56410  -0.56116  -0.56077  -0.55770  -0.55626
 Alpha  occ. eigenvalues --   -0.55430  -0.55360  -0.55156  -0.54615  -0.54389
 Alpha  occ. eigenvalues --   -0.54007  -0.53807  -0.53403  -0.53331  -0.53143
 Alpha  occ. eigenvalues --   -0.53046  -0.53015  -0.52872  -0.52802  -0.52591
 Alpha  occ. eigenvalues --   -0.52528  -0.52331  -0.51997  -0.51794  -0.51730
 Alpha  occ. eigenvalues --   -0.51563  -0.51292  -0.51104  -0.50694  -0.50412
 Alpha  occ. eigenvalues --   -0.50128  -0.50029  -0.49894  -0.49793  -0.49624
 Alpha  occ. eigenvalues --   -0.49401  -0.49315  -0.49198  -0.49105  -0.48998
 Alpha  occ. eigenvalues --   -0.48688  -0.48565  -0.48543  -0.48454  -0.48297
 Alpha  occ. eigenvalues --   -0.48257  -0.47800  -0.47504  -0.47399  -0.47037
 Alpha  occ. eigenvalues --   -0.46896  -0.46667  -0.46622  -0.46458  -0.46456
 Alpha  occ. eigenvalues --   -0.46255  -0.46187  -0.45994  -0.45911  -0.45715
 Alpha  occ. eigenvalues --   -0.45295  -0.45130  -0.44672  -0.44616  -0.44414
 Alpha  occ. eigenvalues --   -0.44383  -0.44245  -0.44195  -0.44119  -0.44029
 Alpha  occ. eigenvalues --   -0.43998  -0.43850  -0.43589  -0.43490  -0.43444
 Alpha  occ. eigenvalues --   -0.43289  -0.43125  -0.42825  -0.42793  -0.42786
 Alpha  occ. eigenvalues --   -0.42747  -0.42480  -0.42107  -0.41880  -0.41802
 Alpha  occ. eigenvalues --   -0.41644  -0.41570  -0.41365  -0.41242  -0.40978
 Alpha  occ. eigenvalues --   -0.40940  -0.40894  -0.40666  -0.40644  -0.40610
 Alpha  occ. eigenvalues --   -0.40411  -0.40360  -0.40128  -0.39533  -0.39357
 Alpha  occ. eigenvalues --   -0.38566  -0.38272  -0.37867  -0.37557  -0.37418
 Alpha  occ. eigenvalues --   -0.37376  -0.37184  -0.37104  -0.36807  -0.36650
 Alpha  occ. eigenvalues --   -0.36290  -0.36122  -0.34389  -0.34164  -0.33868
 Alpha  occ. eigenvalues --   -0.33741  -0.33289  -0.33087  -0.31460  -0.31206
 Alpha  occ. eigenvalues --   -0.31139  -0.30884  -0.30114  -0.29842  -0.29557
 Alpha  occ. eigenvalues --   -0.29420  -0.29246  -0.29122  -0.24184  -0.23947
 Alpha  occ. eigenvalues --   -0.21231  -0.21031
 Alpha virt. eigenvalues --   -0.08878  -0.08706  -0.01855  -0.01600  -0.00168
 Alpha virt. eigenvalues --    0.00053   0.02106   0.02303   0.02981   0.03303
 Alpha virt. eigenvalues --    0.04608   0.04823   0.05003   0.05294   0.06057

 Mulliken charges:
               1
     1  Mg   0.838094
     2  C   -0.003149
     3  C   -0.094409
     4  C   -0.045911
     5  C   -0.063819
     6  N   -0.256768
     7  C   -0.052529
     8  C   -0.013939
     9  C   -0.086923
    10  C    0.046103
    11  C    0.104779
    12  C    0.053577
    13  C   -0.071687
    14  H    0.035728
    15  N   -0.433130
    16  C    0.168126
    17  C   -0.177415
    18  C   -0.004182
    19  C    0.148536
    20  C    0.110199
    21  C    0.012000
    22  O   -0.249537
    23  C    0.062652
    24  N   -0.341089
    25  C    0.041201
    26  C   -0.028177
    27  C   -0.024041
    28  C    0.074839
    29  C    0.076094
    30  C    0.035081
    31  C   -0.004536
    32  N   -0.310562
    33  C    0.080462
    34  C   -0.169390
    35  C    0.008567
    36  C    0.082989
    37  C    0.127229
    38  C    0.046326
    39  O   -0.187799
    40  C   -0.005409
    41  C    0.213065
    42  O   -0.257355
    43  O   -0.304707
    44  C    0.157592
    45  H   -0.017590
    46  H   -0.016774
    47  H   -0.041114
    48  H    0.001193
    49  H   -0.004253
    50  H    0.025643
    51  H    0.016564
    52  H    0.016749
    53  H    0.010589
    54  H    0.043873
    55  H    0.018303
    56  H    0.017747
    57  H    0.005840
    58  H    0.026997
    59  H    0.038843
    60  H    0.037558
    61  H    0.035613
    62  H    0.030760
    63  H    0.016495
    64  H    0.009722
    65  H    0.023318
    66  H    0.012584
    67  H    0.004964
    68  H    0.006580
    69  H    0.005066
    70  H    0.008629
    71  H    0.018435
    72  H    0.028628
    73  H    0.048079
    74  H    0.009347
    75  H    0.046239
    76  H    0.035368
    77  H    0.043384
    78  H    0.046162
    79  H    0.053682
    80  Mg   0.837711
    81  C   -0.016793
    82  C   -0.087801
    83  C   -0.045607
    84  C   -0.065002
    85  N   -0.254584
    86  C   -0.049639
    87  C   -0.015231
    88  C   -0.090514
    89  C    0.045781
    90  C    0.114408
    91  C    0.062537
    92  C   -0.077828
    93  H    0.034427
    94  N   -0.423444
    95  C    0.162841
    96  C   -0.174754
    97  C   -0.007977
    98  C    0.152080
    99  C    0.099471
   100  C    0.015451
   101  O   -0.253370
   102  C    0.061250
   103  N   -0.350053
   104  C    0.037461
   105  C   -0.019774
   106  C   -0.034806
   107  C    0.088973
   108  C    0.073708
   109  C    0.034768
   110  C   -0.007645
   111  N   -0.324166
   112  C    0.078561
   113  C   -0.163170
   114  C    0.002492
   115  C    0.096128
   116  C    0.131479
   117  C    0.042501
   118  O   -0.187298
   119  C    0.000902
   120  C    0.211205
   121  O   -0.251464
   122  O   -0.304984
   123  C    0.152187
   124  H   -0.019896
   125  H   -0.015786
   126  H   -0.040553
   127  H    0.000603
   128  H   -0.004783
   129  H    0.023569
   130  H    0.014147
   131  H    0.016300
   132  H    0.013492
   133  H    0.037615
   134  H    0.021836
   135  H    0.018958
   136  H    0.008506
   137  H    0.025903
   138  H    0.039436
   139  H    0.038122
   140  H    0.036167
   141  H    0.033748
   142  H    0.014231
   143  H    0.012376
   144  H    0.024939
   145  H    0.011687
   146  H    0.005590
   147  H    0.006104
   148  H    0.003621
   149  H    0.010834
   150  H    0.017811
   151  H    0.030194
   152  H    0.046034
   153  H    0.008316
   154  H    0.047231
   155  H    0.036247
   156  H    0.044552
   157  H    0.049352
   158  H    0.053084
 Sum of Mulliken charges =  -0.00000

 Dipole moment (field-independent basis, Debye):
    X=             -4.6944    Y=             -5.0359    Z=             -5.4499  Tot=              8.7806
 Quadrupole moment (field-independent basis, Debye-Ang):
   XX=           -509.5000   YY=           -566.9483   ZZ=           -448.9975
   XY=             -2.3071   XZ=             36.4336   YZ=            -16.3453

 Normal termination of Gaussian 16 at Sun Sep 12 04:28:37 2021.
