 Gaussian 16, Revision A.03,
 Gaussian 16:  ES64L-G16RevA.03 25-Dec-2016

 -----------------------------------
 #p cam-b3lyp/Def2SVP td=(nstates=5)
 -----------------------------------

 --------------------------------
 TDDFT excited states in gaussian
 --------------------------------
 Symbolic Z-matrix:
 Charge =  0 Multiplicity = 1

                         Standard orientation:
 ---------------------------------------------------------------------
 Center     Atomic      Atomic             Coordinates (Angstroms)
 Number     Number       Type             X           Y           Z
 ---------------------------------------------------------------------
      1         12           0       16.036317   -0.646099    0.474581
      2          6           0       16.290657    2.298587   -1.544415
      3          6           0       16.837639    1.304311    3.157275
      4          6           0       16.263721   -3.298741    2.197486
      5          6           0       16.378320   -2.504624   -2.453657
      6          7           0       16.482756    1.514520    0.656413
      7          6           0       16.488151    2.544610   -0.183859
      8          6           0       16.648448    3.921402    0.527565
      9          6           0       17.365990    3.431871    1.864536
     10          6           0       16.837204    2.009359    1.917138
     11          6           0       18.886914    3.386909    1.758368
     12          6           0       15.269313    4.597414    0.832071
     13          6           0       15.338946    6.076062    1.224635
     14          1           0       14.273810    6.966970    0.789761
     15          7           0       16.003604   -0.908999    2.432300
     16          6           0       16.346743   -0.000878    3.377212
     17          6           0       16.152560   -0.674328    4.679302
     18          6           0       15.850604   -2.107592    4.409727
     19          6           0       16.055707   -2.168921    2.985104
     20          6           0       16.210960    0.042554    5.993235
     21          6           0       15.452237   -3.244339    5.296994
     22          8           0       15.464800   -4.457852    4.894749
     23          6           0       15.127544   -2.904557    6.694193
     24          7           0       16.504669   -2.620858   -0.013897
     25          6           0       16.475195   -3.586186    0.911445
     26          6           0       16.564926   -4.946076    0.284880
     27          6           0       16.417049   -4.718427   -1.288671
     28          6           0       16.345868   -3.171455   -1.297650
     29          6           0       17.853934   -5.729773    0.568235
     30          6           0       15.300536   -5.512369   -2.012185
     31          6           0       13.944444   -5.023794   -1.554574
     32          7           0       16.113181   -0.218770   -1.652042
     33          6           0       16.282775   -1.143822   -2.692326
     34          6           0       16.380092   -0.372175   -3.944986
     35          6           0       16.276292    0.957718   -3.541929
     36          6           0       16.150148    1.014568   -2.124485
     37          6           0       16.600978   -0.913429   -5.242170
     38          6           0       16.267341    2.345111   -3.976576
     39          8           0       16.246952    2.910975   -5.070594
     40          6           0       16.398721    3.274132   -2.689919
     41          6           0       15.353226    4.350516   -2.797840
     42          8           0       14.138728    4.071913   -2.728989
     43          8           0       15.944213    5.553068   -2.726111
     44          6           0       14.959355    6.665331   -2.797386
     45          1           0       17.308681    1.766481    4.027022
     46          1           0       16.237819   -4.244864    2.742112
     47          1           0       16.401014   -3.020563   -3.415294
     48          1           0       17.285645    4.633007    0.002186
     49          1           0       17.029862    3.993553    2.735887
     50          1           0       19.220819    3.575609    0.738162
     51          1           0       19.171018    2.382290    2.072244
     52          1           0       19.345642    4.066369    2.477172
     53          1           0       14.859921    4.180282    1.752103
     54          1           0       14.587571    4.479942   -0.010992
     55          1           0       16.314202    6.504676    0.992098
     56          1           0       15.264482    6.145171    2.309936
     57          1           0       16.613955    1.048533    5.883031
     58          1           0       16.944974   -0.478292    6.607768
     59          1           0       15.245872    0.049695    6.500075
     60          1           0       15.991299   -2.428572    7.158858
     61          1           0       14.778973   -3.828117    7.155044
     62          1           0       14.328383   -2.162769    6.700609
     63          1           0       15.756958   -5.589813    0.630157
     64          1           0       17.325960   -4.986353   -1.827902
     65          1           0       17.682184   -6.704592    1.025329
     66          1           0       18.493628   -5.110535    1.196428
     67          1           0       18.492220   -5.889247   -0.300428
     68          1           0       15.362545   -6.570200   -1.759019
     69          1           0       15.346910   -5.427941   -3.097990
     70          1           0       13.783205   -5.581344   -0.632635
     71          1           0       13.182544   -5.266639   -2.296022
     72          1           0       13.969434   -3.965246   -1.295078
     73          1           0       15.919829   -0.388432   -5.911785
     74          1           0       16.422311   -1.988332   -5.258411
     75          1           0       17.651284   -0.662439   -5.389536
     76          1           0       17.408928    3.682184   -2.699743
     77          1           0       15.261345    7.308996   -3.623662
     78          1           0       14.917624    7.106568   -1.801407
     79          1           0       13.948715    6.395281   -3.105637
     80         12           0      -15.696062   -0.669432   -0.376210
     81          6           0      -17.983807    1.715538    1.022790
     82          6           0      -14.093027    1.956330   -1.849396
     83          6           0      -13.941873   -2.769818   -1.982017
     84          6           0      -18.092754   -3.122867    0.242049
     85          7           0      -16.083022    1.508036   -0.342131
     86          6           0      -16.943904    2.304366    0.273570
     87          6           0      -16.627855    3.818335    0.141004
     88          6           0      -15.768448    3.766772   -1.214596
     89          6           0      -15.248941    2.333636   -1.120292
     90          6           0      -16.616728    3.885696   -2.469835
     91          6           0      -15.774467    4.358192    1.341948
     92          6           0      -15.690884    5.883218    1.437234
     93          1           0      -15.656097    6.496969    2.761831
     94          7           0      -13.960693   -0.444409   -1.312384
     95          6           0      -13.455323    0.696516   -1.826363
     96          6           0      -12.163853    0.329475   -2.427646
     97          6           0      -12.024224   -1.151091   -2.371621
     98          6           0      -13.341455   -1.522238   -1.894925
     99          6           0      -11.171788    1.347904   -2.909339
    100          6           0      -10.896580   -2.080133   -2.705561
    101          8           0      -11.074404   -3.345305   -2.808223
    102          6           0       -9.598479   -1.456096   -3.000508
    103          7           0      -16.053994   -2.619161   -1.002930
    104          6           0      -15.103109   -3.326857   -1.637681
    105          6           0      -15.487013   -4.783447   -1.744301
    106          6           0      -16.789408   -4.952380   -0.831717
    107          6           0      -16.994092   -3.481330   -0.408039
    108          6           0      -15.784898   -5.291350   -3.154858
    109          6           0      -16.736394   -6.040048    0.275920
    110          6           0      -15.733550   -5.647715    1.336938
    111          7           0      -17.601504   -0.761843    0.638094
    112          6           0      -18.451344   -1.883393    0.756347
    113          6           0      -19.683277   -1.426843    1.431869
    114          6           0      -19.472533   -0.055552    1.640767
    115          6           0      -18.207638    0.320390    1.113322
    116          6           0      -20.818745   -2.233445    1.725523
    117          6           0      -20.036982    1.161583    2.178041
    118          8           0      -21.045930    1.439603    2.824934
    119          6           0      -19.152082    2.387964    1.688829
    120          6           0      -18.871322    3.262538    2.879960
    121          8           0      -18.175853    2.843431    3.821908
    122          8           0      -19.284628    4.515092    2.614138
    123          6           0      -19.017516    5.422503    3.761780
    124          1           0      -13.654840    2.679495   -2.537806
    125          1           0      -13.330624   -3.557060   -2.429348
    126          1           0      -18.846265   -3.847189    0.558664
    127          1           0      -17.495330    4.453476    0.007363
    128          1           0      -14.943575    4.473994   -1.186465
    129          1           0      -17.672911    3.866505   -2.245647
    130          1           0      -16.345973    3.040493   -3.089006
    131          1           0      -16.330623    4.777302   -3.035082
    132          1           0      -14.717214    4.122813    1.164297
    133          1           0      -16.128411    3.956901    2.271642
    134          1           0      -16.437956    6.377317    0.804231
    135          1           0      -14.732741    6.204861    1.021889
    136          1           0      -11.620186    2.346979   -2.974095
    137          1           0      -10.928361    1.091718   -3.946147
    138          1           0      -10.251880    1.351043   -2.320759
    139          1           0       -9.708550   -0.772690   -3.839149
    140          1           0       -8.898388   -2.284075   -3.127765
    141          1           0       -9.297518   -0.850450   -2.138407
    142          1           0      -14.701149   -5.419885   -1.356412
    143          1           0      -17.670495   -5.233432   -1.427151
    144          1           0      -15.155553   -6.151785   -3.450920
    145          1           0      -15.656571   -4.470205   -3.847520
    146          1           0      -16.818622   -5.583454   -3.331807
    147          1           0      -16.391289   -6.989156   -0.141518
    148          1           0      -17.696537   -6.225087    0.745890
    149          1           0      -14.781921   -5.981355    0.912470
    150          1           0      -15.948093   -6.157488    2.274029
    151          1           0      -15.681907   -4.558176    1.445995
    152          1           0      -21.127520   -1.981978    2.731471
    153          1           0      -20.588687   -3.292780    1.632533
    154          1           0      -21.506536   -1.892876    0.946911
    155          1           0      -19.718149    2.913937    0.919089
    156          1           0      -19.971940    5.884411    4.032728
    157          1           0      -18.208204    6.098013    3.426456
    158          1           0      -18.727476    4.968995    4.702346
 ---------------------------------------------------------------------

 SCF Done:  E(RCAM-B3LYP) =  -4069.81179332     A.U. after   19 cycles

 Excitation energies and oscillator strengths:

 Excited State   1:      Singlet-A      1.6755 eV  739.97 nm  f=0.3335  <S**2>=0.000
     310 -> 316        0.17143
     311 -> 314        0.10896
     312 -> 313        0.67734
     310 <- 316        0.10334
 This state for optimization and/or second-order correction.
 Total Energy, E(TD-HF/TD-DFT) =  -4069.75021867
 Copying the excited state density for this state as the 1-particle RhoCI density.

 Excited State   2:      Singlet-A      1.6800 eV  738.01 nm  f=0.4472  <S**2>=0.000
     309 -> 315        0.17337
     311 -> 314        0.67699
     312 -> 313       -0.10894
     309 <- 315        0.10382

 Excited State   3:      Singlet-A      2.1863 eV  567.11 nm  f=0.0954  <S**2>=0.000
     310 -> 313        0.64210
     312 -> 316       -0.27306

 Excited State   4:      Singlet-A      2.1926 eV  565.47 nm  f=0.1047  <S**2>=0.000
     309 -> 314        0.64034
     311 -> 315       -0.27819

 Excited State   5:      Singlet-A      3.0673 eV  404.21 nm  f=0.0000  <S**2>=0.000
     311 -> 313        0.70709

 The electronic state is 1-A.
 Alpha  occ. eigenvalues --  -46.87798 -46.87659 -19.26353 -19.26293 -19.19164
 Alpha  occ. eigenvalues --  -19.19028 -19.18813 -19.18706 -19.18173 -19.18052
 Alpha  occ. eigenvalues --  -14.42497 -14.42451 -14.41450 -14.41359 -14.39404
 Alpha  occ. eigenvalues --  -14.39350 -14.38599 -14.38588 -10.39093 -10.39087
 Alpha  occ. eigenvalues --  -10.35446 -10.35383 -10.34394 -10.34230 -10.31761
 Alpha  occ. eigenvalues --  -10.31690 -10.31407 -10.31309 -10.31021 -10.30910
 Alpha  occ. eigenvalues --  -10.30572 -10.30509 -10.30397 -10.30360 -10.30207
 Alpha  occ. eigenvalues --  -10.30139 -10.29922 -10.29895 -10.29632 -10.29434
 Alpha  occ. eigenvalues --  -10.29399 -10.29255 -10.28752 -10.28719 -10.28654
 Alpha  occ. eigenvalues --  -10.28545 -10.28403 -10.28366 -10.28140 -10.28119
 Alpha  occ. eigenvalues --  -10.28000 -10.27794 -10.27728 -10.27668 -10.27585
 Alpha  occ. eigenvalues --  -10.27518 -10.27500 -10.27483 -10.27480 -10.27463
 Alpha  occ. eigenvalues --  -10.27456 -10.27448 -10.27405 -10.27375 -10.27163
 Alpha  occ. eigenvalues --  -10.27052 -10.26710 -10.26693 -10.26405 -10.26400
 Alpha  occ. eigenvalues --  -10.26236 -10.26182 -10.26138 -10.26025 -10.26020
 Alpha  occ. eigenvalues --  -10.25934 -10.25854 -10.25847 -10.25433 -10.25397
 Alpha  occ. eigenvalues --  -10.24872 -10.24835 -10.24788 -10.24731 -10.24689
 Alpha  occ. eigenvalues --  -10.24685  -3.16540  -3.16409  -1.91422  -1.91292
 Alpha  occ. eigenvalues --   -1.91009  -1.90880  -1.90851  -1.90717  -1.16647
 Alpha  occ. eigenvalues --   -1.16641  -1.08660  -1.08632  -1.07214  -1.06958
 Alpha  occ. eigenvalues --   -1.06948  -1.06650  -1.04582  -1.04494  -1.03761
 Alpha  occ. eigenvalues --   -1.03662  -1.03235  -1.03038  -1.02412  -1.02110
 Alpha  occ. eigenvalues --   -0.91987  -0.91974  -0.89520  -0.89494  -0.89191
 Alpha  occ. eigenvalues --   -0.89151  -0.88287  -0.88220  -0.87872  -0.87794
 Alpha  occ. eigenvalues --   -0.87683  -0.87674  -0.87273  -0.87114  -0.84999
 Alpha  occ. eigenvalues --   -0.84984  -0.83936  -0.83876  -0.82965  -0.82925
 Alpha  occ. eigenvalues --   -0.82651  -0.82650  -0.81597  -0.81590  -0.80599
 Alpha  occ. eigenvalues --   -0.80442  -0.78797  -0.78632  -0.77220  -0.77143
 Alpha  occ. eigenvalues --   -0.76937  -0.76899  -0.75926  -0.75838  -0.74899
 Alpha  occ. eigenvalues --   -0.74802  -0.72776  -0.72698  -0.71674  -0.71580
 Alpha  occ. eigenvalues --   -0.69906  -0.69757  -0.68875  -0.68826  -0.67643
 Alpha  occ. eigenvalues --   -0.67600  -0.67222  -0.67197  -0.65289  -0.65271
 Alpha  occ. eigenvalues --   -0.64856  -0.64770  -0.64654  -0.64623  -0.64270
 Alpha  occ. eigenvalues --   -0.64204  -0.62303  -0.62280  -0.60442  -0.60335
 Alpha  occ. eigenvalues --   -0.59806  -0.59796  -0.58992  -0.58989  -0.58505
 Alpha  occ. eigenvalues --   -0.58425  -0.57589  -0.57556  -0.57310  -0.57235
 Alpha  occ. eigenvalues --   -0.56311  -0.56203  -0.55984  -0.55887  -0.55521
 Alpha  occ. eigenvalues --   -0.55449  -0.55341  -0.55248  -0.54527  -0.54489
 Alpha  occ. eigenvalues --   -0.53912  -0.53898  -0.53300  -0.53226  -0.53224
 Alpha  occ. eigenvalues --   -0.53140  -0.52918  -0.52902  -0.52756  -0.52661
 Alpha  occ. eigenvalues --   -0.52438  -0.52401  -0.51918  -0.51887  -0.51656
 Alpha  occ. eigenvalues --   -0.51619  -0.51201  -0.51198  -0.50570  -0.50467
 Alpha  occ. eigenvalues --   -0.50031  -0.49977  -0.49918  -0.49865  -0.49516
 Alpha  occ. eigenvalues --   -0.49484  -0.49217  -0.49201  -0.49104  -0.49099
 Alpha  occ. eigenvalues --   -0.48596  -0.48558  -0.48461  -0.48446  -0.48376
 Alpha  occ. eigenvalues --   -0.48333  -0.47696  -0.47592  -0.47298  -0.47115
 Alpha  occ. eigenvalues --   -0.46798  -0.46709  -0.46558  -0.46552  -0.46360
 Alpha  occ. eigenvalues --   -0.46269  -0.46165  -0.46086  -0.45826  -0.45824
 Alpha  occ. eigenvalues --   -0.45208  -0.45201  -0.44581  -0.44514  -0.44507
 Alpha  occ. eigenvalues --   -0.44475  -0.44145  -0.44126  -0.44090  -0.44076
 Alpha  occ. eigenvalues --   -0.44021  -0.43935  -0.43554  -0.43499  -0.43387
 Alpha  occ. eigenvalues --   -0.43385  -0.43029  -0.42931  -0.42902  -0.42704
 Alpha  occ. eigenvalues --   -0.42657  -0.42552  -0.42011  -0.41964  -0.41706
 Alpha  occ. eigenvalues --   -0.41669  -0.41536  -0.41458  -0.41142  -0.40989
 Alpha  occ. eigenvalues --   -0.40871  -0.40822  -0.40719  -0.40695  -0.40572
 Alpha  occ. eigenvalues --   -0.40493  -0.40237  -0.40225  -0.39440  -0.39425
 Alpha  occ. eigenvalues --   -0.38469  -0.38350  -0.37752  -0.37653  -0.37321
 Alpha  occ. eigenvalues --   -0.37266  -0.37265  -0.37198  -0.36773  -0.36719
 Alpha  occ. eigenvalues --   -0.36218  -0.36196  -0.34287  -0.34253  -0.33864
 Alpha  occ. eigenvalues --   -0.33777  -0.33188  -0.33175  -0.31343  -0.31266
 Alpha  occ. eigenvalues --   -0.31037  -0.30972  -0.30033  -0.29957  -0.29450
 Alpha  occ. eigenvalues --   -0.29324  -0.29323  -0.29211  -0.24082  -0.24035
 Alpha  occ. eigenvalues --   -0.21129  -0.21116
 Alpha virt. eigenvalues --   -0.08790  -0.08775  -0.01750  -0.01682  -0.00058
 Alpha virt. eigenvalues --   -0.00025   0.02198   0.02207   0.03119   0.03229
 Alpha virt. eigenvalues --    0.04716   0.04730   0.05091   0.05163   0.06172

 Mulliken charges:
               1
     1  Mg   0.838650
     2  C   -0.003002
     3  C   -0.094112
     4  C   -0.045839
     5  C   -0.063944
     6  N   -0.256784
     7  C   -0.052455
     8  C   -0.014024
     9  C   -0.086976
    10  C    0.046311
    11  C    0.104805
    12  C    0.053460
    13  C   -0.071784
    14  H    0.036048
    15  N   -0.433125
    16  C    0.168434
    17  C   -0.177143
    18  C   -0.003970
    19  C    0.148723
    20  C    0.110181
    21  C    0.012314
    22  O   -0.249580
    23  C    0.062460
    24  N   -0.341116
    25  C    0.041243
    26  C   -0.028189
    27  C   -0.023980
    28  C    0.074845
    29  C    0.076172
    30  C    0.035125
    31  C   -0.004510
    32  N   -0.310442
    33  C    0.080367
    34  C   -0.169733
    35  C    0.008340
    36  C    0.082962
    37  C    0.127320
    38  C    0.046090
    39  O   -0.188519
    40  C   -0.005318
    41  C    0.212874
    42  O   -0.257141
    43  O   -0.304788
    44  C    0.157723
    45  H   -0.017585
    46  H   -0.016798
    47  H   -0.041499
    48  H    0.000915
    49  H   -0.004027
    50  H    0.025465
    51  H    0.016466
    52  H    0.016667
    53  H    0.011222
    54  H    0.044087
    55  H    0.017874
    56  H    0.017975
    57  H    0.005875
    58  H    0.026858
    59  H    0.039594
    60  H    0.037356
    61  H    0.035716
    62  H    0.031522
    63  H    0.016592
    64  H    0.009459
    65  H    0.023248
    66  H    0.012546
    67  H    0.004755
    68  H    0.006397
    69  H    0.004714
    70  H    0.008820
    71  H    0.018145
    72  H    0.028960
    73  H    0.047516
    74  H    0.009115
    75  H    0.045998
    76  H    0.035143
    77  H    0.042907
    78  H    0.046408
    79  H    0.053624
    80  Mg   0.837913
    81  C   -0.016829
    82  C   -0.087776
    83  C   -0.045493
    84  C   -0.064875
    85  N   -0.254568
    86  C   -0.049890
    87  C   -0.015100
    88  C   -0.090500
    89  C    0.045761
    90  C    0.114368
    91  C    0.062526
    92  C   -0.077902
    93  H    0.034869
    94  N   -0.423539
    95  C    0.162926
    96  C   -0.174573
    97  C   -0.007758
    98  C    0.152119
    99  C    0.099345
   100  C    0.015605
   101  O   -0.253132
   102  C    0.061181
   103  N   -0.350070
   104  C    0.037523
   105  C   -0.019857
   106  C   -0.034781
   107  C    0.088876
   108  C    0.073651
   109  C    0.034735
   110  C   -0.007691
   111  N   -0.324101
   112  C    0.078414
   113  C   -0.163171
   114  C    0.002222
   115  C    0.096183
   116  C    0.131493
   117  C    0.042348
   118  O   -0.187945
   119  C    0.000913
   120  C    0.211263
   121  O   -0.251021
   122  O   -0.305634
   123  C    0.152034
   124  H   -0.019597
   125  H   -0.015519
   126  H   -0.040491
   127  H   -0.000666
   128  H   -0.004281
   129  H    0.022435
   130  H    0.014440
   131  H    0.016321
   132  H    0.013945
   133  H    0.037661
   134  H    0.020780
   135  H    0.019633
   136  H    0.008789
   137  H    0.026252
   138  H    0.039910
   139  H    0.038326
   140  H    0.036532
   141  H    0.033934
   142  H    0.014433
   143  H    0.012393
   144  H    0.025185
   145  H    0.011655
   146  H    0.005655
   147  H    0.006272
   148  H    0.003620
   149  H    0.010970
   150  H    0.017915
   151  H    0.030104
   152  H    0.045972
   153  H    0.008494
   154  H    0.046904
   155  H    0.035004
   156  H    0.043886
   157  H    0.049505
   158  H    0.053565
 Sum of Mulliken charges =  -0.00000

 Dipole moment (field-independent basis, Debye):
    X=              4.2294    Y=              3.0550    Z=              0.9251  Tot=              5.2987
 Quadrupole moment (field-independent basis, Debye-Ang):
   XX=           -537.1368   YY=           -466.1309   ZZ=           -524.3612
   XY=              5.4593   XZ=            125.5403   YZ=             24.7313

 Normal termination of Gaussian 16 at Sun Sep 12 10:13:32 2021.
