 Gaussian 16, Revision A.03,
 Gaussian 16:  ES64L-G16RevA.03 25-Dec-2016

 -----------------------------------
 #p cam-b3lyp/Def2SVP td=(nstates=5)
 -----------------------------------

 --------------------------------
 TDDFT excited states in gaussian
 --------------------------------
 Symbolic Z-matrix:
 Charge =  0 Multiplicity = 1

                         Standard orientation:
 ---------------------------------------------------------------------
 Center     Atomic      Atomic             Coordinates (Angstroms)
 Number     Number       Type             X           Y           Z
 ---------------------------------------------------------------------
      1         12           0        5.082757   -1.183676    0.220795
      2          6           0        5.901343    1.781782   -1.609012
      3          6           0        6.402464    0.332416    2.978132
      4          6           0        4.786349   -3.947044    1.748067
      5          6           0        4.887603   -2.840393   -2.839084
      6          7           0        6.003106    0.807236    0.520592
      7          6           0        6.202660    1.873134   -0.248310
      8          6           0        6.691954    3.122861    0.542984
      9          6           0        7.336306    2.387132    1.802154
     10          6           0        6.508416    1.114197    1.789593
     11          6           0        8.804086    2.020377    1.608211
     12          6           0        5.509896    4.057409    0.968530
     13          6           0        5.920625    5.450590    1.454022
     14          1           0        5.062488    6.582908    1.139690
     15          7           0        5.071052   -1.583435    2.155454
     16          6           0        5.644149   -0.847536    3.137949
     17          6           0        5.358033   -1.560974    4.401209
     18          6           0        4.735893   -2.868900    4.054270
     19          6           0        4.865167   -2.863281    2.619475
     20          6           0        5.626135   -0.977614    5.754561
     21          6           0        4.131712   -3.956620    4.884908
     22          8           0        3.859351   -5.108993    4.402797
     23          6           0        3.946424   -3.663160    6.317595
     24          7           0        5.082627   -3.169297   -0.423366
     25          6           0        4.877345   -4.173507    0.435939
     26          6           0        4.638812   -5.467787   -0.283699
     27          6           0        4.482125   -5.092648   -1.827872
     28          6           0        4.754695   -3.571336   -1.729973
     29          6           0        5.732747   -6.532851   -0.125721
     30          6           0        3.189580   -5.566131   -2.538900
     31          6           0        1.994630   -4.830784   -1.974581
     32          7           0        5.167106   -0.620513   -1.873668
     33          6           0        5.086049   -1.477181   -2.981019
     34          6           0        5.301486   -0.650923   -4.183080
     35          6           0        5.510729    0.634486   -3.687312
     36          6           0        5.457114    0.607869   -2.264389
     37          6           0        5.345048   -1.125518   -5.523713
     38          6           0        5.791593    2.019838   -4.027565
     39          8           0        5.853153    2.659269   -5.078674
     40          6           0        6.176654    2.795810   -2.691367
     41          6           0        5.391777    4.079074   -2.668753
     42          8           0        4.149489    4.067170   -2.550663
     43          8           0        6.236581    5.114859   -2.550440
     44          6           0        5.520193    6.416997   -2.492329
     45          1           0        6.998509    0.612379    3.848932
     46          1           0        4.573562   -4.903963    2.229175
     47          1           0        4.757077   -3.273096   -3.832656
     48          1           0        7.449262    3.717004    0.031218
     49          1           0        7.167933    2.939564    2.726379
     50          1           0        9.130370    2.209997    0.585712
     51          1           0        8.871190    0.956845    1.838190
     52          1           0        9.430171    2.526081    2.343778
     53          1           0        5.055507    3.669707    1.880275
     54          1           0        4.785884    4.156642    0.159033
     55          1           0        6.956440    5.673179    1.196240
     56          1           0        5.906789    5.450282    2.543980
     57          1           0        6.236988   -0.078104    5.689090
     58          1           0        6.250701   -1.691641    6.291024
     59          1           0        4.707623   -0.799622    6.314012
     60          1           0        4.911974   -3.424011    6.763770
     61          1           0        3.420871   -4.521396    6.734819
     62          1           0        3.332115   -2.767908    6.418070
     63          1           0        3.722915   -5.944809    0.062724
     64          1           0        5.286901   -5.509637   -2.433785
     65          1           0        5.367995   -7.479173    0.274446
     66          1           0        6.518213   -6.118154    0.505437
     67          1           0        6.284642   -6.759964   -1.037450
     68          1           0        3.026073   -6.628386   -2.360500
     69          1           0        3.209998   -5.410284   -3.617578
     70          1           0        1.751046   -5.409293   -1.084173
     71          1           0        1.168838   -4.843919   -2.686695
     72          1           0        2.263582   -3.826345   -1.647085
     73          1           0        4.770709   -0.414714   -6.117734
     74          1           0        4.932470   -2.131178   -5.601355
     75          1           0        6.418097   -1.098664   -5.712660
     76          1           0        7.250886    2.973593   -2.730605
     77          1           0        5.923806    7.041257   -3.289594
     78          1           0        5.617016    6.778515   -1.468447
     79          1           0        4.463346    6.398127   -2.760762
     80         12           0       -5.246649    1.135333    0.520849
     81          6           0       -5.796589   -2.050349   -1.037381
     82          6           0       -4.183336    2.269232   -2.515297
     83          6           0       -4.329084    3.813538    1.953565
     84          6           0       -5.252656   -0.519700    3.587865
     85          7           0       -5.060668    0.142747   -1.447004
     86          6           0       -5.357712   -1.053032   -1.933025
     87          6           0       -5.250740   -1.164241   -3.477611
     88          6           0       -4.210851    0.032458   -3.733416
     89          6           0       -4.522379    0.892596   -2.510390
     90          6           0       -2.757849   -0.405160   -3.652006
     91          6           0       -6.621617   -0.896618   -4.192526
     92          6           0       -6.663515   -1.289823   -5.670823
     93          1           0       -7.908861   -1.825607   -6.213512
     94          7           0       -4.850739    2.926406   -0.236672
     95          6           0       -4.453101    3.207854   -1.495226
     96          6           0       -4.275357    4.667366   -1.544097
     97          6           0       -4.441231    5.206480   -0.166943
     98          6           0       -4.528087    3.973780    0.590023
     99          6           0       -4.057161    5.418051   -2.825609
    100          6           0       -4.497841    6.600707    0.379977
    101          8           0       -4.408724    6.835068    1.636943
    102          6           0       -4.566718    7.689318   -0.605760
    103          7           0       -4.637375    1.557969    2.463145
    104          6           0       -4.344254    2.815678    2.837518
    105          6           0       -4.200174    2.918878    4.337180
    106          6           0       -4.697822    1.512881    4.914351
    107          6           0       -4.971355    0.776074    3.584807
    108          6           0       -2.790497    3.209681    4.851596
    109          6           0       -5.823453    1.549909    5.984051
    110          6           0       -7.111657    2.037522    5.361037
    111          7           0       -5.660911   -0.872019    1.204214
    112          6           0       -5.578771   -1.356358    2.528128
    113          6           0       -5.840526   -2.809397    2.477169
    114          6           0       -6.035620   -3.075731    1.113532
    115          6           0       -5.884730   -1.877155    0.365113
    116          6           0       -5.826908   -3.696659    3.590133
    117          6           0       -6.324391   -4.100191    0.135894
    118          8           0       -6.632819   -5.290036    0.189656
    119          6           0       -6.057554   -3.505071   -1.313597
    120          6           0       -7.234998   -3.853000   -2.182542
    121          8           0       -8.358540   -3.375490   -1.945389
    122          8           0       -6.799565   -4.513668   -3.270798
    123          6           0       -7.929898   -4.870731   -4.168941
    124          1           0       -3.619602    2.661703   -3.362090
    125          1           0       -4.119172    4.729753    2.510311
    126          1           0       -5.368972   -1.089630    4.512155
    127          1           0       -4.838136   -2.098833   -3.838271
    128          1           0       -4.445451    0.570858   -4.647989
    129          1           0       -2.663156   -1.427607   -3.317683
    130          1           0       -2.286815    0.268269   -2.947974
    131          1           0       -2.259006   -0.236201   -4.610614
    132          1           0       -6.773346    0.186772   -4.281893
    133          1           0       -7.424897   -1.376511   -3.668046
    134          1           0       -5.816217   -1.926960   -5.952058
    135          1           0       -6.532349   -0.387926   -6.273651
    136          1           0       -3.815644    4.739589   -3.653117
    137          1           0       -3.150914    6.019065   -2.693810
    138          1           0       -4.888721    6.081806   -3.071778
    139          1           0       -3.700710    7.638132   -1.261418
    140          1           0       -4.690436    8.604038   -0.022796
    141          1           0       -5.448903    7.534459   -1.236935
    142          1           0       -4.831678    3.704675    4.733190
    143          1           0       -3.884502    0.966932    5.414636
    144          1           0       -2.733861    4.119037    5.479234
    145          1           0       -2.127136    3.292822    4.000968
    146          1           0       -2.332539    2.404728    5.423897
    147          1           0       -5.571853    2.261745    6.774076
    148          1           0       -5.999607    0.590585    6.459083
    149          1           0       -7.001490    3.125792    5.386190
    150          1           0       -7.968104    1.713814    5.949035
    151          1           0       -7.178352    1.737189    4.308900
    152          1           0       -6.684753   -4.346738    3.480573
    153          1           0       -5.856696   -3.153194    4.532233
    154          1           0       -4.865373   -4.192514    3.432518
    155          1           0       -5.131226   -3.946315   -1.683462
    156          1           0       -7.886473   -5.953461   -4.322175
    157          1           0       -7.814411   -4.230352   -5.063552
    158          1           0       -8.934903   -4.752141   -3.781175
 ---------------------------------------------------------------------

 SCF Done:  E(RCAM-B3LYP) =  -4069.81212672     A.U. after   19 cycles

 Excitation energies and oscillator strengths:

 Excited State   1:      Singlet-A      1.6649 eV  744.67 nm  f=0.1665  <S**2>=0.000
     309 -> 315        0.11133
     310 -> 316        0.12969
     311 -> 313        0.44443
     312 -> 314        0.52322
 This state for optimization and/or second-order correction.
 Total Energy, E(TD-HF/TD-DFT) =  -4069.75094116
 Copying the excited state density for this state as the 1-particle RhoCI density.

 Excited State   2:      Singlet-A      1.6879 eV  734.53 nm  f=0.5382  <S**2>=0.000
     309 -> 315        0.13527
     310 -> 316       -0.11435
     311 -> 313        0.52214
     312 -> 314       -0.44367

 Excited State   3:      Singlet-A      2.1859 eV  567.20 nm  f=0.0714  <S**2>=0.000
     309 -> 313        0.18417
     310 -> 314        0.61587
     312 -> 316       -0.26082

 Excited State   4:      Singlet-A      2.1931 eV  565.34 nm  f=0.1220  <S**2>=0.000
     309 -> 313        0.61385
     310 -> 314       -0.18257
     311 -> 315       -0.26683

 Excited State   5:      Singlet-A      2.4794 eV  500.06 nm  f=0.0000  <S**2>=0.000
     312 -> 313        0.70709

 The electronic state is 1-A.
 Alpha  occ. eigenvalues --  -46.87889 -46.87489 -19.26431 -19.26232 -19.19177
 Alpha  occ. eigenvalues --  -19.19034 -19.18887 -19.18561 -19.18300 -19.17895
 Alpha  occ. eigenvalues --  -14.42539 -14.42316 -14.41537 -14.41200 -14.39493
 Alpha  occ. eigenvalues --  -14.39176 -14.38689 -14.38431 -10.39231 -10.38962
 Alpha  occ. eigenvalues --  -10.35519 -10.35237 -10.34519 -10.34074 -10.31828
 Alpha  occ. eigenvalues --  -10.31654 -10.31504 -10.31117 -10.30994 -10.30834
 Alpha  occ. eigenvalues --  -10.30674 -10.30605 -10.30285 -10.30240 -10.30182
 Alpha  occ. eigenvalues --  -10.30012 -10.29982 -10.29757 -10.29731 -10.29344
 Alpha  occ. eigenvalues --  -10.29255 -10.29232 -10.28827 -10.28591 -10.28526
 Alpha  occ. eigenvalues --  -10.28497 -10.28462 -10.28225 -10.28196 -10.27910
 Alpha  occ. eigenvalues --  -10.27897 -10.27822 -10.27817 -10.27680 -10.27567
 Alpha  occ. eigenvalues --  -10.27562 -10.27507 -10.27500 -10.27461 -10.27428
 Alpha  occ. eigenvalues --  -10.27314 -10.27294 -10.27290 -10.27280 -10.27207
 Alpha  occ. eigenvalues --  -10.26902 -10.26774 -10.26521 -10.26476 -10.26308
 Alpha  occ. eigenvalues --  -10.26256 -10.26247 -10.26113 -10.26072 -10.25988
 Alpha  occ. eigenvalues --  -10.25777 -10.25725 -10.25700 -10.25479 -10.25362
 Alpha  occ. eigenvalues --  -10.24942 -10.24873 -10.24757 -10.24699 -10.24661
 Alpha  occ. eigenvalues --  -10.24534  -3.16632  -3.16239  -1.91513  -1.91121
 Alpha  occ. eigenvalues --   -1.91100  -1.90942  -1.90710  -1.90547  -1.16780
 Alpha  occ. eigenvalues --   -1.16523  -1.08762  -1.08506  -1.07285  -1.06819
 Alpha  occ. eigenvalues --   -1.06815  -1.06798  -1.04672  -1.04313  -1.03849
 Alpha  occ. eigenvalues --   -1.03493  -1.03329  -1.02876  -1.02505  -1.01944
 Alpha  occ. eigenvalues --   -0.92077  -0.91821  -0.89602  -0.89363  -0.89268
 Alpha  occ. eigenvalues --   -0.88945  -0.88362  -0.88106  -0.87986  -0.87760
 Alpha  occ. eigenvalues --   -0.87628  -0.87505  -0.87361  -0.86930  -0.85064
 Alpha  occ. eigenvalues --   -0.84815  -0.84014  -0.83775  -0.83043  -0.82774
 Alpha  occ. eigenvalues --   -0.82735  -0.82475  -0.81701  -0.81451  -0.80696
 Alpha  occ. eigenvalues --   -0.80284  -0.78892  -0.78450  -0.77305  -0.77024
 Alpha  occ. eigenvalues --   -0.76974  -0.76746  -0.76021  -0.75653  -0.74976
 Alpha  occ. eigenvalues --   -0.74686  -0.72872  -0.72530  -0.71759  -0.71418
 Alpha  occ. eigenvalues --   -0.69979  -0.69658  -0.68958  -0.68647  -0.67736
 Alpha  occ. eigenvalues --   -0.67442  -0.67296  -0.67028  -0.65375  -0.65095
 Alpha  occ. eigenvalues --   -0.64955  -0.64712  -0.64612  -0.64496  -0.64351
 Alpha  occ. eigenvalues --   -0.64077  -0.62417  -0.62142  -0.60526  -0.60174
 Alpha  occ. eigenvalues --   -0.59892  -0.59603  -0.59081  -0.58834  -0.58601
 Alpha  occ. eigenvalues --   -0.58269  -0.57708  -0.57406  -0.57401  -0.57094
 Alpha  occ. eigenvalues --   -0.56412  -0.56096  -0.56031  -0.55740  -0.55612
 Alpha  occ. eigenvalues --   -0.55434  -0.55288  -0.55131  -0.54628  -0.54374
 Alpha  occ. eigenvalues --   -0.53976  -0.53716  -0.53392  -0.53312  -0.53072
 Alpha  occ. eigenvalues --   -0.53021  -0.52975  -0.52836  -0.52740  -0.52515
 Alpha  occ. eigenvalues --   -0.52476  -0.52305  -0.52044  -0.51729  -0.51704
 Alpha  occ. eigenvalues --   -0.51476  -0.51297  -0.51049  -0.50649  -0.50291
 Alpha  occ. eigenvalues --   -0.50104  -0.49999  -0.49811  -0.49722  -0.49602
 Alpha  occ. eigenvalues --   -0.49319  -0.49311  -0.49186  -0.49022  -0.48921
 Alpha  occ. eigenvalues --   -0.48699  -0.48547  -0.48531  -0.48389  -0.48262
 Alpha  occ. eigenvalues --   -0.48171  -0.47782  -0.47424  -0.47385  -0.46949
 Alpha  occ. eigenvalues --   -0.46886  -0.46638  -0.46552  -0.46456  -0.46370
 Alpha  occ. eigenvalues --   -0.46263  -0.46109  -0.45951  -0.45940  -0.45675
 Alpha  occ. eigenvalues --   -0.45276  -0.45094  -0.44691  -0.44585  -0.44364
 Alpha  occ. eigenvalues --   -0.44294  -0.44235  -0.44172  -0.44116  -0.43956
 Alpha  occ. eigenvalues --   -0.43932  -0.43768  -0.43613  -0.43465  -0.43417
 Alpha  occ. eigenvalues --   -0.43222  -0.43123  -0.42826  -0.42796  -0.42752
 Alpha  occ. eigenvalues --   -0.42739  -0.42423  -0.42096  -0.41831  -0.41802
 Alpha  occ. eigenvalues --   -0.41612  -0.41512  -0.41293  -0.41226  -0.40946
 Alpha  occ. eigenvalues --   -0.40894  -0.40817  -0.40648  -0.40560  -0.40536
 Alpha  occ. eigenvalues --   -0.40360  -0.40303  -0.40056  -0.39509  -0.39329
 Alpha  occ. eigenvalues --   -0.38539  -0.38231  -0.37825  -0.37484  -0.37400
 Alpha  occ. eigenvalues --   -0.37351  -0.37126  -0.37018  -0.36840  -0.36650
 Alpha  occ. eigenvalues --   -0.36293  -0.36082  -0.34382  -0.34088  -0.33918
 Alpha  occ. eigenvalues --   -0.33727  -0.33285  -0.33007  -0.31416  -0.31127
 Alpha  occ. eigenvalues --   -0.31121  -0.30806  -0.30160  -0.29802  -0.29546
 Alpha  occ. eigenvalues --   -0.29430  -0.29148  -0.29040  -0.24174  -0.23865
 Alpha  occ. eigenvalues --   -0.21221  -0.20944
 Alpha virt. eigenvalues --   -0.08870  -0.08616  -0.01837  -0.01520  -0.00146
 Alpha virt. eigenvalues --    0.00151   0.02089   0.02362   0.03014   0.03385
 Alpha virt. eigenvalues --    0.04636   0.04911   0.04954   0.05298   0.06107

 Mulliken charges:
               1
     1  Mg   0.838753
     2  C   -0.003152
     3  C   -0.094069
     4  C   -0.045639
     5  C   -0.064147
     6  N   -0.256880
     7  C   -0.052394
     8  C   -0.014057
     9  C   -0.087049
    10  C    0.046559
    11  C    0.104748
    12  C    0.053416
    13  C   -0.072093
    14  H    0.036625
    15  N   -0.433247
    16  C    0.168681
    17  C   -0.177034
    18  C   -0.003757
    19  C    0.148893
    20  C    0.110149
    21  C    0.012460
    22  O   -0.248875
    23  C    0.062439
    24  N   -0.341165
    25  C    0.041361
    26  C   -0.028405
    27  C   -0.023974
    28  C    0.074802
    29  C    0.076026
    30  C    0.035088
    31  C   -0.004530
    32  N   -0.310213
    33  C    0.079988
    34  C   -0.170690
    35  C    0.007979
    36  C    0.082531
    37  C    0.127576
    38  C    0.045336
    39  O   -0.189324
    40  C   -0.005043
    41  C    0.212813
    42  O   -0.258132
    43  O   -0.304465
    44  C    0.158019
    45  H   -0.017322
    46  H   -0.016270
    47  H   -0.041777
    48  H    0.000878
    49  H   -0.003742
    50  H    0.025471
    51  H    0.016507
    52  H    0.016925
    53  H    0.011545
    54  H    0.043768
    55  H    0.017781
    56  H    0.018374
    57  H    0.006101
    58  H    0.027167
    59  H    0.039535
    60  H    0.037485
    61  H    0.036094
    62  H    0.031108
    63  H    0.017283
    64  H    0.009542
    65  H    0.023852
    66  H    0.012515
    67  H    0.004853
    68  H    0.007310
    69  H    0.004113
    70  H    0.010306
    71  H    0.017138
    72  H    0.028271
    73  H    0.046228
    74  H    0.008879
    75  H    0.046304
    76  H    0.035371
    77  H    0.042844
    78  H    0.047078
    79  H    0.052577
    80  Mg   0.837981
    81  C   -0.016792
    82  C   -0.086659
    83  C   -0.045418
    84  C   -0.065150
    85  N   -0.254560
    86  C   -0.049843
    87  C   -0.015087
    88  C   -0.090400
    89  C    0.045205
    90  C    0.113744
    91  C    0.062516
    92  C   -0.077657
    93  H    0.034151
    94  N   -0.423795
    95  C    0.162634
    96  C   -0.172583
    97  C   -0.007990
    98  C    0.152764
    99  C    0.098699
   100  C    0.015712
   101  O   -0.254037
   102  C    0.061124
   103  N   -0.349984
   104  C    0.037597
   105  C   -0.019735
   106  C   -0.034584
   107  C    0.088724
   108  C    0.073994
   109  C    0.034924
   110  C   -0.007551
   111  N   -0.323987
   112  C    0.078135
   113  C   -0.163369
   114  C    0.002183
   115  C    0.095980
   116  C    0.131461
   117  C    0.042185
   118  O   -0.188564
   119  C    0.001029
   120  C    0.211226
   121  O   -0.251132
   122  O   -0.305730
   123  C    0.152134
   124  H   -0.016634
   125  H   -0.016237
   126  H   -0.041177
   127  H   -0.001227
   128  H   -0.004016
   129  H    0.021121
   130  H    0.017155
   131  H    0.017975
   132  H    0.013943
   133  H    0.037273
   134  H    0.020619
   135  H    0.019949
   136  H    0.010226
   137  H    0.028376
   138  H    0.039100
   139  H    0.039131
   140  H    0.035580
   141  H    0.033767
   142  H    0.014026
   143  H    0.011461
   144  H    0.024157
   145  H    0.012270
   146  H    0.004144
   147  H    0.005367
   148  H    0.003360
   149  H    0.010686
   150  H    0.017593
   151  H    0.030608
   152  H    0.045535
   153  H    0.007887
   154  H    0.047337
   155  H    0.034707
   156  H    0.043438
   157  H    0.049576
   158  H    0.053431
 Sum of Mulliken charges =  -0.00000

 Dipole moment (field-independent basis, Debye):
    X=              4.8620    Y=              2.5966    Z=              1.1494  Tot=              5.6305
 Quadrupole moment (field-independent basis, Debye-Ang):
   XX=           -521.8010   YY=           -526.4601   ZZ=           -471.2387
   XY=            -14.4240   XZ=             42.7220   YZ=             21.4883

 Normal termination of Gaussian 16 at Sat Sep  4 01:29:30 2021.
