 Gaussian 16, Revision A.03,
 Gaussian 16:  ES64L-G16RevA.03 25-Dec-2016

 -----------------------------------
 #p cam-b3lyp/Def2SVP td=(nstates=5)
 -----------------------------------

 --------------------------------
 TDDFT excited states in gaussian
 --------------------------------
 Symbolic Z-matrix:
 Charge =  0 Multiplicity = 1

                         Standard orientation:
 ---------------------------------------------------------------------
 Center     Atomic      Atomic             Coordinates (Angstroms)
 Number     Number       Type             X           Y           Z
 ---------------------------------------------------------------------
      1         12           0        3.626840    1.399587    0.486685
      2          6           0        4.903985   -1.268960   -1.528252
      3          6           0        3.782406    3.373449   -2.292295
      4          6           0        2.935254    3.877498    2.340947
      5          6           0        4.634585   -0.424511    3.280030
      6          7           0        4.276401    0.988850   -1.589372
      7          6           0        4.687560   -0.090981   -2.246702
      8          6           0        4.794741    0.126137   -3.785775
      9          6           0        4.975400    1.710122   -3.804562
     10          6           0        4.272369    2.050240   -2.502260
     11          6           0        6.430137    2.158595   -3.709098
     12          6           0        3.494023   -0.311102   -4.539887
     13          6           0        3.631614   -0.438909   -6.059784
     14          1           0        2.890370   -1.487384   -6.744332
     15          7           0        2.935673    3.191795    0.025029
     16          6           0        3.077154    3.833955   -1.159412
     17          6           0        2.389047    5.133490   -1.003220
     18          6           0        2.000286    5.273429    0.427646
     19          6           0        2.639556    4.116723    1.001006
     20          6           0        2.119966    6.064568   -2.145340
     21          6           0        1.191197    6.294192    1.163547
     22          8           0        1.169252    6.353051    2.440507
     23          6           0        0.485717    7.292096    0.339212
     24          7           0        3.958272    1.795934    2.509232
     25          6           0        3.506008    2.920253    3.075227
     26          6           0        3.608542    2.858358    4.570417
     27          6           0        4.002868    1.352077    4.924501
     28          6           0        4.145750    0.800784    3.484386
     29          6           0        4.622539    3.815604    5.211903
     30          6           0        3.080400    0.597937    5.914826
     31          6           0        1.727339    0.365683    5.280489
     32          7           0        4.435358   -0.580478    0.856397
     33          6           0        4.803092   -1.123059    2.096176
     34          6           0        5.397664   -2.445741    1.829601
     35          6           0        5.349315   -2.574497    0.442904
     36          6           0        4.785813   -1.395249   -0.122899
     37          6           0        5.946880   -3.324376    2.804689
     38          6           0        5.665212   -3.423707   -0.694157
     39          8           0        6.071177   -4.579116   -0.827255
     40          6           0        5.501667   -2.562411   -2.023536
     41          6           0        4.699207   -3.379810   -2.998844
     42          8           0        3.500606   -3.646412   -2.776030
     43          8           0        5.391474   -3.515694   -4.140266
     44          6           0        4.638990   -4.292028   -5.161651
     45          1           0        4.008274    4.143571   -3.032455
     46          1           0        2.610516    4.663027    3.026460
     47          1           0        4.894073   -1.086225    4.108435
     48          1           0        5.655459   -0.352299   -4.253414
     49          1           0        4.456821    2.168901   -4.646179
     50          1           0        7.094485    1.316974   -3.513560
     51          1           0        6.462115    2.868856   -2.882659
     52          1           0        6.721713    2.719329   -4.597545
     53          1           0        2.760320    0.493226   -4.487004
     54          1           0        3.108043   -1.246367   -4.132916
     55          1           0        4.678110   -0.448843   -6.365816
     56          1           0        3.224327    0.463089   -6.516640
     57          1           0        2.667707    5.770129   -3.039673
     58          1           0        2.542654    7.031752   -1.874047
     59          1           0        1.053641    6.172235   -2.344565
     60          1           0        1.211243    7.838575   -0.263716
     61          1           0       -0.111952    7.884973    1.030687
     62          1           0       -0.166897    6.772350   -0.362862
     63          1           0        2.654217    3.097121    5.038051
     64          1           0        4.991978    1.284041    5.378051
     65          1           0        4.185100    4.483579    5.954305
     66          1           0        5.104779    4.379775    4.414127
     67          1           0        5.477489    3.328879    5.680492
     68          1           0        2.916301    1.195977    6.810575
     69          1           0        3.482019   -0.365715    6.228400
     70          1           0        1.207058    1.304663    5.466116
     71          1           0        1.216944   -0.466247    5.766905
     72          1           0        1.809397    0.246713    4.199934
     73          1           0        5.591936   -4.322917    2.549932
     74          1           0        5.640765   -3.039970    3.811173
     75          1           0        7.012834   -3.174140    2.634317
     76          1           0        6.507065   -2.358211   -2.390414
     77          1           0        5.272269   -5.127349   -5.460699
     78          1           0        4.340688   -3.581761   -5.932976
     79          1           0        3.753234   -4.821358   -4.808686
     80         12           0       -3.758888   -1.528257    0.495020
     81          6           0       -4.523106    0.948911   -1.986644
     82          6           0       -3.811575    0.982980    2.802732
     83          6           0       -2.647313   -3.598566    2.627063
     84          6           0       -2.656476   -3.582700   -2.095281
     85          7           0       -4.131812    0.644028    0.309653
     86          6           0       -4.472756    1.462791   -0.674079
     87          6           0       -4.855102    2.895517   -0.215102
     88          6           0       -4.048928    2.926366    1.173430
     89          6           0       -4.021464    1.429064    1.473425
     90          6           0       -2.615938    3.410467    1.026708
     91          6           0       -6.398950    3.057954    0.013309
     92          6           0       -6.878502    4.503552    0.161701
     93          1           0       -8.185405    4.862616   -0.381934
     94          7           0       -3.767850   -1.458811    2.478368
     95          6           0       -3.815522   -0.355270    3.253738
     96          6           0       -3.778546   -0.837780    4.642981
     97          6           0       -3.539026   -2.306435    4.623232
     98          6           0       -3.282435   -2.512720    3.211961
     99          6           0       -4.040118    0.054472    5.821498
    100          6           0       -3.528398   -3.350194    5.698710
    101          8           0       -3.062230   -4.525993    5.491322
    102          6           0       -3.993594   -2.926992    7.027608
    103          7           0       -2.597885   -3.244181    0.321788
    104          6           0       -2.301125   -3.989911    1.400554
    105          6           0       -1.695328   -5.313536    0.998808
    106          6           0       -1.870362   -5.402055   -0.588368
    107          6           0       -2.494152   -4.013962   -0.851972
    108          6           0       -0.222846   -5.508140    1.359808
    109          6           0       -2.595678   -6.656608   -1.147540
    110          6           0       -4.049540   -6.639587   -0.733551
    111          7           0       -3.773806   -1.452367   -1.664160
    112          6           0       -3.236078   -2.407049   -2.554956
    113          6           0       -3.384737   -1.861345   -3.919706
    114          6           0       -3.982469   -0.607041   -3.724948
    115          6           0       -4.173148   -0.377967   -2.335467
    116          6           0       -2.947112   -2.490241   -5.119329
    117          6           0       -4.485791    0.579824   -4.378175
    118          8           0       -4.665963    0.917682   -5.547416
    119          6           0       -4.742649    1.693949   -3.274028
    120          6           0       -6.104224    2.284709   -3.518214
    121          8           0       -7.127666    1.591394   -3.382203
    122          8           0       -5.987465    3.617783   -3.658418
    123          6           0       -7.313127    4.250299   -3.891596
    124          1           0       -3.579924    1.724100    3.568213
    125          1           0       -2.344044   -4.393001    3.312907
    126          1           0       -2.426795   -4.204208   -2.963407
    127          1           0       -4.506428    3.688988   -0.865186
    128          1           0       -4.604500    3.458895    1.940964
    129          1           0       -2.339157    3.542049   -0.008768
    130          1           0       -1.999898    2.650546    1.489375
    131          1           0       -2.463551    4.320630    1.613824
    132          1           0       -6.656360    2.671575    1.007895
    133          1           0       -6.952657    2.571767   -0.766207
    134          1           0       -6.117419    5.225279   -0.158950
    135          1           0       -7.017961    4.715527    1.224544
    136          1           0       -4.022044    1.113532    5.536069
    137          1           0       -3.189607   -0.057830    6.502577
    138          1           0       -4.956486   -0.208893    6.354013
    139          1           0       -3.380458   -2.100316    7.378508
    140          1           0       -3.996984   -3.832154    7.637977
    141          1           0       -5.015763   -2.543403    6.934682
    142          1           0       -2.227750   -6.137657    1.457570
    143          1           0       -0.899565   -5.413611   -1.105340
    144          1           0       -0.041223   -6.402862    1.984746
    145          1           0        0.126135   -4.615945    1.862541
    146          1           0        0.455706   -5.575503    0.511140
    147          1           0       -2.162546   -7.565372   -0.722452
    148          1           0       -2.534879   -6.745360   -2.227090
    149          1           0       -4.023461   -7.059535    0.276421
    150          1           0       -4.645571   -7.257066   -1.402500
    151          1           0       -4.424052   -5.612439   -0.653884
    152          1           0       -3.740944   -2.365485   -5.843738
    153          1           0       -2.718006   -3.541312   -4.956484
    154          1           0       -2.049902   -1.902637   -5.331495
    155          1           0       -3.950651    2.437816   -3.368777
    156          1           0       -7.235372    4.821537   -4.821820
    157          1           0       -7.539711    4.817794   -2.969439
    158          1           0       -8.148239    3.596454   -4.114107
 ---------------------------------------------------------------------

 SCF Done:  E(RCAM-B3LYP) =  -4069.81291443     A.U. after   19 cycles

 Excitation energies and oscillator strengths:

 Excited State   1:      Singlet-A      1.6630 eV  745.55 nm  f=0.2508  <S**2>=0.000
     310 -> 316        0.13959
     311 -> 313       -0.39709
     312 -> 314        0.55987
 This state for optimization and/or second-order correction.
 Total Energy, E(TD-HF/TD-DFT) =  -4069.75180039
 Copying the excited state density for this state as the 1-particle RhoCI density.

 Excited State   2:      Singlet-A      1.6763 eV  739.65 nm  f=0.3963  <S**2>=0.000
     309 -> 315       -0.14172
     310 -> 316        0.10002
     311 -> 313        0.55869
     312 -> 314        0.39632

 Excited State   3:      Singlet-A      2.1814 eV  568.38 nm  f=0.0884  <S**2>=0.000
     309 -> 313        0.23359
     310 -> 314        0.59980
     312 -> 316       -0.25077

 Excited State   4:      Singlet-A      2.1913 eV  565.81 nm  f=0.1076  <S**2>=0.000
     309 -> 313        0.59687
     310 -> 314       -0.23183
     311 -> 315        0.25796
     312 -> 316        0.10112

 Excited State   5:      Singlet-A      2.2275 eV  556.60 nm  f=0.0000  <S**2>=0.000
     312 -> 313        0.70694

 The electronic state is 1-A.
 Alpha  occ. eigenvalues --  -46.87943 -46.87402 -19.26466 -19.26312 -19.19231
 Alpha  occ. eigenvalues --  -19.19087 -19.19080 -19.18526 -19.18341 -19.17915
 Alpha  occ. eigenvalues --  -14.42585 -14.42247 -14.41602 -14.41055 -14.39561
 Alpha  occ. eigenvalues --  -14.39106 -14.38735 -14.38354 -10.39281 -10.39013
 Alpha  occ. eigenvalues --  -10.35712 -10.35208 -10.34558 -10.34095 -10.31851
 Alpha  occ. eigenvalues --  -10.31751 -10.31526 -10.31071 -10.31050 -10.30805
 Alpha  occ. eigenvalues --  -10.30709 -10.30677 -10.30369 -10.30147 -10.30123
 Alpha  occ. eigenvalues --  -10.30084 -10.29796 -10.29796 -10.29572 -10.29413
 Alpha  occ. eigenvalues --  -10.29175 -10.29173 -10.28838 -10.28563 -10.28554
 Alpha  occ. eigenvalues --  -10.28553 -10.28522 -10.28198 -10.28185 -10.27951
 Alpha  occ. eigenvalues --  -10.27917 -10.27856 -10.27782 -10.27760 -10.27668
 Alpha  occ. eigenvalues --  -10.27639 -10.27609 -10.27554 -10.27407 -10.27322
 Alpha  occ. eigenvalues --  -10.27277 -10.27253 -10.27246 -10.26986 -10.26934
 Alpha  occ. eigenvalues --  -10.26877 -10.26761 -10.26694 -10.26557 -10.26351
 Alpha  occ. eigenvalues --  -10.26310 -10.26279 -10.26163 -10.25964 -10.25757
 Alpha  occ. eigenvalues --  -10.25703 -10.25657 -10.25614 -10.25610 -10.24992
 Alpha  occ. eigenvalues --  -10.24959 -10.24865 -10.24688 -10.24664 -10.24409
 Alpha  occ. eigenvalues --  -10.24377  -3.16685  -3.16153  -1.91566  -1.91153
 Alpha  occ. eigenvalues --   -1.91035  -1.90996  -1.90623  -1.90461  -1.16818
 Alpha  occ. eigenvalues --   -1.16596  -1.08800  -1.08536  -1.07487  -1.06874
 Alpha  occ. eigenvalues --   -1.06846  -1.06781  -1.04719  -1.04257  -1.03913
 Alpha  occ. eigenvalues --   -1.03402  -1.03390  -1.02754  -1.02565  -1.01842
 Alpha  occ. eigenvalues --   -0.92126  -0.91777  -0.89682  -0.89280  -0.89167
 Alpha  occ. eigenvalues --   -0.88934  -0.88453  -0.88012  -0.87829  -0.87803
 Alpha  occ. eigenvalues --   -0.87575  -0.87455  -0.87414  -0.86916  -0.85097
 Alpha  occ. eigenvalues --   -0.84784  -0.84107  -0.83502  -0.83181  -0.82791
 Alpha  occ. eigenvalues --   -0.82697  -0.82433  -0.81741  -0.81437  -0.80756
 Alpha  occ. eigenvalues --   -0.80248  -0.78957  -0.78416  -0.77359  -0.77057
 Alpha  occ. eigenvalues --   -0.76915  -0.76649  -0.76052  -0.75637  -0.75059
 Alpha  occ. eigenvalues --   -0.74403  -0.72920  -0.72444  -0.71817  -0.71281
 Alpha  occ. eigenvalues --   -0.70072  -0.69353  -0.69002  -0.68616  -0.67808
 Alpha  occ. eigenvalues --   -0.67366  -0.67338  -0.67027  -0.65403  -0.65080
 Alpha  occ. eigenvalues --   -0.65006  -0.64767  -0.64538  -0.64431  -0.64427
 Alpha  occ. eigenvalues --   -0.63847  -0.62465  -0.62103  -0.60620  -0.60086
 Alpha  occ. eigenvalues --   -0.59918  -0.59588  -0.59140  -0.58730  -0.58662
 Alpha  occ. eigenvalues --   -0.58185  -0.57751  -0.57483  -0.57415  -0.56956
 Alpha  occ. eigenvalues --   -0.56464  -0.56135  -0.55998  -0.55739  -0.55695
 Alpha  occ. eigenvalues --   -0.55510  -0.55286  -0.54956  -0.54697  -0.54185
 Alpha  occ. eigenvalues --   -0.53995  -0.53710  -0.53474  -0.53371  -0.53085
 Alpha  occ. eigenvalues --   -0.52998  -0.52938  -0.52915  -0.52708  -0.52611
 Alpha  occ. eigenvalues --   -0.52487  -0.52056  -0.52033  -0.51746  -0.51680
 Alpha  occ. eigenvalues --   -0.51485  -0.51345  -0.50982  -0.50764  -0.50271
 Alpha  occ. eigenvalues --   -0.50191  -0.50099  -0.49763  -0.49666  -0.49481
 Alpha  occ. eigenvalues --   -0.49375  -0.49288  -0.49212  -0.49016  -0.48905
 Alpha  occ. eigenvalues --   -0.48741  -0.48660  -0.48623  -0.48374  -0.48161
 Alpha  occ. eigenvalues --   -0.47991  -0.47845  -0.47456  -0.47354  -0.46938
 Alpha  occ. eigenvalues --   -0.46845  -0.46667  -0.46514  -0.46448  -0.46320
 Alpha  occ. eigenvalues --   -0.46307  -0.46019  -0.45964  -0.45781  -0.45623
 Alpha  occ. eigenvalues --   -0.45366  -0.44808  -0.44737  -0.44669  -0.44318
 Alpha  occ. eigenvalues --   -0.44309  -0.44244  -0.44204  -0.44182  -0.43928
 Alpha  occ. eigenvalues --   -0.43800  -0.43766  -0.43654  -0.43518  -0.43386
 Alpha  occ. eigenvalues --   -0.43177  -0.43131  -0.42877  -0.42827  -0.42809
 Alpha  occ. eigenvalues --   -0.42639  -0.42214  -0.42158  -0.41862  -0.41685
 Alpha  occ. eigenvalues --   -0.41643  -0.41438  -0.41282  -0.41218  -0.41054
 Alpha  occ. eigenvalues --   -0.40979  -0.40724  -0.40717  -0.40540  -0.40465
 Alpha  occ. eigenvalues --   -0.40313  -0.40112  -0.40076  -0.39612  -0.39023
 Alpha  occ. eigenvalues --   -0.38621  -0.37975  -0.37846  -0.37475  -0.37465
 Alpha  occ. eigenvalues --   -0.37379  -0.37006  -0.36913  -0.36894  -0.36636
 Alpha  occ. eigenvalues --   -0.36355  -0.35899  -0.34435  -0.34002  -0.33974
 Alpha  occ. eigenvalues --   -0.33750  -0.33344  -0.32912  -0.31602  -0.31193
 Alpha  occ. eigenvalues --   -0.31078  -0.30719  -0.30198  -0.29824  -0.29625
 Alpha  occ. eigenvalues --   -0.29480  -0.29112  -0.28998  -0.24229  -0.23774
 Alpha  occ. eigenvalues --   -0.21278  -0.20854
 Alpha virt. eigenvalues --   -0.08936  -0.08553  -0.01913  -0.01407  -0.00250
 Alpha virt. eigenvalues --    0.00170   0.02025   0.02332   0.02548   0.03600
 Alpha virt. eigenvalues --    0.04599   0.04907   0.05002   0.05258   0.06071

 Mulliken charges:
               1
     1  Mg   0.839010
     2  C   -0.002891
     3  C   -0.092886
     4  C   -0.047085
     5  C   -0.063445
     6  N   -0.256838
     7  C   -0.051867
     8  C   -0.014249
     9  C   -0.087238
    10  C    0.046456
    11  C    0.104684
    12  C    0.053054
    13  C   -0.072350
    14  H    0.036204
    15  N   -0.433171
    16  C    0.168334
    17  C   -0.177195
    18  C   -0.004895
    19  C    0.148707
    20  C    0.110000
    21  C    0.010942
    22  O   -0.251585
    23  C    0.062644
    24  N   -0.341183
    25  C    0.041766
    26  C   -0.027914
    27  C   -0.023944
    28  C    0.074920
    29  C    0.076189
    30  C    0.035134
    31  C   -0.004618
    32  N   -0.310589
    33  C    0.080738
    34  C   -0.169526
    35  C    0.007933
    36  C    0.083029
    37  C    0.127417
    38  C    0.045356
    39  O   -0.188520
    40  C   -0.005206
    41  C    0.213264
    42  O   -0.259074
    43  O   -0.304184
    44  C    0.158038
    45  H   -0.016931
    46  H   -0.017903
    47  H   -0.040950
    48  H    0.001035
    49  H   -0.002836
    50  H    0.025416
    51  H    0.016297
    52  H    0.017305
    53  H    0.012769
    54  H    0.043099
    55  H    0.017809
    56  H    0.019852
    57  H    0.007203
    58  H    0.026905
    59  H    0.039689
    60  H    0.038811
    61  H    0.034156
    62  H    0.030502
    63  H    0.014716
    64  H    0.009867
    65  H    0.022602
    66  H    0.012917
    67  H    0.005213
    68  H    0.005347
    69  H    0.006119
    70  H    0.004687
    71  H    0.020509
    72  H    0.030477
    73  H    0.047501
    74  H    0.009956
    75  H    0.046268
    76  H    0.035724
    77  H    0.043368
    78  H    0.047403
    79  H    0.051884
    80  Mg   0.837059
    81  C   -0.017564
    82  C   -0.088795
    83  C   -0.045697
    84  C   -0.059858
    85  N   -0.254870
    86  C   -0.050174
    87  C   -0.014843
    88  C   -0.090664
    89  C    0.045107
    90  C    0.112210
    91  C    0.062719
    92  C   -0.077337
    93  H    0.033977
    94  N   -0.423572
    95  C    0.162973
    96  C   -0.174749
    97  C   -0.008365
    98  C    0.152384
    99  C    0.099515
   100  C    0.014633
   101  O   -0.253117
   102  C    0.061493
   103  N   -0.350349
   104  C    0.038995
   105  C   -0.021172
   106  C   -0.036142
   107  C    0.089389
   108  C    0.070444
   109  C    0.034370
   110  C   -0.007370
   111  N   -0.324128
   112  C    0.077719
   113  C   -0.162870
   114  C    0.001075
   115  C    0.096535
   116  C    0.132185
   117  C    0.041362
   118  O   -0.190124
   119  C    0.001295
   120  C    0.211248
   121  O   -0.250775
   122  O   -0.306446
   123  C    0.152112
   124  H   -0.018364
   125  H   -0.015390
   126  H   -0.039038
   127  H   -0.003391
   128  H   -0.004169
   129  H    0.018697
   130  H    0.016841
   131  H    0.021505
   132  H    0.014216
   133  H    0.037319
   134  H    0.019509
   135  H    0.020088
   136  H    0.009324
   137  H    0.025019
   138  H    0.039170
   139  H    0.037143
   140  H    0.035861
   141  H    0.033924
   142  H    0.012937
   143  H    0.022051
   144  H    0.022902
   145  H    0.011318
   146  H    0.018190
   147  H    0.006876
   148  H    0.003275
   149  H    0.010435
   150  H    0.016602
   151  H    0.029018
   152  H    0.044628
   153  H    0.009221
   154  H    0.046050
   155  H    0.032260
   156  H    0.042810
   157  H    0.049489
   158  H    0.053703
 Sum of Mulliken charges =  -0.00000

 Dipole moment (field-independent basis, Debye):
    X=              2.3588    Y=              5.6693    Z=              1.2276  Tot=              6.2620
 Quadrupole moment (field-independent basis, Debye-Ang):
   XX=           -522.4541   YY=           -508.0376   ZZ=           -489.6915
   XY=              3.3709   XZ=            -31.7539   YZ=              3.1184

 Normal termination of Gaussian 16 at Wed Sep  8 23:56:30 2021.
