 Gaussian 16, Revision A.03,
 Gaussian 16:  ES64L-G16RevA.03 25-Dec-2016

 -----------------------------------
 #p cam-b3lyp/Def2SVP td=(nstates=5)
 -----------------------------------

 --------------------------------
 TDDFT excited states in gaussian
 --------------------------------
 Symbolic Z-matrix:
 Charge =  0 Multiplicity = 1

                         Standard orientation:
 ---------------------------------------------------------------------
 Center     Atomic      Atomic             Coordinates (Angstroms)
 Number     Number       Type             X           Y           Z
 ---------------------------------------------------------------------
      1         12           0       -7.830262    0.517690   -0.677819
      2          6           0       -8.190718   -2.360505    1.419389
      3          6           0       -8.942657    2.387768    1.950574
      4          6           0       -7.954021    3.005333   -2.640709
      5          6           0       -7.847865   -1.650845   -3.405970
      6          7           0       -8.454196   -0.031596    1.373921
      7          6           0       -8.488992   -1.162314    2.072088
      8          6           0       -8.799133   -0.945895    3.583494
      9          6           0       -9.556061    0.454029    3.487203
     10          6           0       -8.922020    0.985910    2.214011
     11          6           0      -11.059583    0.319916    3.268259
     12          6           0       -7.497995   -0.835413    4.447533
     13          6           0       -7.706522   -0.950563    5.960349
     14          1           0       -6.689762   -1.618704    6.758557
     15          7           0       -7.895960    2.453692   -0.289968
     16          6           0       -8.365630    3.038099    0.838378
     17          6           0       -8.198828    4.494346    0.642920
     18          6           0       -7.770120    4.718223   -0.765690
     19          6           0       -7.883001    3.386258   -1.302816
     20          6           0       -8.392614    5.498920    1.737007
     21          6           0       -7.338803    5.940759   -1.512352
     22          8           0       -7.232178    5.957415   -2.786294
     23          6           0       -7.126989    7.159557   -0.710660
     24          7           0       -8.112540    0.687366   -2.739169
     25          6           0       -8.063999    1.878013   -3.346613
     26          6           0       -8.009129    1.728227   -4.838086
     27          6           0       -7.784281    0.172347   -5.118144
     28          6           0       -7.833655   -0.339895   -3.657514
     29          6           0       -9.247841    2.211050   -5.605216
     30          6           0       -6.567369   -0.215625   -5.995084
     31          6           0       -5.283820    0.100035   -5.260265
     32          7           0       -7.811085   -1.633030   -0.969508
     33          6           0       -7.844528   -2.318340   -2.192580
     34          6           0       -7.925604   -3.756932   -1.879614
     35          6           0       -7.950573   -3.807977   -0.487272
     36          6           0       -7.915478   -2.483846    0.035929
     37          6           0       -8.024460   -4.812053   -2.829024
     38          6           0       -8.023591   -4.672024    0.679753
     39          8           0       -7.981098   -5.889716    0.861179
     40          6           0       -8.304904   -3.764934    1.957984
     41          6           0       -7.342002   -4.185583    3.034638
     42          8           0       -6.115884   -3.990654    2.908138
     43          8           0       -8.028313   -4.530074    4.135023
     44          6           0       -7.130775   -4.929785    5.251629
     45          1           0       -9.500234    3.042980    2.622695
     46          1           0       -7.887437    3.830018   -3.353379
     47          1           0       -7.771834   -2.391014   -4.204608
     48          1           0       -9.456880   -1.695202    4.024326
     49          1           0       -9.318286    1.103970    4.329083
     50          1           0      -11.344688   -0.715998    3.085181
     51          1           0      -11.282921    0.935910    2.396958
     52          1           0      -11.612710    0.761886    4.097409
     53          1           0       -7.113866    0.183026    4.390189
     54          1           0       -6.759276   -1.571451    4.128367
     55          1           0       -8.696350   -1.341518    6.197635
     56          1           0       -7.703661    0.054216    6.382973
     57          1           0       -8.865473    5.052906    2.611090
     58          1           0       -9.119660    6.226258    1.376323
     59          1           0       -7.463561    6.006074    1.997750
     60          1           0       -8.051858    7.415135   -0.193121
     61          1           0       -6.735996    7.908041   -1.398951
     62          1           0       -6.390034    6.948480    0.064771
     63          1           0       -7.175818    2.290688   -5.257200
     64          1           0       -8.635111   -0.278300   -5.629690
     65          1           0       -9.028572    2.967108   -6.359538
     66          1           0       -9.970849    2.581365   -4.878981
     67          1           0       -9.817851    1.422436   -6.095717
     68          1           0       -6.561864    0.367527   -6.915329
     69          1           0       -6.554232   -1.270207   -6.270648
     70          1           0       -5.135783    1.158285   -5.472452
     71          1           0       -4.461714   -0.496465   -5.657180
     72          1           0       -5.407058   -0.001947   -4.181888
     73          1           0       -7.347003   -5.594457   -2.487171
     74          1           0       -7.761780   -4.470074   -3.829850
     75          1           0       -9.080272   -5.066861   -2.738527
     76          1           0       -9.341417   -3.939938    2.244576
     77          1           0       -7.431399   -5.930349    5.562647
     78          1           0       -7.184116   -4.132139    5.992791
     79          1           0       -6.085306   -5.100315    4.992300
     80         12           0        7.995667    0.617447    0.658234
     81          6           0        8.038712   -1.645417   -2.126845
     82          6           0        6.971061   -2.006079    2.582268
     83          6           0        7.514077    2.671910    3.027768
     84          6           0        7.903832    3.231202   -1.645147
     85          7           0        7.593235   -1.503213    0.175416
     86          6           0        7.703232   -2.262978   -0.903932
     87          6           0        7.517346   -3.781838   -0.643009
     88          6           0        6.641152   -3.689704    0.699630
     89          6           0        7.118462   -2.331737    1.210290
     90          6           0        5.146653   -3.603297    0.438222
     91          6           0        8.880731   -4.516090   -0.389922
     92          6           0        8.806386   -6.043899   -0.434869
     93          1           0        9.942849   -6.780282   -0.981390
     94          7           0        7.817107    0.307550    2.610318
     95          6           0        7.409267   -0.824990    3.220486
     96          6           0        7.430985   -0.535255    4.662627
     97          6           0        7.726697    0.911695    4.845976
     98          6           0        7.675754    1.367412    3.471264
     99          6           0        7.263984   -1.598711    5.708854
    100          6           0        7.996415    1.749348    6.059145
    101          8           0        7.993022    3.030025    6.007466
    102          6           0        8.172174    1.027941    7.328065
    103          7           0        7.531965    2.643765    0.695124
    104          6           0        7.429649    3.308463    1.859445
    105          6           0        7.364083    4.799916    1.632166
    106          6           0        7.688451    5.012748    0.080694
    107          6           0        7.802582    3.536532   -0.358799
    108          6           0        6.030280    5.466167    1.969029
    109          6           0        8.852434    5.980082   -0.268701
    110          6           0       10.167959    5.390035    0.185857
    111          7           0        8.159691    0.805842   -1.487848
    112          6           0        8.067656    1.991344   -2.249548
    113          6           0        8.125782    1.599944   -3.672876
    114          6           0        8.225220    0.200809   -3.640653
    115          6           0        8.208473   -0.249583   -2.292928
    116          6           0        8.037609    2.485836   -4.783514
    117          6           0        8.329833   -0.998284   -4.440602
    118          8           0        8.474556   -1.232719   -5.639695
    119          6           0        8.086364   -2.256155   -3.499921
    120          6           0        9.167640   -3.263111   -3.781702
    121          8           0       10.354899   -3.007198   -3.514252
    122          8           0        8.600633   -4.436779   -4.115447
    123          6           0        9.632800   -5.470763   -4.393508
    124          1           0        6.431307   -2.701621    3.225513
    125          1           0        7.455035    3.432029    3.810213
    126          1           0        7.979751    3.994841   -2.422171
    127          1           0        6.965984   -4.310590   -1.411246
    128          1           0        6.908636   -4.476151    1.400582
    129          1           0        4.927068   -3.498708   -0.613905
    130          1           0        4.802135   -2.735153    0.984740
    131          1           0        4.635843   -4.461924    0.883382
    132          1           0        9.175374   -4.373060    0.657686
    133          1           0        9.632091   -4.170617   -1.073102
    134          1           0        7.868836   -6.398025   -0.880455
    135          1           0        8.774676   -6.420101    0.590547
    136          1           0        6.897410   -2.536762    5.273998
    137          1           0        6.454831   -1.271747    6.370834
    138          1           0        8.167475   -1.750331    6.303307
    139          1           0        7.280574    0.441369    7.536496
    140          1           0        8.444224    1.789228    8.061768
    141          1           0        8.997609    0.316349    7.214533
    142          1           0        8.113210    5.314227    2.221578
    143          1           0        6.829799    5.436335   -0.460724
    144          1           0        6.124977    6.282665    2.709599
    145          1           0        5.349440    4.705301    2.326875
    146          1           0        5.490923    5.876625    1.117085
    147          1           0        8.733973    6.924586    0.267986
    148          1           0        8.915453    6.216029   -1.325746
    149          1           0       10.208874    5.664354    1.244239
    150          1           0       10.995978    5.828177   -0.367731
    151          1           0       10.148742    4.295454    0.129535
    152          1           0        8.793077    2.173072   -5.491995
    153          1           0        8.180967    3.520521   -4.479136
    154          1           0        7.011506    2.291531   -5.107005
    155          1           0        7.093679   -2.647230   -3.726247
    156          1           0        9.435265   -5.857336   -5.398106
    157          1           0        9.568593   -6.189942   -3.555400
    158          1           0       10.659956   -5.139681   -4.492491
 ---------------------------------------------------------------------

 SCF Done:  E(RCAM-B3LYP) =  -4069.81190714     A.U. after   19 cycles

 Excitation energies and oscillator strengths:

 Excited State   1:      Singlet-A      1.6752 eV  740.12 nm  f=0.3737  <S**2>=0.000
     310 -> 316        0.17291
     312 -> 314        0.68471
     310 <- 316        0.10422
 This state for optimization and/or second-order correction.
 Total Energy, E(TD-HF/TD-DFT) =  -4069.75034477
 Copying the excited state density for this state as the 1-particle RhoCI density.

 Excited State   2:      Singlet-A      1.6796 eV  738.19 nm  f=0.3753  <S**2>=0.000
     309 -> 315        0.17523
     311 -> 313        0.68436
     309 <- 315        0.10498

 Excited State   3:      Singlet-A      2.1857 eV  567.25 nm  f=0.1013  <S**2>=0.000
     310 -> 314        0.64210
     312 -> 316       -0.27236

 Excited State   4:      Singlet-A      2.1927 eV  565.43 nm  f=0.0983  <S**2>=0.000
     309 -> 313        0.64023
     311 -> 315       -0.27817

 Excited State   5:      Singlet-A      2.7631 eV  448.71 nm  f=0.0000  <S**2>=0.000
     312 -> 313        0.70710

 The electronic state is 1-A.
 Alpha  occ. eigenvalues --  -46.87839 -46.87586 -19.26370 -19.26270 -19.19105
 Alpha  occ. eigenvalues --  -19.19085 -19.18850 -19.18661 -19.18227 -19.17980
 Alpha  occ. eigenvalues --  -14.42494 -14.42416 -14.41489 -14.41288 -14.39445
 Alpha  occ. eigenvalues --  -14.39279 -14.38632 -14.38527 -10.39162 -10.39014
 Alpha  occ. eigenvalues --  -10.35482 -10.35339 -10.34447 -10.34156 -10.31777
 Alpha  occ. eigenvalues --  -10.31678 -10.31452 -10.31222 -10.30955 -10.30940
 Alpha  occ. eigenvalues --  -10.30615 -10.30550 -10.30330 -10.30285 -10.30241
 Alpha  occ. eigenvalues --  -10.30074 -10.29960 -10.29829 -10.29674 -10.29365
 Alpha  occ. eigenvalues --  -10.29332 -10.29294 -10.28803 -10.28615 -10.28608
 Alpha  occ. eigenvalues --  -10.28553 -10.28410 -10.28330 -10.28165 -10.28023
 Alpha  occ. eigenvalues --  -10.27929 -10.27837 -10.27770 -10.27626 -10.27584
 Alpha  occ. eigenvalues --  -10.27524 -10.27516 -10.27474 -10.27467 -10.27450
 Alpha  occ. eigenvalues --  -10.27407 -10.27399 -10.27392 -10.27328 -10.27219
 Alpha  occ. eigenvalues --  -10.26971 -10.26769 -10.26597 -10.26440 -10.26370
 Alpha  occ. eigenvalues --  -10.26278 -10.26198 -10.26096 -10.26057 -10.25889
 Alpha  occ. eigenvalues --  -10.25866 -10.25865 -10.25788 -10.25455 -10.25360
 Alpha  occ. eigenvalues --  -10.24879 -10.24827 -10.24801 -10.24700 -10.24692
 Alpha  occ. eigenvalues --  -10.24622  -3.16582  -3.16336  -1.91464  -1.91218
 Alpha  occ. eigenvalues --   -1.91050  -1.90893  -1.90807  -1.90644  -1.16718
 Alpha  occ. eigenvalues --   -1.16565  -1.08687  -1.08587  -1.07250  -1.06915
 Alpha  occ. eigenvalues --   -1.06869  -1.06727  -1.04626  -1.04414  -1.03801
 Alpha  occ. eigenvalues --   -1.03589  -1.03276  -1.02969  -1.02453  -1.02039
 Alpha  occ. eigenvalues --   -0.92022  -0.91911  -0.89553  -0.89432  -0.89239
 Alpha  occ. eigenvalues --   -0.89046  -0.88318  -0.88163  -0.87915  -0.87724
 Alpha  occ. eigenvalues --   -0.87717  -0.87605  -0.87312  -0.87055  -0.85032
 Alpha  occ. eigenvalues --   -0.84909  -0.83968  -0.83822  -0.83000  -0.82875
 Alpha  occ. eigenvalues --   -0.82697  -0.82570  -0.81647  -0.81521  -0.80647
 Alpha  occ. eigenvalues --   -0.80368  -0.78838  -0.78566  -0.77260  -0.77065
 Alpha  occ. eigenvalues --   -0.76986  -0.76818  -0.75976  -0.75747  -0.74934
 Alpha  occ. eigenvalues --   -0.74742  -0.72816  -0.72626  -0.71715  -0.71502
 Alpha  occ. eigenvalues --   -0.69932  -0.69705  -0.68921  -0.68741  -0.67686
 Alpha  occ. eigenvalues --   -0.67531  -0.67271  -0.67118  -0.65338  -0.65182
 Alpha  occ. eigenvalues --   -0.64903  -0.64696  -0.64669  -0.64575  -0.64304
 Alpha  occ. eigenvalues --   -0.64142  -0.62362  -0.62205  -0.60479  -0.60276
 Alpha  occ. eigenvalues --   -0.59853  -0.59703  -0.59031  -0.58920  -0.58549
 Alpha  occ. eigenvalues --   -0.58354  -0.57645  -0.57479  -0.57351  -0.57173
 Alpha  occ. eigenvalues --   -0.56356  -0.56131  -0.56047  -0.55808  -0.55564
 Alpha  occ. eigenvalues --   -0.55383  -0.55381  -0.55186  -0.54575  -0.54424
 Alpha  occ. eigenvalues --   -0.53947  -0.53812  -0.53341  -0.53270  -0.53160
 Alpha  occ. eigenvalues --   -0.53064  -0.52969  -0.52825  -0.52797  -0.52594
 Alpha  occ. eigenvalues --   -0.52464  -0.52351  -0.51962  -0.51818  -0.51668
 Alpha  occ. eigenvalues --   -0.51573  -0.51244  -0.51129  -0.50606  -0.50413
 Alpha  occ. eigenvalues --   -0.50061  -0.49958  -0.49900  -0.49807  -0.49561
 Alpha  occ. eigenvalues --   -0.49411  -0.49263  -0.49146  -0.49122  -0.49012
 Alpha  occ. eigenvalues --   -0.48647  -0.48498  -0.48490  -0.48475  -0.48319
 Alpha  occ. eigenvalues --   -0.48274  -0.47739  -0.47518  -0.47339  -0.47049
 Alpha  occ. eigenvalues --   -0.46838  -0.46636  -0.46607  -0.46462  -0.46402
 Alpha  occ. eigenvalues --   -0.46208  -0.46202  -0.46020  -0.45878  -0.45747
 Alpha  occ. eigenvalues --   -0.45234  -0.45150  -0.44631  -0.44547  -0.44440
 Alpha  occ. eigenvalues --   -0.44390  -0.44185  -0.44135  -0.44068  -0.44041
 Alpha  occ. eigenvalues --   -0.44016  -0.43868  -0.43554  -0.43479  -0.43429
 Alpha  occ. eigenvalues --   -0.43306  -0.43072  -0.42856  -0.42827  -0.42767
 Alpha  occ. eigenvalues --   -0.42692  -0.42495  -0.42049  -0.41896  -0.41751
 Alpha  occ. eigenvalues --   -0.41595  -0.41583  -0.41375  -0.41185  -0.40913
 Alpha  occ. eigenvalues --   -0.40905  -0.40862  -0.40653  -0.40619  -0.40606
 Alpha  occ. eigenvalues --   -0.40427  -0.40290  -0.40137  -0.39464  -0.39374
 Alpha  occ. eigenvalues --   -0.38502  -0.38288  -0.37804  -0.37566  -0.37356
 Alpha  occ. eigenvalues --   -0.37315  -0.37199  -0.37113  -0.36781  -0.36698
 Alpha  occ. eigenvalues --   -0.36244  -0.36147  -0.34330  -0.34179  -0.33848
 Alpha  occ. eigenvalues --   -0.33787  -0.33232  -0.33102  -0.31379  -0.31220
 Alpha  occ. eigenvalues --   -0.31079  -0.30899  -0.30087  -0.29884  -0.29491
 Alpha  occ. eigenvalues --   -0.29368  -0.29259  -0.29141  -0.24124  -0.23961
 Alpha  occ. eigenvalues --   -0.21170  -0.21043
 Alpha virt. eigenvalues --   -0.08817  -0.08720  -0.01790  -0.01613  -0.00100
 Alpha virt. eigenvalues --    0.00041   0.02152   0.02276   0.03073   0.03292
 Alpha virt. eigenvalues --    0.04670   0.04816   0.05020   0.05242   0.06116

 Mulliken charges:
               1
     1  Mg   0.838614
     2  C   -0.003137
     3  C   -0.094133
     4  C   -0.045776
     5  C   -0.063887
     6  N   -0.256798
     7  C   -0.052528
     8  C   -0.013998
     9  C   -0.087022
    10  C    0.046306
    11  C    0.104787
    12  C    0.053472
    13  C   -0.071697
    14  H    0.035634
    15  N   -0.433151
    16  C    0.168450
    17  C   -0.177093
    18  C   -0.003921
    19  C    0.148708
    20  C    0.110149
    21  C    0.012323
    22  O   -0.249463
    23  C    0.062452
    24  N   -0.341139
    25  C    0.041285
    26  C   -0.028227
    27  C   -0.024019
    28  C    0.074844
    29  C    0.076127
    30  C    0.035108
    31  C   -0.004569
    32  N   -0.310418
    33  C    0.080320
    34  C   -0.169798
    35  C    0.008250
    36  C    0.082894
    37  C    0.127350
    38  C    0.045939
    39  O   -0.188748
    40  C   -0.005272
    41  C    0.212856
    42  O   -0.257523
    43  O   -0.304635
    44  C    0.157865
    45  H   -0.017518
    46  H   -0.016673
    47  H   -0.041376
    48  H    0.000895
    49  H   -0.004007
    50  H    0.025472
    51  H    0.016550
    52  H    0.016735
    53  H    0.011264
    54  H    0.043804
    55  H    0.017973
    56  H    0.018118
    57  H    0.005908
    58  H    0.026952
    59  H    0.039651
    60  H    0.037418
    61  H    0.035757
    62  H    0.031495
    63  H    0.016704
    64  H    0.009548
    65  H    0.023387
    66  H    0.012519
    67  H    0.004854
    68  H    0.006637
    69  H    0.004794
    70  H    0.008908
    71  H    0.018412
    72  H    0.028684
    73  H    0.047307
    74  H    0.009258
    75  H    0.046068
    76  H    0.035215
    77  H    0.042891
    78  H    0.046476
    79  H    0.053139
    80  Mg   0.837919
    81  C   -0.016793
    82  C   -0.087569
    83  C   -0.045644
    84  C   -0.064922
    85  N   -0.254621
    86  C   -0.049612
    87  C   -0.015147
    88  C   -0.090517
    89  C    0.045747
    90  C    0.114218
    91  C    0.062479
    92  C   -0.077895
    93  H    0.034596
    94  N   -0.423533
    95  C    0.162883
    96  C   -0.174434
    97  C   -0.008004
    98  C    0.152243
    99  C    0.099292
   100  C    0.015467
   101  O   -0.253507
   102  C    0.061245
   103  N   -0.350053
   104  C    0.037589
   105  C   -0.019808
   106  C   -0.034799
   107  C    0.088907
   108  C    0.073726
   109  C    0.034783
   110  C   -0.007627
   111  N   -0.324093
   112  C    0.078450
   113  C   -0.163196
   114  C    0.002269
   115  C    0.096176
   116  C    0.131484
   117  C    0.042324
   118  O   -0.188004
   119  C    0.000933
   120  C    0.211263
   121  O   -0.251162
   122  O   -0.305497
   123  C    0.152069
   124  H   -0.019084
   125  H   -0.015879
   126  H   -0.040626
   127  H   -0.000360
   128  H   -0.004242
   129  H    0.022664
   130  H    0.014735
   131  H    0.017362
   132  H    0.013786
   133  H    0.037465
   134  H    0.021187
   135  H    0.019684
   136  H    0.009128
   137  H    0.026167
   138  H    0.039617
   139  H    0.038258
   140  H    0.036078
   141  H    0.033904
   142  H    0.014196
   143  H    0.012388
   144  H    0.024723
   145  H    0.011719
   146  H    0.005589
   147  H    0.006003
   148  H    0.003606
   149  H    0.010801
   150  H    0.017790
   151  H    0.030242
   152  H    0.045856
   153  H    0.008364
   154  H    0.047010
   155  H    0.035334
   156  H    0.043844
   157  H    0.049655
   158  H    0.053411
 Sum of Mulliken charges =  -0.00000

 Dipole moment (field-independent basis, Debye):
    X=             -4.5272    Y=              1.4283    Z=              5.2215  Tot=              7.0569
 Quadrupole moment (field-independent basis, Debye-Ang):
   XX=           -518.5713   YY=           -502.0169   ZZ=           -497.1636
   XY=            -40.9502   XZ=              8.9152   YZ=             -3.2264

 Normal termination of Gaussian 16 at Sun Sep 12 08:48:18 2021.
