 Gaussian 16, Revision A.03,
 Gaussian 16:  ES64L-G16RevA.03 25-Dec-2016

 -----------------------------------
 #p cam-b3lyp/Def2SVP td=(nstates=5)
 -----------------------------------

 --------------------------------
 TDDFT excited states in gaussian
 --------------------------------
 Symbolic Z-matrix:
 Charge =  0 Multiplicity = 1

                         Standard orientation:
 ---------------------------------------------------------------------
 Center     Atomic      Atomic             Coordinates (Angstroms)
 Number     Number       Type             X           Y           Z
 ---------------------------------------------------------------------
      1         12           0       -6.539480   -0.711082    0.151597
      2          6           0       -6.703131    2.863020    0.257559
      3          6           0       -7.449781   -0.506941   -3.130589
      4          6           0       -6.844126   -3.867632    0.152337
      5          6           0       -6.760958   -0.677074    3.629448
      6          7           0       -6.989321    1.016317   -1.157747
      7          6           0       -6.957413    2.337167   -1.011088
      8          6           0       -7.145117    3.112115   -2.349593
      9          6           0       -7.919306    1.993819   -3.181486
     10          6           0       -7.395759    0.757416   -2.472169
     11          6           0       -9.434474    2.050684   -3.015551
     12          6           0       -5.778849    3.481340   -3.019454
     13          6           0       -5.862334    4.512445   -4.148704
     14          1           0       -4.778204    5.470559   -4.303718
     15          7           0       -6.589867   -1.993704   -1.350132
     16          6           0       -6.970941   -1.734546   -2.624065
     17          6           0       -6.833076   -3.010681   -3.358336
     18          6           0       -6.522582   -4.075981   -2.364946
     19          6           0       -6.667505   -3.350433   -1.128841
     20          6           0       -6.945576   -3.119110   -4.848080
     21          6           0       -6.164043   -5.521483   -2.506738
     22          8           0       -6.161798   -6.322608   -1.510361
     23          6           0       -5.897981   -6.001169   -3.875005
     24          7           0       -6.990342   -2.093848    1.649034
     25          6           0       -7.001665   -3.406984    1.395007
     26          6           0       -7.067317   -4.207623    2.661738
     27          6           0       -6.852772   -3.167215    3.853910
     28          6           0       -6.778504   -1.864534    3.019777
     29          6           0       -8.368534   -4.988096    2.893484
     30          6           0       -5.708151   -3.469305    4.853411
     31          6           0       -4.371701   -3.339950    4.157517
     32          7           0       -6.525782    0.802285    1.707417
     33          6           0       -6.652991    0.593097    3.088262
     34          6           0       -6.695987    1.922573    3.724433
     35          6           0       -6.606903    2.818798    2.661094
     36          6           0       -6.540573    2.095303    1.436167
     37          6           0       -6.862914    2.176275    5.114471
     38          6           0       -6.577135    4.219628    2.272963
     39          8           0       -6.509591    5.287387    2.883555
     40          6           0       -6.761020    4.305971    0.693546
     41          6           0       -5.709976    5.243184    0.164162
     42          8           0       -4.499965    4.942203    0.215644
     43          8           0       -6.301308    6.228944   -0.528042
     44          6           0       -5.312328    7.177916   -1.105559
     45          1           0       -7.956271   -0.578554   -4.095099
     46          1           0       -6.842921   -4.958222    0.207570
     47          1           0       -6.743983   -0.588787    4.717277
     48          1           0       -7.758304    4.010175   -2.272686
     49          1           0       -7.619235    1.985244   -4.229153
     50          1           0       -9.724699    2.770242   -2.250092
     51          1           0       -9.733367    1.043570   -2.724216
     52          1           0       -9.921903    2.243110   -3.971669
     53          1           0       -5.409387    2.622333   -3.579512
     54          1           0       -5.062355    3.822919   -2.271599
     55          1           0       -6.826141    5.022318   -4.152423
     56          1           0       -5.833603    3.980513   -5.099716
     57          1           0       -7.341760   -2.204471   -5.287421
     58          1           0       -7.705798   -3.871790   -5.056034
     59          1           0       -6.002721   -3.411330   -5.310642
     60          1           0       -6.779719   -5.832065   -4.493465
     61          1           0       -5.570821   -7.035274   -3.772818
     62          1           0       -5.098475   -5.400993   -4.310353
     63          1           0       -6.275790   -4.955229    2.693294
     64          1           0       -7.738601   -3.077886    4.483197
     65          1           0       -8.217969   -6.058911    3.032729
     66          1           0       -9.033053   -4.792740    2.052330
     67          1           0       -8.969886   -4.635728    3.731118
     68          1           0       -5.782682   -4.493637    5.216914
     69          1           0       -5.708520   -2.808804    5.720584
     70          1           0       -4.250503   -4.311898    3.680590
     71          1           0       -3.579633   -3.160716    4.885332
     72          1           0       -4.405721   -2.590728    3.366319
     73          1           0       -6.153180    2.963582    5.368229
     74          1           0       -6.685647    1.277734    5.705067
     75          1           0       -7.905616    2.492605    5.138210
     76          1           0       -7.769180    4.678726    0.515253
     77          1           0       -5.578033    8.173795   -0.750791
     78          1           0       -5.311867    7.007800   -2.182343
     79          1           0       -4.290068    7.093461   -0.735167
     80         12           0        6.695538   -0.847532   -0.005294
     81          6           0        6.530756    2.722055    0.326334
     82          6           0        5.785734   -0.436909   -3.266923
     83          6           0        6.392791   -3.999062   -0.214141
     84          6           0        6.465495   -1.041595    3.466753
     85          7           0        6.245192    0.958845   -1.199643
     86          6           0        6.275290    2.265250   -0.983440
     87          6           0        6.096433    3.132464   -2.258396
     88          6           0        5.315045    2.064374   -3.168054
     89          6           0        5.836325    0.776073   -2.534649
     90          6           0        3.806822    2.109132   -2.987484
     91          6           0        7.468465    3.539983   -2.901416
     92          6           0        7.379844    4.637344   -3.964299
     93          1           0        8.470659    5.603500   -4.059856
     94          7           0        6.648905   -2.030468   -1.598103
     95          6           0        6.275427   -1.694375   -2.850640
     96          6           0        6.398101   -2.923017   -3.650377
     97          6           0        6.716436   -4.050341   -2.732487
     98          6           0        6.574777   -3.393078   -1.448741
     99          6           0        6.295290   -2.932778   -5.147960
    100          6           0        7.074899   -5.486003   -2.970359
    101          8           0        7.077502   -6.345776   -2.019773
    102          6           0        7.331848   -5.875221   -4.364629
    103          7           0        6.250550   -2.317198    1.396274
    104          6           0        6.233232   -3.617149    1.053139
    105          6           0        6.163349   -4.502764    2.274282
    106          6           0        6.382183   -3.529282    3.524090
    107          6           0        6.454931   -2.176863    2.781753
    108          6           0        4.860766   -5.281217    2.457817
    109          6           0        7.526646   -3.894510    4.508712
    110          6           0        8.865805   -3.733990    3.825878
    111          7           0        6.713483    0.557832    1.635652
    112          6           0        6.578283    0.265517    3.010554
    113          6           0        6.535804    1.556243    3.727942
    114          6           0        6.626792    2.517981    2.710461
    115          6           0        6.699115    1.872538    1.446477
    116          6           0        6.378299    1.722346    5.132841
    117          6           0        6.667411    3.932622    2.417466
    118          8           0        6.727850    4.958479    3.094009
    119          6           0        6.479635    4.129955    0.851521
    120          6           0        7.531526    5.093976    0.375407
    121          8           0        8.736196    4.788683    0.421976
    122          8           0        6.934269    6.122446   -0.253806
    123          6           0        7.937230    7.100074   -0.753927
    124          1           0        5.286170   -0.437387   -4.236112
    125          1           0        6.393182   -5.091507   -0.220481
    126          1           0        6.493662   -1.018636    4.558244
    127          1           0        5.489798    4.019815   -2.122797
    128          1           0        5.624077    2.130137   -4.208023
    129          1           0        3.516424    2.773316   -2.187069
    130          1           0        3.507050    1.093627   -2.764032
    131          1           0        3.321349    2.365426   -3.933504
    132          1           0        7.835278    2.709781   -3.518631
    133          1           0        8.173775    3.825393   -2.145310
    134          1           0        6.411350    5.151757   -3.945897
    135          1           0        7.415693    4.168684   -4.950757
    136          1           0        5.892806   -1.986374   -5.529704
    137          1           0        5.535872   -3.676879   -5.411489
    138          1           0        7.236255   -3.201071   -5.633017
    139          1           0        6.452288   -5.661369   -4.967210
    140          1           0        7.659208   -6.915833   -4.321950
    141          1           0        8.142249   -5.251591   -4.758280
    142          1           0        6.954910   -5.241928    2.261748
    143          1           0        5.491614   -3.486692    4.168230
    144          1           0        5.012065   -6.374985    2.527559
    145          1           0        4.200402   -5.040364    1.635352
    146          1           0        4.267338   -4.991007    3.323167
    147          1           0        7.452277   -4.944219    4.803231
    148          1           0        7.518814   -3.303462    5.418434
    149          1           0        8.981213   -4.677510    3.284071
    150          1           0        9.657172   -3.601577    4.560895
    151          1           0        8.834622   -2.928790    3.082693
    152          1           0        7.081088    2.486714    5.436705
    153          1           0        6.549877    0.789127    5.665229
    154          1           0        5.331030    2.033154    5.176293
    155          1           0        5.470897    4.511112    0.688002
    156          1           0        7.668427    8.075387   -0.336556
    157          1           0        7.925270    7.003119   -1.855834
    158          1           0        8.957612    6.994458   -0.404487
 ---------------------------------------------------------------------

 SCF Done:  E(RCAM-B3LYP) =  -4069.81160051     A.U. after   19 cycles

 Excitation energies and oscillator strengths:

 Excited State   1:      Singlet-A      1.6654 eV  744.45 nm  f=0.0067  <S**2>=0.000
     309 -> 315       -0.11015
     310 -> 316        0.13125
     311 -> 313       -0.43974
     312 -> 314        0.52733
 This state for optimization and/or second-order correction.
 Total Energy, E(TD-HF/TD-DFT) =  -4069.75039683
 Copying the excited state density for this state as the 1-particle RhoCI density.

 Excited State   2:      Singlet-A      1.6893 eV  733.95 nm  f=0.7370  <S**2>=0.000
     309 -> 315        0.13678
     310 -> 316        0.11330
     311 -> 313        0.52613
     312 -> 314        0.43883

 Excited State   3:      Singlet-A      2.1845 eV  567.56 nm  f=0.0402  <S**2>=0.000
     309 -> 313       -0.20024
     310 -> 314        0.61117
     312 -> 316       -0.25843

 Excited State   4:      Singlet-A      2.1934 eV  565.25 nm  f=0.1485  <S**2>=0.000
     309 -> 313        0.60868
     310 -> 314        0.19845
     311 -> 315       -0.26534

 Excited State   5:      Singlet-A      2.6492 eV  468.01 nm  f=0.0000  <S**2>=0.000
     312 -> 313        0.70710

 The electronic state is 1-A.
 Alpha  occ. eigenvalues --  -46.87852 -46.87548 -19.26333 -19.26227 -19.19069
 Alpha  occ. eigenvalues --  -19.19042 -19.18867 -19.18628 -19.18209 -19.17918
 Alpha  occ. eigenvalues --  -14.42508 -14.42385 -14.41503 -14.41248 -14.39458
 Alpha  occ. eigenvalues --  -14.39243 -14.38639 -14.38484 -10.39129 -10.38968
 Alpha  occ. eigenvalues --  -10.35501 -10.35308 -10.34430 -10.34094 -10.31729
 Alpha  occ. eigenvalues --  -10.31645 -10.31462 -10.31190 -10.30971 -10.30915
 Alpha  occ. eigenvalues --  -10.30623 -10.30558 -10.30285 -10.30261 -10.30245
 Alpha  occ. eigenvalues --  -10.30040 -10.29968 -10.29780 -10.29682 -10.29332
 Alpha  occ. eigenvalues --  -10.29309 -10.29292 -10.28823 -10.28647 -10.28604
 Alpha  occ. eigenvalues --  -10.28574 -10.28419 -10.28291 -10.28185 -10.28022
 Alpha  occ. eigenvalues --  -10.27887 -10.27843 -10.27785 -10.27638 -10.27561
 Alpha  occ. eigenvalues --  -10.27553 -10.27547 -10.27493 -10.27458 -10.27422
 Alpha  occ. eigenvalues --  -10.27400 -10.27369 -10.27362 -10.27276 -10.27205
 Alpha  occ. eigenvalues --  -10.26911 -10.26802 -10.26598 -10.26470 -10.26355
 Alpha  occ. eigenvalues --  -10.26295 -10.26229 -10.26071 -10.26054 -10.25877
 Alpha  occ. eigenvalues --  -10.25872 -10.25826 -10.25717 -10.25473 -10.25295
 Alpha  occ. eigenvalues --  -10.24881 -10.24839 -10.24755 -10.24738 -10.24652
 Alpha  occ. eigenvalues --  -10.24580  -3.16595  -3.16298  -1.91477  -1.91181
 Alpha  occ. eigenvalues --   -1.91063  -1.90905  -1.90769  -1.90606  -1.16682
 Alpha  occ. eigenvalues --   -1.16521  -1.08665  -1.08522  -1.07267  -1.06882
 Alpha  occ. eigenvalues --   -1.06825  -1.06691  -1.04639  -1.04382  -1.03815
 Alpha  occ. eigenvalues --   -1.03552  -1.03287  -1.02928  -1.02464  -1.01999
 Alpha  occ. eigenvalues --   -0.92024  -0.91867  -0.89569  -0.89390  -0.89258
 Alpha  occ. eigenvalues --   -0.89036  -0.88336  -0.88119  -0.87915  -0.87733
 Alpha  occ. eigenvalues --   -0.87673  -0.87576  -0.87332  -0.87030  -0.85050
 Alpha  occ. eigenvalues --   -0.84891  -0.83984  -0.83776  -0.83023  -0.82849
 Alpha  occ. eigenvalues --   -0.82711  -0.82548  -0.81638  -0.81481  -0.80651
 Alpha  occ. eigenvalues --   -0.80333  -0.78852  -0.78535  -0.77276  -0.77039
 Alpha  occ. eigenvalues --   -0.76995  -0.76789  -0.75980  -0.75723  -0.74946
 Alpha  occ. eigenvalues --   -0.74697  -0.72826  -0.72587  -0.71726  -0.71467
 Alpha  occ. eigenvalues --   -0.69956  -0.69663  -0.68937  -0.68720  -0.67694
 Alpha  occ. eigenvalues --   -0.67494  -0.67294  -0.67105  -0.65352  -0.65160
 Alpha  occ. eigenvalues --   -0.64907  -0.64677  -0.64660  -0.64544  -0.64320
 Alpha  occ. eigenvalues --   -0.64100  -0.62348  -0.62164  -0.60497  -0.60243
 Alpha  occ. eigenvalues --   -0.59868  -0.59682  -0.59040  -0.58881  -0.58556
 Alpha  occ. eigenvalues --   -0.58314  -0.57632  -0.57428  -0.57359  -0.57130
 Alpha  occ. eigenvalues --   -0.56362  -0.56096  -0.56034  -0.55775  -0.55575
 Alpha  occ. eigenvalues --   -0.55386  -0.55350  -0.55139  -0.54572  -0.54380
 Alpha  occ. eigenvalues --   -0.53965  -0.53801  -0.53352  -0.53283  -0.53124
 Alpha  occ. eigenvalues --   -0.53036  -0.52969  -0.52819  -0.52794  -0.52580
 Alpha  occ. eigenvalues --   -0.52486  -0.52309  -0.51953  -0.51757  -0.51684
 Alpha  occ. eigenvalues --   -0.51557  -0.51247  -0.51088  -0.50635  -0.50397
 Alpha  occ. eigenvalues --   -0.50083  -0.49977  -0.49877  -0.49769  -0.49575
 Alpha  occ. eigenvalues --   -0.49387  -0.49267  -0.49156  -0.49090  -0.48984
 Alpha  occ. eigenvalues --   -0.48644  -0.48511  -0.48495  -0.48443  -0.48271
 Alpha  occ. eigenvalues --   -0.48242  -0.47753  -0.47492  -0.47351  -0.47020
 Alpha  occ. eigenvalues --   -0.46852  -0.46624  -0.46603  -0.46448  -0.46411
 Alpha  occ. eigenvalues --   -0.46210  -0.46166  -0.45972  -0.45869  -0.45702
 Alpha  occ. eigenvalues --   -0.45249  -0.45104  -0.44626  -0.44568  -0.44401
 Alpha  occ. eigenvalues --   -0.44370  -0.44198  -0.44152  -0.44071  -0.44014
 Alpha  occ. eigenvalues --   -0.43980  -0.43837  -0.43544  -0.43446  -0.43441
 Alpha  occ. eigenvalues --   -0.43275  -0.43079  -0.42817  -0.42783  -0.42748
 Alpha  occ. eigenvalues --   -0.42704  -0.42456  -0.42064  -0.41863  -0.41755
 Alpha  occ. eigenvalues --   -0.41602  -0.41551  -0.41355  -0.41196  -0.40934
 Alpha  occ. eigenvalues --   -0.40884  -0.40876  -0.40632  -0.40623  -0.40599
 Alpha  occ. eigenvalues --   -0.40389  -0.40319  -0.40131  -0.39491  -0.39333
 Alpha  occ. eigenvalues --   -0.38523  -0.38249  -0.37827  -0.37555  -0.37373
 Alpha  occ. eigenvalues --   -0.37330  -0.37161  -0.37091  -0.36763  -0.36656
 Alpha  occ. eigenvalues --   -0.36245  -0.36109  -0.34340  -0.34141  -0.33821
 Alpha  occ. eigenvalues --   -0.33744  -0.33239  -0.33064  -0.31396  -0.31186
 Alpha  occ. eigenvalues --   -0.31089  -0.30861  -0.30068  -0.29821  -0.29502
 Alpha  occ. eigenvalues --   -0.29370  -0.29223  -0.29093  -0.24135  -0.23922
 Alpha  occ. eigenvalues --   -0.21182  -0.21006
 Alpha virt. eigenvalues --   -0.08827  -0.08681  -0.01804  -0.01575  -0.00113
 Alpha virt. eigenvalues --    0.00073   0.02155   0.02329   0.03056   0.03327
 Alpha virt. eigenvalues --    0.04652   0.04840   0.05049   0.05288   0.06093

 Mulliken charges:
               1
     1  Mg   0.838538
     2  C   -0.003077
     3  C   -0.094455
     4  C   -0.045772
     5  C   -0.063884
     6  N   -0.256734
     7  C   -0.052565
     8  C   -0.013954
     9  C   -0.086942
    10  C    0.046174
    11  C    0.104804
    12  C    0.053610
    13  C   -0.071547
    14  H    0.035469
    15  N   -0.433129
    16  C    0.168294
    17  C   -0.177382
    18  C   -0.004018
    19  C    0.148631
    20  C    0.110233
    21  C    0.012293
    22  O   -0.249408
    23  C    0.062534
    24  N   -0.341136
    25  C    0.041194
    26  C   -0.028190
    27  C   -0.024040
    28  C    0.074892
    29  C    0.076121
    30  C    0.035098
    31  C   -0.004498
    32  N   -0.310532
    33  C    0.080463
    34  C   -0.169477
    35  C    0.008532
    36  C    0.083008
    37  C    0.127244
    38  C    0.046321
    39  O   -0.187914
    40  C   -0.005402
    41  C    0.213000
    42  O   -0.257184
    43  O   -0.304773
    44  C    0.157593
    45  H   -0.017703
    46  H   -0.016718
    47  H   -0.041289
    48  H    0.001099
    49  H   -0.004359
    50  H    0.025606
    51  H    0.016569
    52  H    0.016624
    53  H    0.010659
    54  H    0.044008
    55  H    0.018235
    56  H    0.017601
    57  H    0.005681
    58  H    0.026934
    59  H    0.039003
    60  H    0.037328
    61  H    0.035862
    62  H    0.031070
    63  H    0.016612
    64  H    0.009607
    65  H    0.023320
    66  H    0.012565
    67  H    0.004848
    68  H    0.006451
    69  H    0.004851
    70  H    0.008825
    71  H    0.017975
    72  H    0.028956
    73  H    0.048004
    74  H    0.009196
    75  H    0.046141
    76  H    0.035247
    77  H    0.043320
    78  H    0.046019
    79  H    0.053815
    80  Mg   0.838071
    81  C   -0.016665
    82  C   -0.087851
    83  C   -0.045560
    84  C   -0.064755
    85  N   -0.254563
    86  C   -0.049391
    87  C   -0.015152
    88  C   -0.090651
    89  C    0.045912
    90  C    0.114373
    91  C    0.062584
    92  C   -0.077662
    93  H    0.034540
    94  N   -0.423456
    95  C    0.162861
    96  C   -0.174945
    97  C   -0.008003
    98  C    0.152053
    99  C    0.099558
   100  C    0.015396
   101  O   -0.253331
   102  C    0.061296
   103  N   -0.350005
   104  C    0.037523
   105  C   -0.019814
   106  C   -0.034816
   107  C    0.089056
   108  C    0.073668
   109  C    0.034755
   110  C   -0.007624
   111  N   -0.324235
   112  C    0.078709
   113  C   -0.162833
   114  C    0.002704
   115  C    0.096207
   116  C    0.131344
   117  C    0.042890
   118  O   -0.187347
   119  C    0.000708
   120  C    0.211143
   121  O   -0.251351
   122  O   -0.305299
   123  C    0.152150
   124  H   -0.020221
   125  H   -0.015753
   126  H   -0.040475
   127  H   -0.000106
   128  H   -0.004960
   129  H    0.024157
   130  H    0.014501
   131  H    0.015494
   132  H    0.013664
   133  H    0.037635
   134  H    0.020891
   135  H    0.019183
   136  H    0.008363
   137  H    0.025532
   138  H    0.039425
   139  H    0.037917
   140  H    0.036129
   141  H    0.033743
   142  H    0.014159
   143  H    0.012476
   144  H    0.024914
   145  H    0.011967
   146  H    0.005613
   147  H    0.006059
   148  H    0.003599
   149  H    0.010818
   150  H    0.017749
   151  H    0.030180
   152  H    0.045910
   153  H    0.008200
   154  H    0.048054
   155  H    0.036428
   156  H    0.044029
   157  H    0.049199
   158  H    0.053337
 Sum of Mulliken charges =  -0.00000

 Dipole moment (field-independent basis, Debye):
    X=             -4.1860    Y=             -2.2623    Z=             -7.5078  Tot=              8.8886
 Quadrupole moment (field-independent basis, Debye-Ang):
   XX=           -517.8157   YY=           -551.5499   ZZ=           -447.6416
   XY=             -3.7032   XZ=              0.2526   YZ=            -48.4611

 Normal termination of Gaussian 16 at Sat Sep  4 10:57:55 2021.
