 Gaussian 16, Revision A.03,
 Gaussian 16:  ES64L-G16RevA.03 25-Dec-2016

 -----------------------------------
 #p cam-b3lyp/Def2SVP td=(nstates=5)
 -----------------------------------

 --------------------------------
 TDDFT excited states in gaussian
 --------------------------------
 Symbolic Z-matrix:
 Charge =  0 Multiplicity = 1

                         Standard orientation:
 ---------------------------------------------------------------------
 Center     Atomic      Atomic             Coordinates (Angstroms)
 Number     Number       Type             X           Y           Z
 ---------------------------------------------------------------------
      1         12           0        6.782318   -0.433630    0.017669
      2          6           0        6.822420    2.822057   -1.469312
      3          6           0        7.638158    1.063622    2.961958
      4          6           0        7.197100   -3.328654    1.243806
      5          6           0        7.051908   -1.744916   -3.200018
      6          7           0        7.152834    1.682368    0.552381
      7          6           0        7.076862    2.840300   -0.096150
      8          6           0        7.218308    4.080812    0.835781
      9          6           0        8.019206    3.403558    2.036566
     10          6           0        7.549341    1.969916    1.863879
     11          6           0        9.533667    3.448632    1.860841
     12          6           0        5.830579    4.629405    1.310109
     13          6           0        5.861902    6.020544    1.949721
     14          1           0        4.742847    6.921982    1.720647
     15          7           0        6.856149   -1.029298    1.899842
     16          6           0        7.209776   -0.281459    2.972675
     17          6           0        7.106176   -1.176373    4.145311
     18          6           0        6.847270   -2.554788    3.644277
     19          6           0        6.984305   -2.361466    2.223282
     20          6           0        7.201201   -0.693274    5.559997
     21          6           0        6.537500   -3.844111    4.336968
     22          8           0        6.577430   -4.968828    3.730346
     23          6           0        6.268938   -3.764300    5.784222
     24          7           0        7.302490   -2.271399   -0.824744
     25          6           0        7.356096   -3.381299   -0.080276
     26          6           0        7.467703   -4.608025   -0.936213
     27          6           0        7.233896   -4.121312   -2.438943
     28          6           0        7.102281   -2.600723   -2.176728
     29          6           0        8.798572   -5.367524   -0.846994
     30          6           0        6.114864   -4.830890   -3.241866
     31          6           0        4.764948   -4.491909   -2.650327
     32          7           0        6.737853    0.354858   -2.004052
     33          6           0        6.891920   -0.369324   -3.195059
     34          6           0        6.897458    0.609228   -4.297998
     35          6           0        6.761987    1.844069   -3.666602
     36          6           0        6.703576    1.651262   -2.256742
     37          6           0        7.075166    0.309157   -5.677422
     38          6           0        6.677752    3.283456   -3.853488
     39          8           0        6.581614    4.026810   -4.831074
     40          6           0        6.836027    3.983407   -2.431924
     41          6           0        5.745441    5.012273   -2.307959
     42          8           0        4.547546    4.669502   -2.237812
     43          8           0        6.292049    6.211059   -2.053645
     44          6           0        5.262388    7.271790   -1.889933
     45          1           0        8.133075    1.391461    3.878211
     46          1           0        7.234805   -4.354259    1.616834
     47          1           0        7.047329   -2.086833   -4.236611
     48          1           0        7.800758    4.900920    0.415543
     49          1           0        7.704750    3.791300    3.005326
     50          1           0        9.809417    3.824742    0.875740
     51          1           0        9.871696    2.419494    1.983741
     52          1           0       10.000425    4.015591    2.666738
     53          1           0        5.483445    4.042127    2.160205
     54          1           0        5.113291    4.626358    0.488638
     55          1           0        6.807146    6.527798    1.754489
     56          1           0        5.838262    5.899127    3.032726
     57          1           0        7.558882    0.334442    5.609072
     58          1           0        7.984235   -1.276800    6.043800
     59          1           0        6.262655   -0.818220    6.100230
     60          1           0        7.135341   -3.335096    6.287888
     61          1           0        5.979613   -4.768439    6.092192
     62          1           0        5.442830   -3.072780    5.952432
     63          1           0        6.703323   -5.338472   -0.674305
     64          1           0        8.124920   -4.250083   -3.053897
     65          1           0        8.687527   -6.413193   -0.558984
     66          1           0        9.443827   -4.835842   -0.148244
     67          1           0        9.399089   -5.345782   -1.756017
     68          1           0        6.230319   -5.912380   -3.178657
     69          1           0        6.104476   -4.559603   -4.297587
     70          1           0        4.671030   -5.206094   -1.833044
     71          1           0        3.977529   -4.639494   -3.390193
     72          1           0        4.761502   -3.493480   -2.212590
     73          1           0        6.342024    0.908677   -6.216911
     74          1           0        6.937834   -0.754232   -5.872222
     75          1           0        8.106405    0.630528   -5.822760
     76          1           0        7.827903    4.433903   -2.413033
     77          1           0        5.498137    8.060913   -2.604035
     78          1           0        5.252561    7.533419   -0.831700
     79          1           0        4.249076    7.011580   -2.197873
     80         12           0       -6.433055   -0.999235    0.226137
     81          6           0       -8.723960    1.750495   -0.038155
     82          6           0       -4.045902    1.269243    1.115033
     83          6           0       -4.287907   -3.329001    0.031275
     84          6           0       -8.635522   -2.843279   -1.747275
     85          7           0       -6.498464    1.197863    0.472563
     86          6           0       -7.439214    2.127804    0.405130
     87          6           0       -6.998524    3.526594    0.913816
     88          6           0       -5.415181    3.375043    0.692641
     89          6           0       -5.297598    1.856091    0.800442
     90          6           0       -4.958794    3.792109   -0.695559
     91          6           0       -7.348369    3.749825    2.427026
     92          6           0       -7.228483    5.197594    2.907992
     93          1           0       -8.177916    5.679959    3.907186
     94          7           0       -4.603308   -1.126916    0.983972
     95          6           0       -3.783187   -0.104977    1.306950
     96          6           0       -2.545214   -0.724491    1.804736
     97          6           0       -2.639234   -2.194818    1.594903
     98          6           0       -3.865151   -2.273523    0.826140
     99          6           0       -1.458034    0.059157    2.481017
    100          6           0       -1.763162   -3.339329    2.005745
    101          8           0       -1.911936   -4.512446    1.511284
    102          6           0       -0.666737   -3.025493    2.933569
    103          7           0       -6.350987   -2.750442   -0.891398
    104          6           0       -5.331085   -3.614841   -0.748065
    105          6           0       -5.623097   -4.923164   -1.443364
    106          6           0       -7.159315   -4.843738   -1.880740
    107          6           0       -7.479103   -3.404247   -1.421404
    108          6           0       -4.761183   -5.233043   -2.667064
    109          6           0       -8.087077   -5.994866   -1.404490
    110          6           0       -8.248820   -5.939487    0.097565
    111          7           0       -8.417176   -0.708370   -0.578045
    112          6           0       -9.143157   -1.597781   -1.400233
    113          6           0      -10.393299   -0.911784   -1.786216
    114          6           0      -10.296584    0.347783   -1.175796
    115          6           0       -9.063456    0.447694   -0.476578
    116          6           0      -11.404262   -1.441327   -2.636893
    117          6           0      -10.952504    1.619493   -0.972735
    118          8           0      -12.057957    2.081267   -1.252838
    119          6           0       -9.906980    2.630715   -0.331878
    120          6           0      -10.575181    3.316510    0.828164
    121          8           0      -10.911587    2.670209    1.836013
    122          8           0      -10.510191    4.648512    0.649506
    123          6           0      -11.150100    5.372729    1.779922
    124          1           0       -3.171105    1.916796    1.180514
    125          1           0       -3.632677   -4.203088    0.020549
    126          1           0       -9.418476   -3.387048   -2.280161
    127          1           0       -7.376730    4.360463    0.334681
    128          1           0       -4.856909    3.858264    1.490258
    129          1           0       -5.793221    4.010621   -1.345276
    130          1           0       -4.387892    2.957373   -1.080682
    131          1           0       -4.258775    4.629685   -0.626440
    132          1           0       -6.573045    3.281171    3.046692
    133          1           0       -8.327999    3.374598    2.650959
    134          1           0       -7.157099    5.904851    2.072739
    135          1           0       -6.278703    5.310179    3.436435
    136          1           0       -1.594550    1.138756    2.342348
    137          1           0       -0.525270   -0.166712    1.953003
    138          1           0       -1.340941   -0.205256    3.534125
    139          1           0       -0.020919   -2.272621    2.487968
    140          1           0       -0.208332   -3.985295    3.179575
    141          1           0       -1.091938   -2.579155    3.839429
    142          1           0       -5.493262   -5.758404   -0.766147
    143          1           0       -7.272698   -4.856996   -2.974728
    144          1           0       -4.218873   -6.194058   -2.586925
    145          1           0       -4.067198   -4.415703   -2.811588
    146          1           0       -5.295601   -5.252766   -3.615332
    147          1           0       -7.636063   -6.963743   -1.632566
    148          1           0       -9.067808   -5.979061   -1.868059
    149          1           0       -7.356914   -6.458557    0.461111
    150          1           0       -9.157346   -6.453832    0.404244
    151          1           0       -8.200003   -4.906377    0.460834
    152          1           0      -12.354255   -1.201887   -2.177895
    153          1           0      -11.287061   -2.514347   -2.773491
    154          1           0      -11.197163   -0.885575   -3.555324
    155          1           0       -9.613618    3.335815   -1.110568
    156          1           0      -11.912655    6.028497    1.348460
    157          1           0      -10.322353    5.857286    2.331097
    158          1           0      -11.741438    4.790964    2.477289
 ---------------------------------------------------------------------

 SCF Done:  E(RCAM-B3LYP) =  -4069.81181261     A.U. after   19 cycles

 Excitation energies and oscillator strengths:

 Excited State   1:      Singlet-A      1.6690 eV  742.85 nm  f=0.2471  <S**2>=0.000
     309 -> 315       -0.10533
     310 -> 316        0.13635
     311 -> 313       -0.41822
     312 -> 314        0.54433
 This state for optimization and/or second-order correction.
 Total Energy, E(TD-HF/TD-DFT) =  -4069.75047680
 Copying the excited state density for this state as the 1-particle RhoCI density.

 Excited State   2:      Singlet-A      1.6845 eV  736.05 nm  f=0.5295  <S**2>=0.000
     309 -> 315        0.14068
     310 -> 316        0.10705
     311 -> 313        0.54344
     312 -> 314        0.41762

 Excited State   3:      Singlet-A      2.1850 eV  567.43 nm  f=0.0375  <S**2>=0.000
     309 -> 313        0.21195
     310 -> 314        0.60737
     312 -> 316       -0.25682

 Excited State   4:      Singlet-A      2.1941 eV  565.09 nm  f=0.1504  <S**2>=0.000
     309 -> 313        0.60473
     310 -> 314       -0.21012
     311 -> 315       -0.26402

 Excited State   5:      Singlet-A      2.6004 eV  476.79 nm  f=0.0000  <S**2>=0.000
     312 -> 313        0.70692

 The electronic state is 1-A.
 Alpha  occ. eigenvalues --  -46.87969 -46.87545 -19.26508 -19.26271 -19.19251
 Alpha  occ. eigenvalues --  -19.19078 -19.18951 -19.18598 -19.18340 -19.17948
 Alpha  occ. eigenvalues --  -14.42624 -14.42378 -14.41602 -14.41245 -14.39574
 Alpha  occ. eigenvalues --  -14.39235 -14.38755 -14.38487 -10.39304 -10.39006
 Alpha  occ. eigenvalues --  -10.35584 -10.35276 -10.34562 -10.34126 -10.31912
 Alpha  occ. eigenvalues --  -10.31690 -10.31580 -10.31187 -10.31092 -10.30903
 Alpha  occ. eigenvalues --  -10.30739 -10.30664 -10.30347 -10.30287 -10.30246
 Alpha  occ. eigenvalues --  -10.30059 -10.30026 -10.29789 -10.29787 -10.29415
 Alpha  occ. eigenvalues --  -10.29318 -10.29290 -10.28959 -10.28806 -10.28602
 Alpha  occ. eigenvalues --  -10.28583 -10.28538 -10.28308 -10.28288 -10.28001
 Alpha  occ. eigenvalues --  -10.27956 -10.27896 -10.27886 -10.27746 -10.27656
 Alpha  occ. eigenvalues --  -10.27586 -10.27576 -10.27539 -10.27533 -10.27420
 Alpha  occ. eigenvalues --  -10.27370 -10.27353 -10.27344 -10.27344 -10.27277
 Alpha  occ. eigenvalues --  -10.26970 -10.26948 -10.26603 -10.26553 -10.26402
 Alpha  occ. eigenvalues --  -10.26303 -10.26223 -10.26165 -10.26055 -10.25977
 Alpha  occ. eigenvalues --  -10.25835 -10.25823 -10.25754 -10.25509 -10.25298
 Alpha  occ. eigenvalues --  -10.24998 -10.24936 -10.24760 -10.24691 -10.24654
 Alpha  occ. eigenvalues --  -10.24577  -3.16713  -3.16295  -1.91595  -1.91181
 Alpha  occ. eigenvalues --   -1.91177  -1.91023  -1.90766  -1.90603  -1.16857
 Alpha  occ. eigenvalues --   -1.16563  -1.08801  -1.08558  -1.07350  -1.06870
 Alpha  occ. eigenvalues --   -1.06862  -1.06849  -1.04756  -1.04376  -1.03918
 Alpha  occ. eigenvalues --   -1.03548  -1.03396  -1.02926  -1.02571  -1.01997
 Alpha  occ. eigenvalues --   -0.92145  -0.91876  -0.89639  -0.89390  -0.89385
 Alpha  occ. eigenvalues --   -0.89026  -0.88398  -0.88118  -0.88027  -0.87844
 Alpha  occ. eigenvalues --   -0.87686  -0.87568  -0.87435  -0.87004  -0.85172
 Alpha  occ. eigenvalues --   -0.84885  -0.84038  -0.83779  -0.83103  -0.82824
 Alpha  occ. eigenvalues --   -0.82822  -0.82538  -0.81772  -0.81500  -0.80769
 Alpha  occ. eigenvalues --   -0.80338  -0.78958  -0.78521  -0.77375  -0.77107
 Alpha  occ. eigenvalues --   -0.77033  -0.76795  -0.76102  -0.75721  -0.75018
 Alpha  occ. eigenvalues --   -0.74699  -0.72928  -0.72586  -0.71828  -0.71464
 Alpha  occ. eigenvalues --   -0.69987  -0.69662  -0.69053  -0.68714  -0.67804
 Alpha  occ. eigenvalues --   -0.67493  -0.67421  -0.67097  -0.65477  -0.65160
 Alpha  occ. eigenvalues --   -0.65021  -0.64785  -0.64661  -0.64547  -0.64390
 Alpha  occ. eigenvalues --   -0.64101  -0.62482  -0.62184  -0.60591  -0.60228
 Alpha  occ. eigenvalues --   -0.59990  -0.59676  -0.59144  -0.58882  -0.58663
 Alpha  occ. eigenvalues --   -0.58317  -0.57770  -0.57455  -0.57451  -0.57132
 Alpha  occ. eigenvalues --   -0.56473  -0.56181  -0.56094  -0.55791  -0.55681
 Alpha  occ. eigenvalues --   -0.55472  -0.55344  -0.55150  -0.54671  -0.54395
 Alpha  occ. eigenvalues --   -0.54094  -0.53792  -0.53452  -0.53402  -0.53119
 Alpha  occ. eigenvalues --   -0.53091  -0.53032  -0.52927  -0.52798  -0.52550
 Alpha  occ. eigenvalues --   -0.52511  -0.52311  -0.52063  -0.51810  -0.51783
 Alpha  occ. eigenvalues --   -0.51548  -0.51353  -0.51097  -0.50727  -0.50363
 Alpha  occ. eigenvalues --   -0.50150  -0.50065  -0.49862  -0.49760  -0.49688
 Alpha  occ. eigenvalues --   -0.49385  -0.49371  -0.49274  -0.49087  -0.48987
 Alpha  occ. eigenvalues --   -0.48769  -0.48603  -0.48583  -0.48447  -0.48276
 Alpha  occ. eigenvalues --   -0.48225  -0.47855  -0.47482  -0.47451  -0.47005
 Alpha  occ. eigenvalues --   -0.46947  -0.46749  -0.46600  -0.46513  -0.46438
 Alpha  occ. eigenvalues --   -0.46311  -0.46162  -0.45994  -0.45984  -0.45722
 Alpha  occ. eigenvalues --   -0.45316  -0.45104  -0.44747  -0.44662  -0.44410
 Alpha  occ. eigenvalues --   -0.44361  -0.44291  -0.44252  -0.44184  -0.44009
 Alpha  occ. eigenvalues --   -0.43976  -0.43828  -0.43671  -0.43548  -0.43459
 Alpha  occ. eigenvalues --   -0.43275  -0.43184  -0.42896  -0.42838  -0.42796
 Alpha  occ. eigenvalues --   -0.42760  -0.42450  -0.42140  -0.41866  -0.41865
 Alpha  occ. eigenvalues --   -0.41715  -0.41561  -0.41352  -0.41301  -0.41039
 Alpha  occ. eigenvalues --   -0.40980  -0.40868  -0.40685  -0.40613  -0.40588
 Alpha  occ. eigenvalues --   -0.40459  -0.40389  -0.40127  -0.39510  -0.39333
 Alpha  occ. eigenvalues --   -0.38593  -0.38247  -0.37963  -0.37555  -0.37458
 Alpha  occ. eigenvalues --   -0.37450  -0.37160  -0.37087  -0.36905  -0.36685
 Alpha  occ. eigenvalues --   -0.36355  -0.36115  -0.34450  -0.34141  -0.33990
 Alpha  occ. eigenvalues --   -0.33773  -0.33352  -0.33061  -0.31480  -0.31197
 Alpha  occ. eigenvalues --   -0.31156  -0.30858  -0.30201  -0.29854  -0.29614
 Alpha  occ. eigenvalues --   -0.29487  -0.29212  -0.29100  -0.24246  -0.23920
 Alpha  occ. eigenvalues --   -0.21289  -0.21001
 Alpha virt. eigenvalues --   -0.08937  -0.08677  -0.01907  -0.01569  -0.00221
 Alpha virt. eigenvalues --    0.00089   0.02041   0.02314   0.02868   0.03322
 Alpha virt. eigenvalues --    0.04533   0.04845   0.04881   0.05253   0.05951

 Mulliken charges:
               1
     1  Mg   0.837189
     2  C   -0.003615
     3  C   -0.094829
     4  C   -0.045363
     5  C   -0.063459
     6  N   -0.256834
     7  C   -0.052865
     8  C   -0.013837
     9  C   -0.086850
    10  C    0.045874
    11  C    0.104738
    12  C    0.053658
    13  C   -0.071526
    14  H    0.034937
    15  N   -0.433229
    16  C    0.167854
    17  C   -0.177708
    18  C   -0.004192
    19  C    0.148316
    20  C    0.110216
    21  C    0.012092
    22  O   -0.248483
    23  C    0.062724
    24  N   -0.341185
    25  C    0.041258
    26  C   -0.028356
    27  C   -0.024123
    28  C    0.074995
    29  C    0.076014
    30  C    0.034900
    31  C   -0.004466
    32  N   -0.310510
    33  C    0.080379
    34  C   -0.169442
    35  C    0.008411
    36  C    0.082761
    37  C    0.127289
    38  C    0.046025
    39  O   -0.188265
    40  C   -0.005248
    41  C    0.213072
    42  O   -0.258226
    43  O   -0.304448
    44  C    0.157776
    45  H   -0.017476
    46  H   -0.016025
    47  H   -0.040898
    48  H    0.001224
    49  H   -0.004362
    50  H    0.025673
    51  H    0.016800
    52  H    0.016872
    53  H    0.010065
    54  H    0.043127
    55  H    0.018694
    56  H    0.017897
    57  H    0.005773
    58  H    0.027390
    59  H    0.038641
    60  H    0.037564
    61  H    0.036518
    62  H    0.030193
    63  H    0.017575
    64  H    0.009636
    65  H    0.023839
    66  H    0.012380
    67  H    0.004952
    68  H    0.007037
    69  H    0.004658
    70  H    0.010262
    71  H    0.019189
    72  H    0.027764
    73  H    0.047642
    74  H    0.009577
    75  H    0.046286
    76  H    0.035464
    77  H    0.043482
    78  H    0.046211
    79  H    0.052944
    80  Mg   0.837865
    81  C   -0.016847
    82  C   -0.087699
    83  C   -0.045374
    84  C   -0.064897
    85  N   -0.254591
    86  C   -0.049795
    87  C   -0.015139
    88  C   -0.090417
    89  C    0.045571
    90  C    0.114126
    91  C    0.062618
    92  C   -0.077597
    93  H    0.034215
    94  N   -0.423612
    95  C    0.162785
    96  C   -0.173853
    97  C   -0.007832
    98  C    0.152325
    99  C    0.099194
   100  C    0.015658
   101  O   -0.252968
   102  C    0.061110
   103  N   -0.350001
   104  C    0.037637
   105  C   -0.019884
   106  C   -0.034727
   107  C    0.088847
   108  C    0.073606
   109  C    0.034800
   110  C   -0.007621
   111  N   -0.324049
   112  C    0.078344
   113  C   -0.163301
   114  C    0.002184
   115  C    0.096073
   116  C    0.131517
   117  C    0.042247
   118  O   -0.188238
   119  C    0.000958
   120  C    0.211201
   121  O   -0.251247
   122  O   -0.305527
   123  C    0.152144
   124  H   -0.018198
   125  H   -0.015605
   126  H   -0.040717
   127  H   -0.000647
   128  H   -0.004647
   129  H    0.022284
   130  H    0.015739
   131  H    0.017170
   132  H    0.013613
   133  H    0.037450
   134  H    0.020958
   135  H    0.019294
   136  H    0.009327
   137  H    0.027316
   138  H    0.038372
   139  H    0.038471
   140  H    0.037292
   141  H    0.032723
   142  H    0.014223
   143  H    0.012359
   144  H    0.024806
   145  H    0.012138
   146  H    0.005588
   147  H    0.006044
   148  H    0.003496
   149  H    0.010855
   150  H    0.017659
   151  H    0.030169
   152  H    0.045717
   153  H    0.008307
   154  H    0.046941
   155  H    0.035178
   156  H    0.043763
   157  H    0.049401
   158  H    0.053366
 Sum of Mulliken charges =  -0.00000

 Dipole moment (field-independent basis, Debye):
    X=              6.3702    Y=              1.9057    Z=              4.1938  Tot=              7.8612
 Quadrupole moment (field-independent basis, Debye-Ang):
   XX=           -558.7936   YY=           -490.4823   ZZ=           -498.0159
   XY=             17.4345   XZ=             30.3182   YZ=             53.9568

 Normal termination of Gaussian 16 at Sat Sep 11 16:54:21 2021.
