 Gaussian 16, Revision A.03,
 Gaussian 16:  ES64L-G16RevA.03 25-Dec-2016

 -----------------------------------
 #p cam-b3lyp/Def2SVP td=(nstates=5)
 -----------------------------------

 --------------------------------
 TDDFT excited states in gaussian
 --------------------------------
 Symbolic Z-matrix:
 Charge =  0 Multiplicity = 1

                         Standard orientation:
 ---------------------------------------------------------------------
 Center     Atomic      Atomic             Coordinates (Angstroms)
 Number     Number       Type             X           Y           Z
 ---------------------------------------------------------------------
      1         12           0        8.167470    0.369625    0.190980
      2          6           0        8.248782   -3.019937   -0.956396
      3          6           0        9.047275    1.304321   -2.970563
      4          6           0        8.545434    3.321760    1.285816
      5          6           0        8.415087   -0.878029    3.435622
      6          7           0        8.566844   -0.801696   -1.644546
      7          6           0        8.505368   -2.090032   -1.966388
      8          6           0        8.664606   -2.353584   -3.493660
      9          6           0        9.458110   -1.030539   -3.896029
     10          6           0        8.968978   -0.108927   -2.792713
     11          6           0       10.972788   -1.170568   -3.783585
     12          6           0        7.284963   -2.440166   -4.229063
     13          6           0        7.335680   -3.014687   -5.647762
     14          1           0        6.228392   -3.837895   -6.109921
     15          7           0        8.236012    2.093839   -0.770913
     16          6           0        8.601057    2.287480   -2.061080
     17          6           0        8.487209    3.741854   -2.302978
     18          6           0        8.209293    4.400084   -0.996230
     19          6           0        8.346894    3.286746   -0.092394
     20          6           0        8.590634    4.360293   -3.663340
     21          6           0        7.883375    5.811000   -0.620430
     22          8           0        7.907494    6.214729    0.592417
     23          6           0        7.617928    6.742279   -1.731870
     24          7           0        8.661975    1.135244    2.068991
     25          6           0        8.701860    2.454147    2.287827
     26          6           0        8.795942    2.761943    3.752869
     27          6           0        8.566522    1.375697    4.511448
     28          6           0        8.455508    0.446869    3.277258
     29          6           0       10.116716    3.387796    4.221776
     30          6           0        7.437027    1.332472    5.571067
     31          6           0        6.092570    1.479188    4.894305
     32          7           0        8.130661   -1.590379    1.122685
     33          6           0        8.273414   -1.877799    2.487854
     34          6           0        8.290419   -3.346176    2.620690
     35          6           0        8.172267   -3.813959    1.313378
     36          6           0        8.113274   -2.707939    0.418095
     37          6           0        8.462186   -4.071362    3.832728
     38          6           0        8.106920   -4.990989    0.462387
     39          8           0        8.019306   -6.203073    0.664052
     40          6           0        8.276483   -4.525208   -1.050929
     41          6           0        7.199851   -5.199044   -1.857228
     42          8           0        5.997603   -4.911804   -1.685594
     43          8           0        7.762709   -5.893016   -2.858295
     44          6           0        6.747477   -6.562290   -3.714758
     45          1           0        9.547791    1.697763   -3.857484
     46          1           0        8.570019    4.324604    1.717252
     47          1           0        8.404507   -1.339404    4.424801
     48          1           0        9.257321   -3.233715   -3.743624
     49          1           0        9.150197   -0.651804   -4.870437
     50          1           0       11.252135   -2.117112   -3.321047
     51          1           0       11.297273   -0.333933   -3.164517
     52          1           0       11.448175   -1.027134   -4.754260
     53          1           0        6.931241   -1.432976   -4.449311
     54          1           0        6.566546   -3.007126   -3.635969
     55          1           0        8.287312   -3.509631   -5.843558
     56          1           0        7.311946   -2.184333   -6.353559
     57          1           0        8.962020    3.648611   -4.399633
     58          1           0        9.366516    5.123606   -3.607935
     59          1           0        7.651268    4.813295   -3.980691
     60          1           0        8.490667    6.782413   -2.383993
     61          1           0        7.315706    7.682055   -1.271075
     62          1           0        6.801326    6.346740   -2.336568
     63          1           0        8.022283    3.466694    4.054868
     64          1           0        9.454892    1.055846    5.056579
     65          1           0        9.992179    4.345695    4.727370
     66          1           0       10.769964    3.485054    3.355116
     67          1           0       10.716195    2.754287    4.875005
     68          1           0        7.538178    2.164386    6.267223
     69          1           0        7.428768    0.411376    6.153960
     70          1           0        5.990308    2.558523    4.787476
     71          1           0        5.302221    1.072797    5.526291
     72          1           0        6.103016    1.052018    3.891358
     73          1           0        7.736326   -4.884047    3.807425
     74          1           0        8.310451   -3.431638    4.701826
     75          1           0        9.497403   -4.395996    3.728830
     76          1           0        9.274288   -4.831680   -1.363308
     77          1           0        6.992697   -7.624255   -3.732985
     78          1           0        6.742614   -6.027743   -4.664832
     79          1           0        5.730362   -6.592653   -3.322463
     80         12           0       -7.708135    0.896822    0.325594
     81          6           0       -9.883075   -1.950318    0.119483
     82          6           0       -9.239132    2.082074   -2.482570
     83          6           0       -5.515612    3.187797    0.217385
     84          6           0       -5.633892   -1.010560    2.376236
     85          7           0       -9.337880    0.080825   -0.927539
     86          6           0      -10.130056   -0.979303   -0.873267
     87          6           0      -11.300210   -0.960700   -1.893045
     88          6           0      -10.652496    0.023347   -2.984363
     89          6           0       -9.706809    0.806799   -2.076305
     90          6           0       -9.820316   -0.701142   -4.029315
     91          6           0      -12.614397   -0.357505   -1.283881
     92          6           0      -13.875901   -0.590564   -2.118176
     93          1           0      -15.139987   -0.812411   -1.421507
     94          7           0       -7.715219    2.637200   -0.628123
     95          6           0       -8.412496    2.953223   -1.739534
     96          6           0       -8.057795    4.345716   -2.054646
     97          6           0       -6.969013    4.772247   -1.134131
     98          6           0       -6.670186    3.514766   -0.478748
     99          6           0       -8.785911    5.157347   -3.086407
    100          6           0       -6.297932    6.090611   -0.893770
    101          8           0       -5.213598    6.180605   -0.216319
    102          6           0       -6.896234    7.260628   -1.553005
    103          7           0       -5.743199    1.000794    0.996832
    104          6           0       -5.028648    2.132829    0.870991
    105          6           0       -3.747599    2.060634    1.667290
    106          6           0       -3.865671    0.733410    2.551663
    107          6           0       -5.214714    0.197202    2.024436
    108          6           0       -2.457425    2.013515    0.848985
    109          6           0       -3.681834    0.891358    4.085914
    110          6           0       -4.831855    1.683765    4.664642
    111          7           0       -7.812739   -1.043672    1.269834
    112          6           0       -6.822046   -1.659566    2.065625
    113          6           0       -7.303158   -3.019401    2.384715
    114          6           0       -8.539801   -3.109185    1.728098
    115          6           0       -8.801002   -1.898572    1.031174
    116          6           0       -6.597815   -3.994263    3.145138
    117          6           0       -9.678728   -3.956666    1.457325
    118          8           0      -10.053177   -5.060592    1.850891
    119          6           0      -10.540677   -3.290317    0.300003
    120          6           0      -11.983511   -3.311180    0.724652
    121          8           0      -12.364191   -2.644123    1.702767
    122          8           0      -12.711197   -3.937778   -0.217806
    123          6           0      -14.151006   -3.974147    0.152943
    124          1           0       -9.493879    2.433672   -3.482759
    125          1           0       -4.774500    3.985898    0.302690
    126          1           0       -5.090221   -1.631929    3.091079
    127          1           0      -11.524964   -1.919771   -2.344098
    128          1           0      -11.401232    0.683057   -3.415106
    129          1           0       -9.704519   -1.749217   -3.796335
    130          1           0       -8.858064   -0.206063   -4.034047
    131          1           0      -10.245088   -0.543828   -5.024870
    132          1           0      -12.559633    0.737842   -1.328069
    133          1           0      -12.770596   -0.715582   -0.284884
    134          1           0      -13.723846   -1.353932   -2.890906
    135          1           0      -14.093169    0.320675   -2.680725
    136          1           0       -9.426752    4.527030   -3.715240
    137          1           0       -8.030620    5.549940   -3.775803
    138          1           0       -9.336983    5.994195   -2.652049
    139          1           0       -6.910956    7.100903   -2.628515
    140          1           0       -6.331145    8.121317   -1.190024
    141          1           0       -7.940757    7.346276   -1.233227
    142          1           0       -3.653314    2.914887    2.326426
    143          1           0       -3.102798   -0.009346    2.275637
    144          1           0       -1.752246    2.828692    1.098563
    145          1           0       -2.717698    2.043936   -0.200710
    146          1           0       -1.898329    1.082187    0.921480
    147          1           0       -2.773673    1.459415    4.302018
    148          1           0       -3.602587   -0.054635    4.611091
    149          1           0       -4.532241    2.720601    4.484971
    150          1           0       -4.938650    1.482490    5.728659
    151          1           0       -5.755431    1.505272    4.101794
    152          1           0       -7.316885   -4.446506    3.815143
    153          1           0       -5.769240   -3.548861    3.691803
    154          1           0       -6.253707   -4.654522    2.344567
    155          1           0      -10.372920   -3.869909   -0.608578
    156          1           0      -14.459588   -5.023934    0.133158
    157          1           0      -14.657965   -3.286770   -0.550085
    158          1           0      -14.414787   -3.695221    1.166379
 ---------------------------------------------------------------------

 SCF Done:  E(RCAM-B3LYP) =  -4069.81179590     A.U. after   19 cycles

 Excitation energies and oscillator strengths:

 Excited State   1:      Singlet-A      1.6695 eV  742.63 nm  f=0.0189  <S**2>=0.000
     309 -> 315       -0.10218
     310 -> 316        0.13887
     311 -> 313       -0.40545
     312 -> 314        0.55382
 This state for optimization and/or second-order correction.
 Total Energy, E(TD-HF/TD-DFT) =  -4069.75044154
 Copying the excited state density for this state as the 1-particle RhoCI density.

 Excited State   2:      Singlet-A      1.6855 eV  735.60 nm  f=0.7371  <S**2>=0.000
     309 -> 315        0.14286
     310 -> 316        0.10405
     311 -> 313        0.55299
     312 -> 314        0.40492

 Excited State   3:      Singlet-A      2.1855 eV  567.30 nm  f=0.0904  <S**2>=0.000
     310 -> 314        0.63741
     312 -> 316       -0.27058

 Excited State   4:      Singlet-A      2.1931 eV  565.33 nm  f=0.1090  <S**2>=0.000
     309 -> 313        0.63549
     311 -> 315       -0.27625

 Excited State   5:      Singlet-A      2.7683 eV  447.87 nm  f=0.0000  <S**2>=0.000
     312 -> 313        0.70700

 The electronic state is 1-A.
 Alpha  occ. eigenvalues --  -46.87812 -46.87583 -19.26298 -19.26291 -19.19100
 Alpha  occ. eigenvalues --  -19.19037 -19.18811 -19.18652 -19.18181 -19.17976
 Alpha  occ. eigenvalues --  -14.42464 -14.42423 -14.41464 -14.41276 -14.39415
 Alpha  occ. eigenvalues --  -14.39277 -14.38602 -14.38521 -10.39096 -10.39028
 Alpha  occ. eigenvalues --  -10.35443 -10.35332 -10.34401 -10.34154 -10.31704
 Alpha  occ. eigenvalues --  -10.31690 -10.31420 -10.31234 -10.30956 -10.30920
 Alpha  occ. eigenvalues --  -10.30585 -10.30521 -10.30317 -10.30282 -10.30220
 Alpha  occ. eigenvalues --  -10.30056 -10.29936 -10.29805 -10.29642 -10.29360
 Alpha  occ. eigenvalues --  -10.29325 -10.29265 -10.28761 -10.28660 -10.28610
 Alpha  occ. eigenvalues --  -10.28553 -10.28377 -10.28332 -10.28129 -10.28080
 Alpha  occ. eigenvalues --  -10.27924 -10.27804 -10.27740 -10.27596 -10.27593
 Alpha  occ. eigenvalues --  -10.27520 -10.27483 -10.27464 -10.27417 -10.27415
 Alpha  occ. eigenvalues --  -10.27409 -10.27407 -10.27393 -10.27269 -10.27171
 Alpha  occ. eigenvalues --  -10.26980 -10.26720 -10.26640 -10.26391 -10.26371
 Alpha  occ. eigenvalues --  -10.26244 -10.26214 -10.26035 -10.26030 -10.25968
 Alpha  occ. eigenvalues --  -10.25858 -10.25846 -10.25743 -10.25444 -10.25271
 Alpha  occ. eigenvalues --  -10.24845 -10.24800 -10.24795 -10.24734 -10.24639
 Alpha  occ. eigenvalues --  -10.24609  -3.16555  -3.16333  -1.91437  -1.91215
 Alpha  occ. eigenvalues --   -1.91023  -1.90865  -1.90803  -1.90640  -1.16647
 Alpha  occ. eigenvalues --   -1.16584  -1.08639  -1.08583  -1.07211  -1.06906
 Alpha  occ. eigenvalues --   -1.06884  -1.06659  -1.04594  -1.04422  -1.03774
 Alpha  occ. eigenvalues --   -1.03585  -1.03247  -1.02957  -1.02425  -1.02032
 Alpha  occ. eigenvalues --   -0.91985  -0.91912  -0.89538  -0.89405  -0.89201
 Alpha  occ. eigenvalues --   -0.89088  -0.88304  -0.88125  -0.87884  -0.87707
 Alpha  occ. eigenvalues --   -0.87686  -0.87608  -0.87278  -0.87056  -0.84994
 Alpha  occ. eigenvalues --   -0.84934  -0.83956  -0.83781  -0.82968  -0.82865
 Alpha  occ. eigenvalues --   -0.82658  -0.82587  -0.81599  -0.81526  -0.80607
 Alpha  occ. eigenvalues --   -0.80372  -0.78805  -0.78563  -0.77233  -0.77072
 Alpha  occ. eigenvalues --   -0.76949  -0.76824  -0.75936  -0.75771  -0.74913
 Alpha  occ. eigenvalues --   -0.74710  -0.72788  -0.72618  -0.71684  -0.71501
 Alpha  occ. eigenvalues --   -0.69932  -0.69661  -0.68884  -0.68760  -0.67652
 Alpha  occ. eigenvalues --   -0.67526  -0.67229  -0.67140  -0.65300  -0.65205
 Alpha  occ. eigenvalues --   -0.64868  -0.64693  -0.64635  -0.64582  -0.64287
 Alpha  occ. eigenvalues --   -0.64114  -0.62312  -0.62207  -0.60449  -0.60266
 Alpha  occ. eigenvalues --   -0.59817  -0.59729  -0.59001  -0.58913  -0.58517
 Alpha  occ. eigenvalues --   -0.58348  -0.57598  -0.57483  -0.57321  -0.57155
 Alpha  occ. eigenvalues --   -0.56320  -0.56129  -0.55991  -0.55822  -0.55526
 Alpha  occ. eigenvalues --   -0.55387  -0.55356  -0.55160  -0.54541  -0.54405
 Alpha  occ. eigenvalues --   -0.53907  -0.53850  -0.53308  -0.53229  -0.53152
 Alpha  occ. eigenvalues --   -0.53074  -0.52928  -0.52833  -0.52759  -0.52611
 Alpha  occ. eigenvalues --   -0.52464  -0.52307  -0.51929  -0.51790  -0.51625
 Alpha  occ. eigenvalues --   -0.51598  -0.51211  -0.51124  -0.50571  -0.50416
 Alpha  occ. eigenvalues --   -0.50048  -0.49923  -0.49913  -0.49778  -0.49522
 Alpha  occ. eigenvalues --   -0.49424  -0.49224  -0.49135  -0.49107  -0.49034
 Alpha  occ. eigenvalues --   -0.48605  -0.48488  -0.48473  -0.48449  -0.48282
 Alpha  occ. eigenvalues --   -0.48275  -0.47705  -0.47524  -0.47306  -0.47043
 Alpha  occ. eigenvalues --   -0.46813  -0.46629  -0.46567  -0.46489  -0.46373
 Alpha  occ. eigenvalues --   -0.46191  -0.46177  -0.45998  -0.45835  -0.45743
 Alpha  occ. eigenvalues --   -0.45216  -0.45116  -0.44590  -0.44515  -0.44444
 Alpha  occ. eigenvalues --   -0.44403  -0.44160  -0.44099  -0.44058  -0.44027
 Alpha  occ. eigenvalues --   -0.43999  -0.43875  -0.43508  -0.43481  -0.43399
 Alpha  occ. eigenvalues --   -0.43312  -0.43040  -0.42863  -0.42823  -0.42714
 Alpha  occ. eigenvalues --   -0.42675  -0.42467  -0.42029  -0.41884  -0.41717
 Alpha  occ. eigenvalues --   -0.41593  -0.41547  -0.41389  -0.41153  -0.40913
 Alpha  occ. eigenvalues --   -0.40884  -0.40823  -0.40661  -0.40631  -0.40589
 Alpha  occ. eigenvalues --   -0.40403  -0.40245  -0.40172  -0.39468  -0.39329
 Alpha  occ. eigenvalues --   -0.38486  -0.38259  -0.37762  -0.37592  -0.37336
 Alpha  occ. eigenvalues --   -0.37276  -0.37180  -0.37131  -0.36729  -0.36703
 Alpha  occ. eigenvalues --   -0.36208  -0.36135  -0.34300  -0.34175  -0.33798
 Alpha  occ. eigenvalues --   -0.33787  -0.33200  -0.33097  -0.31341  -0.31211
 Alpha  occ. eigenvalues --   -0.31048  -0.30897  -0.30041  -0.29881  -0.29458
 Alpha  occ. eigenvalues --   -0.29335  -0.29255  -0.29133  -0.24095  -0.23958
 Alpha  occ. eigenvalues --   -0.21141  -0.21039
 Alpha virt. eigenvalues --   -0.08786  -0.08716  -0.01762  -0.01605  -0.00063
 Alpha virt. eigenvalues --    0.00038   0.02188   0.02286   0.03092   0.03299
 Alpha virt. eigenvalues --    0.04704   0.04801   0.05083   0.05228   0.06164

 Mulliken charges:
               1
     1  Mg   0.838474
     2  C   -0.003032
     3  C   -0.094075
     4  C   -0.045879
     5  C   -0.064044
     6  N   -0.256789
     7  C   -0.052524
     8  C   -0.013994
     9  C   -0.087006
    10  C    0.046323
    11  C    0.104797
    12  C    0.053466
    13  C   -0.071803
    14  H    0.036085
    15  N   -0.433198
    16  C    0.168449
    17  C   -0.177070
    18  C   -0.003877
    19  C    0.148713
    20  C    0.110164
    21  C    0.012427
    22  O   -0.249460
    23  C    0.062392
    24  N   -0.341111
    25  C    0.041204
    26  C   -0.028219
    27  C   -0.023943
    28  C    0.074680
    29  C    0.076135
    30  C    0.035178
    31  C   -0.004523
    32  N   -0.310427
    33  C    0.080222
    34  C   -0.169897
    35  C    0.008354
    36  C    0.082796
    37  C    0.127353
    38  C    0.046013
    39  O   -0.188403
    40  C   -0.005283
    41  C    0.212928
    42  O   -0.257323
    43  O   -0.304744
    44  C    0.157668
    45  H   -0.017528
    46  H   -0.016705
    47  H   -0.041560
    48  H    0.000977
    49  H   -0.004009
    50  H    0.025511
    51  H    0.016476
    52  H    0.016704
    53  H    0.011185
    54  H    0.044008
    55  H    0.017930
    56  H    0.017962
    57  H    0.005846
    58  H    0.026912
    59  H    0.039762
    60  H    0.037267
    61  H    0.035996
    62  H    0.031728
    63  H    0.016590
    64  H    0.009550
    65  H    0.023342
    66  H    0.012613
    67  H    0.004797
    68  H    0.006509
    69  H    0.004697
    70  H    0.008953
    71  H    0.017554
    72  H    0.028815
    73  H    0.047466
    74  H    0.009011
    75  H    0.046107
    76  H    0.035223
    77  H    0.043064
    78  H    0.046404
    79  H    0.053648
    80  Mg   0.837799
    81  C   -0.016926
    82  C   -0.087979
    83  C   -0.045559
    84  C   -0.064460
    85  N   -0.254572
    86  C   -0.049818
    87  C   -0.015109
    88  C   -0.090489
    89  C    0.045773
    90  C    0.114427
    91  C    0.062576
    92  C   -0.077809
    93  H    0.034752
    94  N   -0.423458
    95  C    0.162886
    96  C   -0.174871
    97  C   -0.007947
    98  C    0.152071
    99  C    0.099479
   100  C    0.015389
   101  O   -0.253196
   102  C    0.061250
   103  N   -0.350009
   104  C    0.037547
   105  C   -0.019923
   106  C   -0.035011
   107  C    0.088891
   108  C    0.073343
   109  C    0.034670
   110  C   -0.007660
   111  N   -0.324161
   112  C    0.078445
   113  C   -0.162873
   114  C    0.002259
   115  C    0.096279
   116  C    0.131522
   117  C    0.042486
   118  O   -0.187822
   119  C    0.000879
   120  C    0.211245
   121  O   -0.251073
   122  O   -0.305636
   123  C    0.152083
   124  H   -0.019975
   125  H   -0.015576
   126  H   -0.039854
   127  H   -0.000703
   128  H   -0.004525
   129  H    0.022520
   130  H    0.014442
   131  H    0.015998
   132  H    0.013876
   133  H    0.037673
   134  H    0.020733
   135  H    0.019474
   136  H    0.008591
   137  H    0.025780
   138  H    0.039584
   139  H    0.037994
   140  H    0.036212
   141  H    0.033846
   142  H    0.014284
   143  H    0.013532
   144  H    0.025162
   145  H    0.011342
   146  H    0.006886
   147  H    0.006427
   148  H    0.003951
   149  H    0.010826
   150  H    0.017763
   151  H    0.029904
   152  H    0.045902
   153  H    0.008883
   154  H    0.047547
   155  H    0.035042
   156  H    0.043862
   157  H    0.049383
   158  H    0.053530
 Sum of Mulliken charges =  -0.00000

 Dipole moment (field-independent basis, Debye):
    X=              1.8782    Y=              4.6991    Z=             -7.0539  Tot=              8.6814
 Quadrupole moment (field-independent basis, Debye-Ang):
   XX=           -461.1466   YY=           -561.0742   ZZ=           -456.8149
   XY=            -17.5842   XZ=             28.9021   YZ=             -1.3259

 Normal termination of Gaussian 16 at Sun Sep 12 07:24:30 2021.
