 Gaussian 16, Revision A.03,
 Gaussian 16:  ES64L-G16RevA.03 25-Dec-2016

 -----------------------------------
 #p cam-b3lyp/Def2SVP td=(nstates=5)
 -----------------------------------

 --------------------------------
 TDDFT excited states in gaussian
 --------------------------------
 Symbolic Z-matrix:
 Charge =  0 Multiplicity = 1

                         Standard orientation:
 ---------------------------------------------------------------------
 Center     Atomic      Atomic             Coordinates (Angstroms)
 Number     Number       Type             X           Y           Z
 ---------------------------------------------------------------------
      1         12           0       -7.558742    0.753275   -0.301405
      2          6           0       -7.920145   -2.352822    1.440366
      3          6           0       -8.466381    2.312168    2.594991
      4          6           0       -7.688411    3.470143   -1.931876
      5          6           0       -7.795059   -1.054283   -3.271683
      6          7           0       -8.098386   -0.029613    1.697724
      7          6           0       -8.140113   -1.237377    2.251562
      8          6           0       -8.365254   -1.202843    3.792826
      9          6           0       -9.073246    0.220727    3.911969
     10          6           0       -8.484861    0.888370    2.681530
     11          6           0      -10.589864    0.161478    3.760767
     12          6           0       -7.018937   -1.241730    4.591354
     13          6           0       -7.154981   -1.539292    6.087450
     14          1           0       -6.124895   -2.333267    6.740040
     15          7           0       -7.532399    2.626419    0.325879
     16          6           0       -7.922344    3.078825    1.541839
     17          6           0       -7.711331    4.542259    1.519117
     18          6           0       -7.346217    4.927787    0.127660
     19          6           0       -7.535756    3.677842   -0.563057
     20          6           0       -7.811968    5.407119    2.737985
     21          6           0       -6.907771    6.220481   -0.484583
     22          8           0       -6.865048    6.393540   -1.750600
     23          6           0       -6.610367    7.321969    0.448860
     24          7           0       -7.938190    1.188828   -2.307383
     25          6           0       -7.875927    2.444213   -2.764673
     26          6           0       -7.902057    2.481110   -4.263972
     27          6           0       -7.749921    0.966481   -4.746161
     28          6           0       -7.744597    0.276805   -3.359587
     29          6           0       -9.159012    3.094252   -4.896532
     30          6           0       -6.594178    0.654328   -5.729644
     31          6           0       -5.264273    0.835652   -5.032815
     32          7           0       -7.634683   -1.343421   -0.857414
     33          6           0       -7.755410   -1.868516   -2.152162
     34          6           0       -7.874274   -3.331824   -2.015522
     35          6           0       -7.830809   -3.556352   -0.640916
     36          6           0       -7.719899   -2.310036    0.039294
     37          6           0       -8.060286   -4.255952   -3.081271
     38          6           0       -7.877049   -4.557326    0.412541
     39          8           0       -7.870976   -5.788883    0.439400
     40          6           0       -8.059386   -3.809541    1.806599
     41          6           0       -7.059748   -4.391374    2.768630
     42          8           0       -5.835153   -4.219942    2.600267
     43          8           0       -7.702023   -4.849908    3.853881
     44          6           0       -6.764819   -5.413979    4.861665
     45          1           0       -8.964446    2.894727    3.372486
     46          1           0       -7.627125    4.375279   -2.539667
     47          1           0       -7.787150   -1.690396   -4.158673
     48          1           0       -9.027442   -1.980935    4.172962
     49          1           0       -8.769156    0.752285    4.813466
     50          1           0      -10.922351   -0.834015    3.466883
     51          1           0      -10.833733    0.888494    2.985869
     52          1           0      -11.083527    0.512744    4.667236
     53          1           0       -6.600411   -0.236452    4.639443
     54          1           0       -6.325288   -1.954294    4.143660
     55          1           0       -8.145482   -1.926278    6.328404
     56          1           0       -7.093250   -0.596041    6.630282
     57          1           0       -8.256430    4.869734    3.574775
     58          1           0       -8.528613    6.195988    2.510359
     59          1           0       -6.852638    5.848720    3.008181
     60          1           0       -7.497733    7.538941    1.043883
     61          1           0       -6.226928    8.138501   -0.161960
     62          1           0       -5.843606    6.992698    1.150719
     63          1           0       -7.070536    3.065794   -4.655306
     64          1           0       -8.641733    0.609972   -5.262151
     65          1           0       -8.950010    3.931863   -5.562439
     66          1           0       -9.830094    3.392604   -4.091594
     67          1           0       -9.782123    2.391324   -5.448838
     68          1           0       -6.613354    1.347876   -6.569626
     69          1           0       -6.634380   -0.357251   -6.133801
     70          1           0       -5.087703    1.907101   -5.120298
     71          1           0       -4.486114    0.268645   -5.544852
     72          1           0       -5.336637    0.603027   -3.970207
     73          1           0       -7.396140   -5.095538   -2.876396
     74          1           0       -7.835873   -3.799362   -4.044997
     75          1           0       -9.118965   -4.487485   -2.965310
     76          1           0       -9.085924   -3.987135    2.125665
     77          1           0       -7.086531   -6.435927    5.062559
     78          1           0       -6.750837   -4.714359    5.697572
     79          1           0       -5.740877   -5.582720    4.526393
     80         12           0        8.291885    0.207386    0.172444
     81          6           0        5.783756   -1.887668   -1.310489
     82          6           0        6.268686    2.864771   -0.520071
     83          6           0       10.664959    2.118064    1.058566
     84          6           0       10.550363   -2.406313   -0.289655
     85          7           0        6.306377    0.343431   -0.792714
     86          6           0        5.422537   -0.525157   -1.260381
     87          6           0        4.045343    0.091518   -1.624558
     88          6           0        4.518665    1.605302   -1.876126
     89          6           0        5.756882    1.625997   -0.982230
     90          6           0        4.957997    1.868597   -3.306866
     91          6           0        3.017941   -0.000101   -0.442153
     92          6           0        1.567278    0.299880   -0.826015
     93          1           0        0.502566   -0.443544   -0.158030
     94          7           0        8.270729    2.118632    0.706535
     95          6           0        7.362487    3.052232    0.353307
     96          6           0        7.804276    4.303715    0.987954
     97          6           0        9.136339    4.069942    1.608973
     98          6           0        9.424688    2.736501    1.120222
     99          6           0        6.951157    5.538007    1.034067
    100          6           0       10.012207    4.912677    2.485818
    101          8           0       11.234740    4.602382    2.713791
    102          6           0        9.424382    6.160761    2.994003
    103          7           0       10.358906   -0.015534    0.166143
    104          6           0       11.159616    0.947700    0.654996
    105          6           0       12.579653    0.454978    0.800285
    106          6           0       12.517099   -1.120640    0.533619
    107          6           0       11.020647   -1.257719    0.176956
    108          6           0       13.603597    1.089816   -0.140407
    109          6           0       13.101724   -2.044860    1.636663
    110          6           0       12.248674   -1.965321    2.882206
    111          7           0        8.177484   -1.851140   -0.473648
    112          6           0        9.248202   -2.760256   -0.619064
    113          6           0        8.690467   -4.001352   -1.194424
    114          6           0        7.327213   -3.717851   -1.366608
    115          6           0        7.058343   -2.386616   -0.948241
    116          6           0        9.431922   -5.169111   -1.530177
    117          6           0        6.056474   -4.238421   -1.817072
    118          8           0        5.653161   -5.336984   -2.196842
    119          6           0        5.024376   -3.033915   -1.918825
    120          6           0        3.745721   -3.460207   -1.251121
    121          8           0        3.714873   -3.681657   -0.027754
    122          8           0        2.728244   -3.325926   -2.121215
    123          6           0        1.436833   -3.726142   -1.501597
    124          1           0        5.817438    3.784376   -0.893687
    125          1           0       11.501005    2.697336    1.457273
    126          1           0       11.171332   -3.300863   -0.372379
    127          1           0        3.590937   -0.310045   -2.522348
    128          1           0        3.777893    2.315458   -1.517945
    129          1           0        4.991382    0.961280   -3.891506
    130          1           0        5.943815    2.309179   -3.235513
    131          1           0        4.319617    2.630623   -3.763050
    132          1           0        3.201963    0.825869    0.256892
    133          1           0        3.074062   -0.957655    0.038016
    134          1           0        1.418306    0.291773   -1.912607
    135          1           0        1.335491    1.326263   -0.531355
    136          1           0        6.095714    5.461456    0.351587
    137          1           0        7.552149    6.357568    0.625418
    138          1           0        6.641625    5.798444    2.048481
    139          1           0        9.117612    6.782706    2.156423
    140          1           0       10.170007    6.579968    3.672359
    141          1           0        8.514952    5.916437    3.554246
    142          1           0       12.947923    0.627132    1.804191
    143          1           0       13.081966   -1.404285   -0.366554
    144          1           0       14.448933    1.565651    0.391641
    145          1           0       13.092719    1.811019   -0.764424
    146          1           0       14.036619    0.413777   -0.875705
    147          1           0       14.101009   -1.707691    1.922829
    148          1           0       13.187219   -3.082133    1.330477
    149          1           0       12.625557   -1.068272    3.382565
    150          1           0       12.389003   -2.850163    3.499779
    151          1           0       11.197697   -1.784305    2.628529
    152          1           0        8.852974   -6.015419   -1.185105
    153          1           0       10.422487   -5.154120   -1.080371
    154          1           0        9.473463   -5.067700   -2.617954
    155          1           0        4.880067   -2.814703   -2.977459
    156          1           0        0.999241   -4.496323   -2.144253
    157          1           0        0.862642   -2.788985   -1.375965
    158          1           0        1.476424   -4.242473   -0.549602
 ---------------------------------------------------------------------

 SCF Done:  E(RCAM-B3LYP) =  -4069.81185428     A.U. after   19 cycles

 Excitation energies and oscillator strengths:

 Excited State   1:      Singlet-A      1.6690 eV  742.87 nm  f=0.0135  <S**2>=0.000
     309 -> 315       -0.10720
     310 -> 316        0.13449
     311 -> 313       -0.42630
     312 -> 314        0.53800
 This state for optimization and/or second-order correction.
 Total Energy, E(TD-HF/TD-DFT) =  -4069.75052035
 Copying the excited state density for this state as the 1-particle RhoCI density.

 Excited State   2:      Singlet-A      1.6858 eV  735.46 nm  f=0.7394  <S**2>=0.000
     309 -> 315        0.13859
     310 -> 316        0.10925
     311 -> 313        0.53709
     312 -> 314        0.42567

 Excited State   3:      Singlet-A      2.1853 eV  567.35 nm  f=0.1025  <S**2>=0.000
     310 -> 314        0.64051
     312 -> 316       -0.27155

 Excited State   4:      Singlet-A      2.1923 eV  565.53 nm  f=0.0993  <S**2>=0.000
     309 -> 313        0.63859
     311 -> 315       -0.27711

 Excited State   5:      Singlet-A      2.7320 eV  453.81 nm  f=0.0000  <S**2>=0.000
     312 -> 313        0.70695

 The electronic state is 1-A.
 Alpha  occ. eigenvalues --  -46.87918 -46.87562 -19.26325 -19.26085 -19.19079
 Alpha  occ. eigenvalues --  -19.18956 -19.18931 -19.18640 -19.18259 -19.17922
 Alpha  occ. eigenvalues --  -14.42562 -14.42394 -14.41569 -14.41263 -14.39524
 Alpha  occ. eigenvalues --  -14.39255 -14.38705 -14.38499 -10.39140 -10.38868
 Alpha  occ. eigenvalues --  -10.35590 -10.35320 -10.34477 -10.34095 -10.31689
 Alpha  occ. eigenvalues --  -10.31508 -10.31401 -10.31196 -10.31016 -10.30912
 Alpha  occ. eigenvalues --  -10.30681 -10.30628 -10.30332 -10.30300 -10.30255
 Alpha  occ. eigenvalues --  -10.30057 -10.30040 -10.29799 -10.29749 -10.29375
 Alpha  occ. eigenvalues --  -10.29347 -10.29304 -10.28829 -10.28580 -10.28574
 Alpha  occ. eigenvalues --  -10.28479 -10.28425 -10.28300 -10.28200 -10.28013
 Alpha  occ. eigenvalues --  -10.27905 -10.27902 -10.27837 -10.27705 -10.27632
 Alpha  occ. eigenvalues --  -10.27600 -10.27579 -10.27569 -10.27512 -10.27445
 Alpha  occ. eigenvalues --  -10.27394 -10.27373 -10.27372 -10.27302 -10.27240
 Alpha  occ. eigenvalues --  -10.26896 -10.26773 -10.26564 -10.26512 -10.26362
 Alpha  occ. eigenvalues --  -10.26333 -10.26309 -10.26139 -10.26072 -10.25937
 Alpha  occ. eigenvalues --  -10.25911 -10.25842 -10.25757 -10.25552 -10.25333
 Alpha  occ. eigenvalues --  -10.24943 -10.24908 -10.24872 -10.24769 -10.24666
 Alpha  occ. eigenvalues --  -10.24594  -3.16661  -3.16312  -1.91543  -1.91194
 Alpha  occ. eigenvalues --   -1.91129  -1.90971  -1.90782  -1.90619  -1.16677
 Alpha  occ. eigenvalues --   -1.16388  -1.08712  -1.08520  -1.07359  -1.06894
 Alpha  occ. eigenvalues --   -1.06715  -1.06700  -1.04691  -1.04389  -1.03878
 Alpha  occ. eigenvalues --   -1.03564  -1.03353  -1.02943  -1.02529  -1.02013
 Alpha  occ. eigenvalues --   -0.92075  -0.91868  -0.89647  -0.89403  -0.89273
 Alpha  occ. eigenvalues --   -0.89018  -0.88413  -0.88135  -0.87976  -0.87780
 Alpha  occ. eigenvalues --   -0.87693  -0.87574  -0.87399  -0.87038  -0.85074
 Alpha  occ. eigenvalues --   -0.84869  -0.84064  -0.83786  -0.83103  -0.82855
 Alpha  occ. eigenvalues --   -0.82746  -0.82527  -0.81664  -0.81418  -0.80695
 Alpha  occ. eigenvalues --   -0.80297  -0.78915  -0.78544  -0.77328  -0.77032
 Alpha  occ. eigenvalues --   -0.77021  -0.76750  -0.76008  -0.75690  -0.75011
 Alpha  occ. eigenvalues --   -0.74699  -0.72886  -0.72599  -0.71776  -0.71469
 Alpha  occ. eigenvalues --   -0.70046  -0.69678  -0.68970  -0.68700  -0.67752
 Alpha  occ. eigenvalues --   -0.67489  -0.67313  -0.67065  -0.65378  -0.65133
 Alpha  occ. eigenvalues --   -0.64956  -0.64720  -0.64655  -0.64506  -0.64392
 Alpha  occ. eigenvalues --   -0.64106  -0.62373  -0.62090  -0.60567  -0.60254
 Alpha  occ. eigenvalues --   -0.59899  -0.59675  -0.59096  -0.58883  -0.58611
 Alpha  occ. eigenvalues --   -0.58308  -0.57670  -0.57420  -0.57397  -0.57131
 Alpha  occ. eigenvalues --   -0.56417  -0.56098  -0.56043  -0.55696  -0.55632
 Alpha  occ. eigenvalues --   -0.55447  -0.55324  -0.55124  -0.54619  -0.54340
 Alpha  occ. eigenvalues --   -0.53981  -0.53776  -0.53415  -0.53322  -0.53122
 Alpha  occ. eigenvalues --   -0.53013  -0.53011  -0.52870  -0.52754  -0.52577
 Alpha  occ. eigenvalues --   -0.52573  -0.52318  -0.52016  -0.51781  -0.51709
 Alpha  occ. eigenvalues --   -0.51523  -0.51297  -0.51073  -0.50706  -0.50401
 Alpha  occ. eigenvalues --   -0.50159  -0.50037  -0.49879  -0.49783  -0.49617
 Alpha  occ. eigenvalues --   -0.49380  -0.49316  -0.49182  -0.49079  -0.48975
 Alpha  occ. eigenvalues --   -0.48682  -0.48586  -0.48550  -0.48415  -0.48284
 Alpha  occ. eigenvalues --   -0.48231  -0.47801  -0.47476  -0.47405  -0.47012
 Alpha  occ. eigenvalues --   -0.46908  -0.46643  -0.46600  -0.46472  -0.46419
 Alpha  occ. eigenvalues --   -0.46265  -0.46166  -0.45962  -0.45904  -0.45671
 Alpha  occ. eigenvalues --   -0.45322  -0.45116  -0.44671  -0.44624  -0.44381
 Alpha  occ. eigenvalues --   -0.44357  -0.44266  -0.44179  -0.44118  -0.44012
 Alpha  occ. eigenvalues --   -0.43972  -0.43819  -0.43577  -0.43490  -0.43378
 Alpha  occ. eigenvalues --   -0.43253  -0.43131  -0.42814  -0.42801  -0.42731
 Alpha  occ. eigenvalues --   -0.42695  -0.42468  -0.42126  -0.41854  -0.41808
 Alpha  occ. eigenvalues --   -0.41625  -0.41550  -0.41329  -0.41244  -0.40975
 Alpha  occ. eigenvalues --   -0.40949  -0.40880  -0.40688  -0.40623  -0.40580
 Alpha  occ. eigenvalues --   -0.40393  -0.40313  -0.40074  -0.39587  -0.39348
 Alpha  occ. eigenvalues --   -0.38588  -0.38256  -0.37831  -0.37496  -0.37440
 Alpha  occ. eigenvalues --   -0.37356  -0.37167  -0.37065  -0.36791  -0.36573
 Alpha  occ. eigenvalues --   -0.36285  -0.36078  -0.34400  -0.34148  -0.33841
 Alpha  occ. eigenvalues --   -0.33657  -0.33298  -0.33068  -0.31485  -0.31198
 Alpha  occ. eigenvalues --   -0.31148  -0.30868  -0.30116  -0.29822  -0.29571
 Alpha  occ. eigenvalues --   -0.29435  -0.29235  -0.29110  -0.24195  -0.23933
 Alpha  occ. eigenvalues --   -0.21243  -0.21019
 Alpha virt. eigenvalues --   -0.08891  -0.08694  -0.01870  -0.01588  -0.00179
 Alpha virt. eigenvalues --    0.00065   0.02093   0.02317   0.02954   0.03323
 Alpha virt. eigenvalues --    0.04619   0.04858   0.05034   0.05375   0.06109

 Mulliken charges:
               1
     1  Mg   0.837885
     2  C   -0.002966
     3  C   -0.093959
     4  C   -0.046232
     5  C   -0.064103
     6  N   -0.256814
     7  C   -0.052357
     8  C   -0.013951
     9  C   -0.086982
    10  C    0.046245
    11  C    0.104751
    12  C    0.053421
    13  C   -0.072147
    14  H    0.037040
    15  N   -0.433151
    16  C    0.168190
    17  C   -0.177151
    18  C   -0.004264
    19  C    0.148546
    20  C    0.110112
    21  C    0.011807
    22  O   -0.249933
    23  C    0.062671
    24  N   -0.341095
    25  C    0.041228
    26  C   -0.028158
    27  C   -0.023973
    28  C    0.074656
    29  C    0.076106
    30  C    0.035179
    31  C   -0.004509
    32  N   -0.310466
    33  C    0.080191
    34  C   -0.169903
    35  C    0.008535
    36  C    0.082648
    37  C    0.127328
    38  C    0.046061
    39  O   -0.187690
    40  C   -0.005268
    41  C    0.213128
    42  O   -0.257375
    43  O   -0.304785
    44  C    0.157380
    45  H   -0.017358
    46  H   -0.017027
    47  H   -0.041345
    48  H    0.001280
    49  H   -0.003856
    50  H    0.025648
    51  H    0.016387
    52  H    0.016921
    53  H    0.010958
    54  H    0.044147
    55  H    0.018028
    56  H    0.017949
    57  H    0.006156
    58  H    0.026973
    59  H    0.039208
    60  H    0.037740
    61  H    0.035298
    62  H    0.030969
    63  H    0.016065
    64  H    0.009825
    65  H    0.023155
    66  H    0.012760
    67  H    0.005021
    68  H    0.006495
    69  H    0.005122
    70  H    0.008273
    71  H    0.017793
    72  H    0.028597
    73  H    0.047754
    74  H    0.009127
    75  H    0.046410
    76  H    0.035488
    77  H    0.043421
    78  H    0.046517
    79  H    0.054225
    80  Mg   0.837686
    81  C   -0.016530
    82  C   -0.087822
    83  C   -0.045712
    84  C   -0.065144
    85  N   -0.254543
    86  C   -0.049779
    87  C   -0.014935
    88  C   -0.090447
    89  C    0.045752
    90  C    0.114409
    91  C    0.062662
    92  C   -0.079000
    93  H    0.038084
    94  N   -0.423441
    95  C    0.162794
    96  C   -0.174788
    97  C   -0.008057
    98  C    0.152071
    99  C    0.099414
   100  C    0.015390
   101  O   -0.253459
   102  C    0.061294
   103  N   -0.350118
   104  C    0.037437
   105  C   -0.019741
   106  C   -0.034811
   107  C    0.089021
   108  C    0.073747
   109  C    0.034781
   110  C   -0.007644
   111  N   -0.324170
   112  C    0.078604
   113  C   -0.163230
   114  C    0.002407
   115  C    0.096189
   116  C    0.131479
   117  C    0.042418
   118  O   -0.187250
   119  C    0.001012
   120  C    0.211464
   121  O   -0.250826
   122  O   -0.306203
   123  C    0.151407
   124  H   -0.019766
   125  H   -0.015866
   126  H   -0.040621
   127  H   -0.000460
   128  H   -0.004234
   129  H    0.022375
   130  H    0.014107
   131  H    0.016261
   132  H    0.013337
   133  H    0.038241
   134  H    0.020544
   135  H    0.018867
   136  H    0.008759
   137  H    0.025894
   138  H    0.039334
   139  H    0.038151
   140  H    0.036067
   141  H    0.033680
   142  H    0.014205
   143  H    0.012287
   144  H    0.024904
   145  H    0.011594
   146  H    0.005516
   147  H    0.006050
   148  H    0.003615
   149  H    0.010785
   150  H    0.017829
   151  H    0.030277
   152  H    0.046222
   153  H    0.008327
   154  H    0.046852
   155  H    0.034861
   156  H    0.044732
   157  H    0.050332
   158  H    0.055071
 Sum of Mulliken charges =  -0.00000

 Dipole moment (field-independent basis, Debye):
    X=             -3.2398    Y=              7.2215    Z=              1.4315  Tot=              8.0434
 Quadrupole moment (field-independent basis, Debye-Ang):
   XX=           -478.8347   YY=           -547.4501   ZZ=           -475.5843
   XY=            -23.0235   XZ=            -32.0003   YZ=              6.2033

 Normal termination of Gaussian 16 at Sun Sep 12 01:48:41 2021.
