 Gaussian 16, Revision A.03,
 Gaussian 16:  ES64L-G16RevA.03 25-Dec-2016

 -----------------------------------
 #p cam-b3lyp/Def2SVP td=(nstates=5)
 -----------------------------------

 --------------------------------
 TDDFT excited states in gaussian
 --------------------------------
 Symbolic Z-matrix:
 Charge =  0 Multiplicity = 1

                         Standard orientation:
 ---------------------------------------------------------------------
 Center     Atomic      Atomic             Coordinates (Angstroms)
 Number     Number       Type             X           Y           Z
 ---------------------------------------------------------------------
      1         12           0        4.614538   -0.471530    0.829565
      2          6           0        5.026750    2.539857   -1.060897
      3          6           0        4.932225    1.429058    3.645573
      4          6           0        4.708329   -3.162875    2.504224
      5          6           0        5.458427   -2.226638   -2.060609
      6          7           0        4.933471    1.699056    1.125346
      7          6           0        5.014417    2.753076    0.319332
      8          6           0        5.008830    4.113448    1.078761
      9          6           0        5.546690    3.613853    2.494074
     10          6           0        5.079649    2.170117    2.435561
     11          6           0        7.067470    3.633833    2.609532
     12          6           0        3.571480    4.723566    1.194993
     13          6           0        3.517818    6.191478    1.628248
     14          1           0        2.488148    7.050977    1.063990
     15          7           0        4.310984   -0.793710    2.754897
     16          6           0        4.473239    0.099053    3.760846
     17          6           0        4.123077   -0.620190    5.004532
     18          6           0        3.927294   -2.055866    4.660151
     19          6           0        4.338638   -2.066378    3.279549
     20          6           0        3.959045    0.059034    6.329484
     21          6           0        3.455846   -3.233755    5.452897
     22          8           0        3.580366   -4.433245    5.028288
     23          6           0        2.917865   -2.949180    6.795520
     24          7           0        5.235924   -2.410234    0.368113
     25          6           0        5.116002   -3.403084    1.256286
     26          6           0        5.355729   -4.738955    0.617601
     27          6           0        5.426820   -4.470747   -0.954902
     28          6           0        5.288951   -2.928357   -0.937695
     29          6           0        6.623825   -5.477782    1.067131
     30          6           0        4.463009   -5.287454   -1.851828
     31          6           0        3.034649   -4.868158   -1.585227
     32          7           0        4.978829    0.021692   -1.252518
     33          6           0        5.337947   -0.864333   -2.278514
     34          6           0        5.580848   -0.052419   -3.485106
     35          6           0        5.360847    1.259576   -3.070239
     36          6           0        5.028790    1.269033   -1.685342
     37          6           0        6.010723   -0.545402   -4.748676
     38          6           0        5.353103    2.657788   -3.468738
     39          8           0        5.465878    3.254679   -4.540417
     40          6           0        5.255719    3.552656   -2.155135
     41          6           0        4.189966    4.588458   -2.388786
     42          8           0        2.991873    4.258869   -2.504147
     43          8           0        4.710309    5.811335   -2.203426
     44          6           0        3.697604    6.884341   -2.391155
     45          1           0        5.251609    1.883865    4.585300
     46          1           0        4.646101   -4.125066    3.016821
     47          1           0        5.642773   -2.712371   -3.020574
     48          1           0        5.682974    4.865652    0.668710
     49          1           0        5.063525    4.135239    3.320168
     50          1           0        7.536574    3.866219    1.653572
     51          1           0        7.347631    2.632673    2.937679
     52          1           0        7.386830    4.309648    3.403295
     53          1           0        3.052393    4.262957    2.035498
     54          1           0        3.024631    4.603675    0.259093
     55          1           0        4.496403    6.666052    1.550404
     56          1           0        3.284300    6.225166    2.692454
     57          1           0        4.328590    1.083374    6.302889
     58          1           0        4.618980   -0.449659    7.031927
     59          1           0        2.931491    0.011909    6.690379
     60          1           0        3.683371   -2.452578    7.392122
     61          1           0        2.547781   -3.899437    7.178794
     62          1           0        2.093972   -2.240956    6.702948
     63          1           0        4.535784   -5.424946    0.826248
     64          1           0        6.415122   -4.685392   -1.362162
     65          1           0        6.431352   -6.471944    1.471235
     66          1           0        7.137844   -4.852071    1.796214
     67          1           0        7.387396   -5.585288    0.297184
     68          1           0        4.534769   -6.348966   -1.617329
     69          1           0        4.662005   -5.168924   -2.917005
     70          1           0        2.766832   -5.458994   -0.710002
     71          1           0        2.399456   -5.119542   -2.435255
     72          1           0        2.974772   -3.817664   -1.299987
     73          1           0        5.410821   -0.028778   -5.497800
     74          1           0        5.884264   -1.625710   -4.816092
     75          1           0        7.059087   -0.247717   -4.735535
     76          1           0        6.237584    4.001481   -2.008098
     77          1           0        4.086900    7.564046   -3.149234
     78          1           0        3.492800    7.293672   -1.401757
     79          1           0        2.755139    6.582795   -2.849597
     80         12           0       -4.233901   -0.831453   -0.713719
     81          6           0       -6.803587    1.415997    0.392961
     82          6           0       -2.553181    1.899899   -1.875409
     83          6           0       -2.174410   -2.810176   -2.095940
     84          6           0       -6.583257   -3.397451   -0.509111
     85          7           0       -4.718184    1.326536   -0.685051
     86          6           0       -5.693561    2.068587   -0.182711
     87          6           0       -5.429322    3.597412   -0.232126
     88          6           0       -4.381606    3.621151   -1.448921
     89          6           0       -3.817960    2.208107   -1.313756
     90          6           0       -5.044028    3.742859   -2.811174
     91          6           0       -4.783306    4.135462    1.092702
     92          6           0       -4.782279    5.659100    1.235057
     93          1           0       -4.966608    6.234059    2.564687
     94          7           0       -2.393197   -0.508415   -1.381574
     95          6           0       -1.870115    0.666875   -1.789437
     96          6           0       -0.490275    0.370615   -2.204695
     97          6           0       -0.294499   -1.104086   -2.163827
     98          6           0       -1.648967   -1.542403   -1.892949
     99          6           0        0.514695    1.442356   -2.512612
    100          6           0        0.909760   -1.976234   -2.351772
    101          8           0        0.805086   -3.243962   -2.509025
    102          6           0        2.207805   -1.291524   -2.439717
    103          7           0       -4.410434   -2.774577   -1.431660
    104          6           0       -3.347278   -3.423888   -1.937643
    105          6           0       -3.646580   -4.891039   -2.133329
    106          6           0       -5.058364   -5.139793   -1.424409
    107          6           0       -5.387346   -3.691518   -1.000523
    108          6           0       -3.714611   -5.368391   -3.583804
    109          6           0       -5.117637   -6.256897   -0.346810
    110          6           0       -4.297112   -5.855953    0.857913
    111          7           0       -6.259905   -1.031276    0.009786
    112          6           0       -7.067181   -2.189414   -0.023464
    113          6           0       -8.402874   -1.803551    0.475982
    114          6           0       -8.285733   -0.431666    0.745613
    115          6           0       -6.975877    0.010838    0.417023
    116          6           0       -9.531849   -2.663955    0.582032
    117          6           0       -8.975467    0.745023    1.223476
    118          8           0      -10.078663    0.962484    1.722887
    119          6           0       -8.084586    2.020328    0.897395
    120          6           0       -8.018085    2.869724    2.137003
    121          8           0       -7.448081    2.451319    3.160063
    122          8           0       -8.443925    4.111832    1.843411
    123          6           0       -8.386096    4.994764    3.038778
    124          1           0       -2.052723    2.660425   -2.475423
    125          1           0       -1.470531   -3.558296   -2.467898
    126          1           0       -7.341651   -4.160863   -0.322792
    127          1           0       -6.295759    4.200521   -0.475685
    128          1           0       -3.601737    4.360115   -1.284290
    129          1           0       -6.119601    3.674166   -2.743731
    130          1           0       -4.649317    2.928161   -3.404059
    131          1           0       -4.719185    4.661785   -3.307551
    132          1           0       -3.702067    3.948577    1.065438
    133          1           0       -5.249671    3.692638    1.951206
    134          1           0       -5.451254    6.141111    0.511818
    135          1           0       -3.789427    6.031598    0.971395
    136          1           0        0.036376    2.423895   -2.618424
    137          1           0        0.916547    1.227242   -3.508654
    138          1           0        1.338844    1.465302   -1.796421
    139          1           0        2.189793   -0.588484   -3.269096
    140          1           0        2.955062   -2.086253   -2.483123
    141          1           0        2.353795   -0.700098   -1.528931
    142          1           0       -2.897497   -5.506335   -1.650222
    143          1           0       -5.830767   -5.438508   -2.148277
    144          1           0       -3.011440   -6.193379   -3.805235
    145          1           0       -3.524175   -4.522456   -4.230840
    146          1           0       -4.697876   -5.696807   -3.916269
    147          1           0       -4.673964   -7.178367   -0.731781
    148          1           0       -6.126430   -6.494660   -0.026181
    149          1           0       -3.280245   -6.137911    0.568833
    150          1           0       -4.621932   -6.401685    1.741476
    151          1           0       -4.310269   -4.768944    0.998967
    152          1           0       -9.993617   -2.455297    1.537924
    153          1           0       -9.243876   -3.709842    0.498615
    154          1           0      -10.114366   -2.328551   -0.280201
    155          1           0       -8.556294    2.545579    0.066030
    156          1           0       -9.389235    5.409276    3.178636
    157          1           0       -7.567673    5.712247    2.840911
    158          1           0       -8.215142    4.525599    4.000608
 ---------------------------------------------------------------------

 SCF Done:  E(RCAM-B3LYP) =  -4069.81111882     A.U. after   17 cycles

 Excitation energies and oscillator strengths:

 Excited State   1:      Singlet-A      1.6353 eV  758.18 nm  f=0.2432  <S**2>=0.000
     309 -> 315       -0.11897
     310 -> 316       -0.11292
     311 -> 313        0.49478
     312 -> 314       -0.47835
 This state for optimization and/or second-order correction.
 Total Energy, E(TD-HF/TD-DFT) =  -4069.75102351
 Copying the excited state density for this state as the 1-particle RhoCI density.

 Excited State   2:      Singlet-A      1.6992 eV  729.68 nm  f=0.5306  <S**2>=0.000
     309 -> 315       -0.12728
     310 -> 316        0.12748
     311 -> 313        0.47553
     312 -> 314        0.49217

 Excited State   3:      Singlet-A      2.1833 eV  567.88 nm  f=0.0021  <S**2>=0.000
     309 -> 313        0.47968
     310 -> 314       -0.42983
     311 -> 315        0.20066
     312 -> 316        0.17959

 Excited State   4:      Singlet-A      2.1976 eV  564.19 nm  f=0.1666  <S**2>=0.000
     309 -> 313        0.42187
     310 -> 314        0.47521
     311 -> 315        0.18824
     312 -> 316       -0.20714

 Excited State   5:      Singlet-A      2.2379 eV  554.02 nm  f=0.0013  <S**2>=0.000
     312 -> 313        0.70255

 The electronic state is 1-A.
 Alpha  occ. eigenvalues --  -46.88126 -46.87317 -19.26953 -19.26176 -19.19877
 Alpha  occ. eigenvalues --  -19.18998 -19.18968 -19.18567 -19.18374 -19.17734
 Alpha  occ. eigenvalues --  -14.42793 -14.42161 -14.41654 -14.41013 -14.39704
 Alpha  occ. eigenvalues --  -14.38997 -14.38954 -14.38255 -10.39822 -10.38890
 Alpha  occ. eigenvalues --  -10.35622 -10.34962 -10.34809 -10.33922 -10.32286
 Alpha  occ. eigenvalues --  -10.31785 -10.31633 -10.31243 -10.30969 -10.30942
 Alpha  occ. eigenvalues --  -10.30828 -10.30640 -10.30301 -10.30137 -10.30084
 Alpha  occ. eigenvalues --  -10.29970 -10.29969 -10.29765 -10.29624 -10.29439
 Alpha  occ. eigenvalues --  -10.29127 -10.29023 -10.28960 -10.28947 -10.28724
 Alpha  occ. eigenvalues --  -10.28511 -10.28461 -10.28430 -10.28069 -10.28041
 Alpha  occ. eigenvalues --  -10.28019 -10.27890 -10.27817 -10.27787 -10.27694
 Alpha  occ. eigenvalues --  -10.27638 -10.27603 -10.27290 -10.27262 -10.27253
 Alpha  occ. eigenvalues --  -10.27184 -10.27152 -10.27152 -10.27145 -10.26975
 Alpha  occ. eigenvalues --  -10.26773 -10.26531 -10.26510 -10.26477 -10.26138
 Alpha  occ. eigenvalues --  -10.26093 -10.26062 -10.25908 -10.25703 -10.25578
 Alpha  occ. eigenvalues --  -10.25557 -10.25462 -10.25349 -10.25246 -10.25213
 Alpha  occ. eigenvalues --  -10.25185 -10.25016 -10.24503 -10.24502 -10.24370
 Alpha  occ. eigenvalues --  -10.22815  -3.16882  -3.16069  -1.91767  -1.91345
 Alpha  occ. eigenvalues --   -1.91191  -1.90952  -1.90540  -1.90376  -1.17315
 Alpha  occ. eigenvalues --   -1.16465  -1.09060  -1.08361  -1.07408  -1.07387
 Alpha  occ. eigenvalues --   -1.06750  -1.06735  -1.04921  -1.04150  -1.04008
 Alpha  occ. eigenvalues --   -1.03536  -1.03323  -1.02692  -1.02687  -1.01759
 Alpha  occ. eigenvalues --   -0.92355  -0.91655  -0.89606  -0.89446  -0.89184
 Alpha  occ. eigenvalues --   -0.88851  -0.88190  -0.88125  -0.87938  -0.87931
 Alpha  occ. eigenvalues --   -0.87522  -0.87455  -0.87325  -0.86454  -0.85308
 Alpha  occ. eigenvalues --   -0.84689  -0.83844  -0.83613  -0.83017  -0.82749
 Alpha  occ. eigenvalues --   -0.82484  -0.82136  -0.81960  -0.81330  -0.80881
 Alpha  occ. eigenvalues --   -0.80110  -0.79058  -0.78085  -0.77440  -0.77101
 Alpha  occ. eigenvalues --   -0.76734  -0.76632  -0.76211  -0.75456  -0.74829
 Alpha  occ. eigenvalues --   -0.74480  -0.73004  -0.72321  -0.71925  -0.71259
 Alpha  occ. eigenvalues --   -0.69493  -0.69460  -0.69094  -0.68482  -0.67929
 Alpha  occ. eigenvalues --   -0.67540  -0.67266  -0.66851  -0.65633  -0.65196
 Alpha  occ. eigenvalues --   -0.64974  -0.64857  -0.64454  -0.64379  -0.64048
 Alpha  occ. eigenvalues --   -0.63907  -0.62642  -0.62020  -0.60637  -0.60148
 Alpha  occ. eigenvalues --   -0.59849  -0.59470  -0.59246  -0.58773  -0.58667
 Alpha  occ. eigenvalues --   -0.58084  -0.58067  -0.57415  -0.57276  -0.56886
 Alpha  occ. eigenvalues --   -0.56656  -0.56388  -0.55828  -0.55799  -0.55571
 Alpha  occ. eigenvalues --   -0.55516  -0.55092  -0.54977  -0.54550  -0.54254
 Alpha  occ. eigenvalues --   -0.54235  -0.53620  -0.53540  -0.53499  -0.53268
 Alpha  occ. eigenvalues --   -0.53015  -0.52903  -0.52827  -0.52622  -0.52325
 Alpha  occ. eigenvalues --   -0.52165  -0.52071  -0.51956  -0.51875  -0.51579
 Alpha  occ. eigenvalues --   -0.51496  -0.51051  -0.50848  -0.50719  -0.50216
 Alpha  occ. eigenvalues --   -0.50040  -0.49855  -0.49704  -0.49562  -0.49518
 Alpha  occ. eigenvalues --   -0.49378  -0.49315  -0.49077  -0.48991  -0.48818
 Alpha  occ. eigenvalues --   -0.48747  -0.48700  -0.48428  -0.48243  -0.48098
 Alpha  occ. eigenvalues --   -0.48013  -0.47855  -0.47508  -0.47190  -0.47005
 Alpha  occ. eigenvalues --   -0.46836  -0.46651  -0.46475  -0.46367  -0.46256
 Alpha  occ. eigenvalues --   -0.46184  -0.46113  -0.45843  -0.45696  -0.45551
 Alpha  occ. eigenvalues --   -0.45146  -0.44919  -0.44868  -0.44692  -0.44461
 Alpha  occ. eigenvalues --   -0.44312  -0.44213  -0.44171  -0.44051  -0.43848
 Alpha  occ. eigenvalues --   -0.43811  -0.43721  -0.43665  -0.43359  -0.43312
 Alpha  occ. eigenvalues --   -0.43282  -0.43087  -0.42953  -0.42686  -0.42559
 Alpha  occ. eigenvalues --   -0.42475  -0.42231  -0.41938  -0.41910  -0.41686
 Alpha  occ. eigenvalues --   -0.41417  -0.41364  -0.41315  -0.41126  -0.41032
 Alpha  occ. eigenvalues --   -0.40864  -0.40634  -0.40586  -0.40448  -0.40405
 Alpha  occ. eigenvalues --   -0.40225  -0.40123  -0.39757  -0.39160  -0.38865
 Alpha  occ. eigenvalues --   -0.38386  -0.38085  -0.38072  -0.37634  -0.37409
 Alpha  occ. eigenvalues --   -0.37282  -0.37104  -0.36956  -0.36844  -0.36563
 Alpha  occ. eigenvalues --   -0.36209  -0.35941  -0.34606  -0.34452  -0.33923
 Alpha  occ. eigenvalues --   -0.33641  -0.33382  -0.32835  -0.31542  -0.31350
 Alpha  occ. eigenvalues --   -0.30760  -0.30612  -0.30437  -0.29747  -0.29655
 Alpha  occ. eigenvalues --   -0.29649  -0.28915  -0.28800  -0.24396  -0.23697
 Alpha  occ. eigenvalues --   -0.21414  -0.20747
 Alpha virt. eigenvalues --   -0.09092  -0.08407  -0.02033  -0.01367  -0.00351
 Alpha virt. eigenvalues --    0.00327   0.01839   0.02469   0.02616   0.03561
 Alpha virt. eigenvalues --    0.04378   0.04405   0.05029   0.05380   0.05743

 Mulliken charges:
               1
     1  Mg   0.817876
     2  C   -0.007164
     3  C   -0.093500
     4  C   -0.045639
     5  C   -0.035565
     6  N   -0.255900
     7  C   -0.056373
     8  C   -0.013109
     9  C   -0.087243
    10  C    0.048034
    11  C    0.104558
    12  C    0.052920
    13  C   -0.071868
    14  H    0.034367
    15  N   -0.431934
    16  C    0.168801
    17  C   -0.176092
    18  C   -0.002528
    19  C    0.150655
    20  C    0.109776
    21  C    0.013699
    22  O   -0.247244
    23  C    0.061889
    24  N   -0.340540
    25  C    0.047820
    26  C   -0.028446
    27  C   -0.018720
    28  C    0.057232
    29  C    0.076721
    30  C    0.036345
    31  C    0.016886
    32  N   -0.312208
    33  C    0.058081
    34  C   -0.171993
    35  C    0.007212
    36  C    0.076802
    37  C    0.128014
    38  C    0.040741
    39  O   -0.188713
    40  C   -0.004693
    41  C    0.216648
    42  O   -0.262286
    43  O   -0.302649
    44  C    0.157511
    45  H   -0.016837
    46  H   -0.014665
    47  H   -0.038312
    48  H    0.000973
    49  H   -0.003292
    50  H    0.025823
    51  H    0.017252
    52  H    0.017603
    53  H    0.012228
    54  H    0.040509
    55  H    0.018928
    56  H    0.019507
    57  H    0.006285
    58  H    0.028031
    59  H    0.041646
    60  H    0.037360
    61  H    0.037170
    62  H    0.032727
    63  H    0.019597
    64  H    0.007518
    65  H    0.023614
    66  H    0.010727
    67  H    0.005124
    68  H    0.000870
    69  H   -0.000206
    70  H   -0.007400
    71  H    0.033641
    72  H    0.020050
    73  H    0.044531
    74  H    0.011609
    75  H    0.046617
    76  H    0.036690
    77  H    0.044820
    78  H    0.047778
    79  H    0.051269
    80  Mg   0.835853
    81  C   -0.016821
    82  C   -0.086102
    83  C   -0.047014
    84  C   -0.065331
    85  N   -0.254208
    86  C   -0.051346
    87  C   -0.014981
    88  C   -0.090120
    89  C    0.044502
    90  C    0.114356
    91  C    0.062615
    92  C   -0.076977
    93  H    0.032296
    94  N   -0.423423
    95  C    0.161019
    96  C   -0.178250
    97  C    0.000246
    98  C    0.152723
    99  C    0.106829
   100  C    0.026572
   101  O   -0.254529
   102  C    0.047220
   103  N   -0.350190
   104  C    0.038445
   105  C   -0.019879
   106  C   -0.034332
   107  C    0.088234
   108  C    0.073964
   109  C    0.035020
   110  C   -0.007339
   111  N   -0.323629
   112  C    0.077084
   113  C   -0.164426
   114  C    0.001770
   115  C    0.095012
   116  C    0.131761
   117  C    0.041413
   118  O   -0.189879
   119  C    0.001113
   120  C    0.211137
   121  O   -0.251900
   122  O   -0.305492
   123  C    0.152423
   124  H   -0.015295
   125  H   -0.017602
   126  H   -0.041721
   127  H   -0.001463
   128  H   -0.003478
   129  H    0.021681
   130  H    0.015206
   131  H    0.016438
   132  H    0.013859
   133  H    0.036746
   134  H    0.020787
   135  H    0.019209
   136  H    0.015205
   137  H    0.030298
   138  H    0.047803
   139  H    0.042980
   140  H    0.035594
   141  H    0.039643
   142  H    0.013412
   143  H    0.011663
   144  H    0.023456
   145  H    0.011887
   146  H    0.005433
   147  H    0.005165
   148  H    0.003162
   149  H    0.010711
   150  H    0.017305
   151  H    0.030415
   152  H    0.044767
   153  H    0.007649
   154  H    0.045984
   155  H    0.034467
   156  H    0.043363
   157  H    0.049099
   158  H    0.052766
 Sum of Mulliken charges =  -0.00000

 Dipole moment (field-independent basis, Debye):
    X=              4.7281    Y=              3.1901    Z=              1.7647  Tot=              5.9704
 Quadrupole moment (field-independent basis, Debye-Ang):
   XX=           -547.7859   YY=           -466.4008   ZZ=           -512.5110
   XY=             10.6962   XZ=             42.8394   YZ=             29.3287

 Normal termination of Gaussian 16 at Thu Sep  9 13:49:24 2021.
