 Gaussian 16, Revision A.03,
 Gaussian 16:  ES64L-G16RevA.03 25-Dec-2016

 -----------------------------------
 #p cam-b3lyp/Def2SVP td=(nstates=5)
 -----------------------------------

 --------------------------------
 TDDFT excited states in gaussian
 --------------------------------
 Symbolic Z-matrix:
 Charge =  0 Multiplicity = 1

                         Standard orientation:
 ---------------------------------------------------------------------
 Center     Atomic      Atomic             Coordinates (Angstroms)
 Number     Number       Type             X           Y           Z
 ---------------------------------------------------------------------
      1         12           0        6.451206    1.014956    0.234659
      2          6           0        7.216064   -2.442941   -0.285104
      3          6           0        7.294250    1.538644   -3.030015
      4          6           0        6.220865    4.129037    0.787887
      5          6           0        6.768717    0.419060    3.653688
      6          7           0        7.149609   -0.358224   -1.355076
      7          6           0        7.344123   -1.670417   -1.441586
      8          6           0        7.623340   -2.159144   -2.894362
      9          6           0        8.175887   -0.798793   -3.515760
     10          6           0        7.471243    0.189117   -2.602834
     11          6           0        9.682964   -0.624741   -3.357875
     12          6           0        6.321053   -2.634206   -3.622439
     13          6           0        6.546256   -3.425321   -4.914250
     14          1           0        5.634820   -4.512590   -5.237485
     15          7           0        6.244877    2.527218   -1.019670
     16          6           0        6.629683    2.560648   -2.318167
     17          6           0        6.259583    3.902042   -2.818536
     18          6           0        5.801283    4.711158   -1.655184
     19          6           0        6.099292    3.818460   -0.564469
     20          6           0        6.312145    4.283649   -4.266073
     21          6           0        5.201199    6.076991   -1.543244
     22          8           0        5.091132    6.681762   -0.422212
     23          6           0        4.821589    6.733369   -2.807406
     24          7           0        6.703348    2.174599    1.952008
     25          6           0        6.486958    3.494347    1.931394
     26          6           0        6.451151    4.063514    3.318732
     27          6           0        6.446679    2.811759    4.310115
     28          6           0        6.570016    1.679358    3.260960
     29          6           0        7.608427    5.002139    3.687113
     30          6           0        5.294871    2.737418    5.343668
     31          6           0        3.980950    2.504641    4.631963
     32          7           0        6.733928   -0.724262    1.502032
     33          6           0        6.861262   -0.738126    2.898552
     34          6           0        7.144204   -2.130475    3.292732
     35          6           0        7.178458   -2.831488    2.088883
     36          6           0        6.958541   -1.929336    1.009045
     37          6           0        7.388728   -2.588245    4.617529
     38          6           0        7.374139   -4.128557    1.461844
     39          8           0        7.503477   -5.281394    1.876249
     40          6           0        7.527370   -3.908274   -0.107813
     41          6           0        6.634955   -4.904984   -0.795908
     42          8           0        5.393398   -4.827813   -0.696168
     43          8           0        7.364727   -5.641148   -1.647986
     44          6           0        6.534152   -6.630391   -2.385345
     45          1           0        7.755367    1.860886   -3.965681
     46          1           0        6.037854    5.177340    1.032848
     47          1           0        6.796090    0.142659    4.709295
     48          1           0        8.380594   -2.939326   -2.973777
     49          1           0        7.850574   -0.660621   -4.546682
     50          1           0       10.110488   -1.405621   -2.729090
     51          1           0        9.816053    0.352880   -2.894155
     52          1           0       10.169905   -0.563352   -4.331475
     53          1           0        5.797535   -1.766994   -4.024848
     54          1           0        5.692546   -3.216685   -2.947886
     55          1           0        7.581598   -3.755301   -5.004186
     56          1           0        6.402955   -2.749920   -5.757753
     57          1           0        6.844464    3.539604   -4.857323
     58          1           0        6.929166    5.179169   -4.337067
     59          1           0        5.321491    4.486561   -4.673213
     60          1           0        5.702246    6.826183   -3.443313
     61          1           0        4.328136    7.663289   -2.527041
     62          1           0        4.122920    6.090211   -3.343277
     63          1           0        5.546365    4.648648    3.478127
     64          1           0        7.351521    2.767187    4.916702
     65          1           0        7.283820    5.991330    4.010898
     66          1           0        8.273459    5.070973    2.826714
     67          1           0        8.282760    4.617982    4.452041
     68          1           0        5.205920    3.681095    5.880796
     69          1           0        5.429580    1.946936    6.082073
     70          1           0        3.685324    3.509320    4.331869
     71          1           0        3.250144    2.070260    5.314933
     72          1           0        4.119123    1.920199    3.722116
     73          1           0        6.828510   -3.516675    4.727720
     74          1           0        7.078905   -1.848678    5.355536
     75          1           0        8.470021   -2.721772    4.588681
     76          1           0        8.578675   -4.067531   -0.345546
     77          1           0        6.972912   -7.612596   -2.209288
     78          1           0        6.476140   -6.279478   -3.415830
     79          1           0        5.522578   -6.786404   -2.008892
     80         12           0       -6.618942   -1.072161    0.079210
     81          6           0       -6.950328    2.376141   -0.858043
     82          6           0       -5.942595    0.007684    3.243235
     83          6           0       -5.879096   -4.063546    0.835327
     84          6           0       -6.189043   -1.805472   -3.300610
     85          7           0       -6.492481    0.954736    0.955524
     86          6           0       -6.698357    2.187426    0.516851
     87          6           0       -6.709872    3.271839    1.627476
     88          6           0       -5.830418    2.499377    2.726905
     89          6           0       -6.129369    1.060249    2.311936
     90          6           0       -4.336971    2.738570    2.579381
     91          6           0       -8.156703    3.570866    2.155919
     92          6           0       -8.279681    4.830735    3.015795
     93          1           0       -9.500976    5.625061    2.915997
     94          7           0       -6.483677   -1.952649    1.852627
     95          6           0       -6.225673   -1.360488    3.037559
     96          6           0       -6.211294   -2.443003    4.033611
     97          6           0       -6.318390   -3.742284    3.315902
     98          6           0       -6.207846   -3.294441    1.942102
     99          6           0       -6.183656   -2.187577    5.512610
    100          6           0       -6.479168   -5.155474    3.788387
    101          8           0       -6.310837   -6.152207    3.000339
    102          6           0       -6.747602   -5.340904    5.221933
    103          7           0       -5.898202   -2.671481   -1.036615
    104          6           0       -5.712267   -3.878646   -0.474365
    105          6           0       -5.454965   -4.934806   -1.522568
    106          6           0       -5.747715   -4.227061   -2.926486
    107          6           0       -6.050578   -2.796178   -2.430256
    108          6           0       -4.046800   -5.529164   -1.536401
    109          6           0       -6.777100   -4.918332   -3.862002
    110          6           0       -8.158102   -4.848470   -3.250971
    111          7           0       -6.755252    0.021358   -1.779196
    112          6           0       -6.510587   -0.472418   -3.079357
    113          6           0       -6.617253    0.672332   -4.007049
    114          6           0       -6.896066    1.765588   -3.173045
    115          6           0       -6.938765    1.336348   -1.818998
    116          6           0       -6.414647    0.623666   -5.415131
    117          6           0       -7.153449    3.187037   -3.129209
    118          8           0       -7.325987    4.065057   -3.973630
    119          6           0       -7.074899    3.668406   -1.616434
    120          6           0       -8.276570    4.529900   -1.340130
    121          8           0       -9.421251    4.044342   -1.363754
    122          8           0       -7.865101    5.726457   -0.882619
    123          6           0       -9.021563    6.612531   -0.583799
    124          1           0       -5.497522    0.243467    4.210297
    125          1           0       -5.723427   -5.127239    1.029722
    126          1           0       -6.165246   -1.969195   -4.380100
    127          1           0       -6.230447    4.204812    1.356396
    128          1           0       -6.197622    2.690533    3.731886
    129          1           0       -4.104722    3.295951    1.684107
    130          1           0       -3.884065    1.756480    2.541807
    131          1           0       -3.941415    3.218649    3.479045
    132          1           0       -8.431492    2.809723    2.897463
    133          1           0       -8.856653    3.617496    1.344419
    134          1           0       -7.395105    5.473924    2.933465
    135          1           0       -8.297674    4.532998    4.067009
    136          1           0       -5.940504   -1.141374    5.735648
    137          1           0       -5.339771   -2.755234    5.919409
    138          1           0       -7.099720   -2.509016    6.012759
    139          1           0       -5.939159   -4.900468    5.800650
    140          1           0       -6.920067   -6.411180    5.350905
    141          1           0       -7.657688   -4.788771    5.481743
    142          1           0       -6.132200   -5.771539   -1.402847
    143          1           0       -4.841140   -4.159643   -3.545681
    144          1           0       -4.036279   -6.629411   -1.420499
    145          1           0       -3.469952   -5.058564   -0.751338
    146          1           0       -3.458244   -5.301742   -2.423574
    147          1           0       -6.538512   -5.979323   -3.969342
    148          1           0       -6.808184   -4.492726   -4.859444
    149          1           0       -8.164371   -5.694998   -2.557841
    150          1           0       -8.922258   -4.960319   -4.017519
    151          1           0       -8.279936   -3.935207   -2.657045
    152          1           0       -7.203419    1.212826   -5.863721
    153          1           0       -6.423861   -0.400231   -5.782977
    154          1           0       -5.421798    1.076038   -5.485063
    155          1           0       -6.140626    4.218067   -1.495641
    156          1           0       -8.874471    7.533727   -1.156014
    157          1           0       -9.051314    6.703454    0.518292
    158          1           0       -9.997433    6.298682   -0.935410
 ---------------------------------------------------------------------

 SCF Done:  E(RCAM-B3LYP) =  -4069.81178828     A.U. after   19 cycles

 Excitation energies and oscillator strengths:

 Excited State   1:      Singlet-A      1.6665 eV  743.98 nm  f=0.0364  <S**2>=0.000
     309 -> 315        0.10713
     310 -> 316        0.13426
     311 -> 313        0.42750
     312 -> 314        0.53725
 This state for optimization and/or second-order correction.
 Total Energy, E(TD-HF/TD-DFT) =  -4069.75054560
 Copying the excited state density for this state as the 1-particle RhoCI density.

 Excited State   2:      Singlet-A      1.6885 eV  734.27 nm  f=0.7060  <S**2>=0.000
     309 -> 315        0.13908
     310 -> 316       -0.11019
     311 -> 313        0.53611
     312 -> 314       -0.42665

 Excited State   3:      Singlet-A      2.1851 eV  567.40 nm  f=0.0461  <S**2>=0.000
     309 -> 313        0.19552
     310 -> 314        0.61271
     312 -> 316       -0.25923

 Excited State   4:      Singlet-A      2.1938 eV  565.14 nm  f=0.1436  <S**2>=0.000
     309 -> 313        0.61015
     310 -> 314       -0.19388
     311 -> 315       -0.26596

 Excited State   5:      Singlet-A      2.6513 eV  467.63 nm  f=0.0000  <S**2>=0.000
     312 -> 313        0.70710

 The electronic state is 1-A.
 Alpha  occ. eigenvalues --  -46.87853 -46.87554 -19.26322 -19.26286 -19.19093
 Alpha  occ. eigenvalues --  -19.19060 -19.18854 -19.18594 -19.18214 -19.17972
 Alpha  occ. eigenvalues --  -14.42503 -14.42392 -14.41511 -14.41249 -14.39456
 Alpha  occ. eigenvalues --  -14.39244 -14.38642 -14.38499 -10.39120 -10.39021
 Alpha  occ. eigenvalues --  -10.35485 -10.35270 -10.34434 -10.34150 -10.31713
 Alpha  occ. eigenvalues --  -10.31702 -10.31457 -10.31213 -10.30955 -10.30915
 Alpha  occ. eigenvalues --  -10.30624 -10.30565 -10.30295 -10.30270 -10.30266
 Alpha  occ. eigenvalues --  -10.30024 -10.29987 -10.29784 -10.29682 -10.29326
 Alpha  occ. eigenvalues --  -10.29306 -10.29303 -10.28791 -10.28623 -10.28581
 Alpha  occ. eigenvalues --  -10.28575 -10.28414 -10.28301 -10.28158 -10.28040
 Alpha  occ. eigenvalues --  -10.27903 -10.27843 -10.27778 -10.27632 -10.27593
 Alpha  occ. eigenvalues --  -10.27564 -10.27536 -10.27504 -10.27455 -10.27399
 Alpha  occ. eigenvalues --  -10.27381 -10.27364 -10.27358 -10.27238 -10.27203
 Alpha  occ. eigenvalues --  -10.26968 -10.26745 -10.26610 -10.26421 -10.26312
 Alpha  occ. eigenvalues --  -10.26292 -10.26271 -10.26083 -10.26042 -10.25910
 Alpha  occ. eigenvalues --  -10.25905 -10.25832 -10.25796 -10.25514 -10.25204
 Alpha  occ. eigenvalues --  -10.24883 -10.24847 -10.24844 -10.24777 -10.24643
 Alpha  occ. eigenvalues --  -10.24575  -3.16596  -3.16304  -1.91478  -1.91186
 Alpha  occ. eigenvalues --   -1.91064  -1.90906  -1.90774  -1.90611  -1.16671
 Alpha  occ. eigenvalues --   -1.16579  -1.08671  -1.08583  -1.07255  -1.06878
 Alpha  occ. eigenvalues --   -1.06844  -1.06682  -1.04633  -1.04391  -1.03819
 Alpha  occ. eigenvalues --   -1.03556  -1.03289  -1.02931  -1.02468  -1.02005
 Alpha  occ. eigenvalues --   -0.92023  -0.91891  -0.89600  -0.89389  -0.89232
 Alpha  occ. eigenvalues --   -0.89053  -0.88366  -0.88102  -0.87925  -0.87726
 Alpha  occ. eigenvalues --   -0.87709  -0.87580  -0.87313  -0.87011  -0.85029
 Alpha  occ. eigenvalues --   -0.84901  -0.84024  -0.83761  -0.83011  -0.82816
 Alpha  occ. eigenvalues --   -0.82694  -0.82551  -0.81634  -0.81513  -0.80645
 Alpha  occ. eigenvalues --   -0.80348  -0.78842  -0.78535  -0.77279  -0.77046
 Alpha  occ. eigenvalues --   -0.76988  -0.76800  -0.75970  -0.75745  -0.74968
 Alpha  occ. eigenvalues --   -0.74677  -0.72832  -0.72600  -0.71727  -0.71468
 Alpha  occ. eigenvalues --   -0.70007  -0.69648  -0.68920  -0.68729  -0.67692
 Alpha  occ. eigenvalues --   -0.67500  -0.67261  -0.67103  -0.65336  -0.65177
 Alpha  occ. eigenvalues --   -0.64910  -0.64679  -0.64672  -0.64558  -0.64344
 Alpha  occ. eigenvalues --   -0.64095  -0.62348  -0.62194  -0.60492  -0.60228
 Alpha  occ. eigenvalues --   -0.59851  -0.59698  -0.59045  -0.58889  -0.58559
 Alpha  occ. eigenvalues --   -0.58326  -0.57632  -0.57473  -0.57369  -0.57130
 Alpha  occ. eigenvalues --   -0.56358  -0.56111  -0.56021  -0.55803  -0.55565
 Alpha  occ. eigenvalues --   -0.55411  -0.55356  -0.55144  -0.54589  -0.54389
 Alpha  occ. eigenvalues --   -0.53939  -0.53815  -0.53352  -0.53263  -0.53127
 Alpha  occ. eigenvalues --   -0.53044  -0.52968  -0.52810  -0.52793  -0.52558
 Alpha  occ. eigenvalues --   -0.52541  -0.52303  -0.51972  -0.51814  -0.51656
 Alpha  occ. eigenvalues --   -0.51562  -0.51255  -0.51111  -0.50604  -0.50361
 Alpha  occ. eigenvalues --   -0.50111  -0.49960  -0.49873  -0.49746  -0.49556
 Alpha  occ. eigenvalues --   -0.49384  -0.49260  -0.49141  -0.49108  -0.49011
 Alpha  occ. eigenvalues --   -0.48643  -0.48525  -0.48486  -0.48467  -0.48261
 Alpha  occ. eigenvalues --   -0.48227  -0.47746  -0.47492  -0.47346  -0.47007
 Alpha  occ. eigenvalues --   -0.46860  -0.46608  -0.46599  -0.46455  -0.46417
 Alpha  occ. eigenvalues --   -0.46223  -0.46168  -0.45983  -0.45874  -0.45739
 Alpha  occ. eigenvalues --   -0.45274  -0.45076  -0.44630  -0.44557  -0.44424
 Alpha  occ. eigenvalues --   -0.44378  -0.44212  -0.44134  -0.44062  -0.44030
 Alpha  occ. eigenvalues --   -0.43975  -0.43840  -0.43546  -0.43469  -0.43442
 Alpha  occ. eigenvalues --   -0.43283  -0.43083  -0.42850  -0.42805  -0.42769
 Alpha  occ. eigenvalues --   -0.42720  -0.42443  -0.42085  -0.41866  -0.41758
 Alpha  occ. eigenvalues --   -0.41583  -0.41573  -0.41361  -0.41194  -0.40930
 Alpha  occ. eigenvalues --   -0.40880  -0.40863  -0.40646  -0.40619  -0.40592
 Alpha  occ. eigenvalues --   -0.40381  -0.40275  -0.40132  -0.39550  -0.39319
 Alpha  occ. eigenvalues --   -0.38545  -0.38231  -0.37795  -0.37563  -0.37392
 Alpha  occ. eigenvalues --   -0.37310  -0.37158  -0.37101  -0.36766  -0.36692
 Alpha  occ. eigenvalues --   -0.36251  -0.36113  -0.34342  -0.34151  -0.33813
 Alpha  occ. eigenvalues --   -0.33787  -0.33241  -0.33072  -0.31385  -0.31153
 Alpha  occ. eigenvalues --   -0.31090  -0.30866  -0.30074  -0.29878  -0.29497
 Alpha  occ. eigenvalues --   -0.29373  -0.29223  -0.29116  -0.24136  -0.23931
 Alpha  occ. eigenvalues --   -0.21183  -0.21012
 Alpha virt. eigenvalues --   -0.08826  -0.08688  -0.01807  -0.01574  -0.00101
 Alpha virt. eigenvalues --    0.00079   0.02148   0.02299   0.03054   0.03324
 Alpha virt. eigenvalues --    0.04666   0.04833   0.05057   0.05237   0.06134

 Mulliken charges:
               1
     1  Mg   0.838621
     2  C   -0.002879
     3  C   -0.093864
     4  C   -0.046055
     5  C   -0.064149
     6  N   -0.256762
     7  C   -0.052500
     8  C   -0.014027
     9  C   -0.087019
    10  C    0.046292
    11  C    0.104768
    12  C    0.053442
    13  C   -0.071821
    14  H    0.035987
    15  N   -0.433208
    16  C    0.168413
    17  C   -0.176887
    18  C   -0.003911
    19  C    0.148732
    20  C    0.110077
    21  C    0.012292
    22  O   -0.249859
    23  C    0.062414
    24  N   -0.341087
    25  C    0.041229
    26  C   -0.028198
    27  C   -0.023846
    28  C    0.074610
    29  C    0.076160
    30  C    0.035263
    31  C   -0.004374
    32  N   -0.310447
    33  C    0.080255
    34  C   -0.169904
    35  C    0.008448
    36  C    0.082864
    37  C    0.127350
    38  C    0.046112
    39  O   -0.188318
    40  C   -0.005335
    41  C    0.212930
    42  O   -0.257129
    43  O   -0.304766
    44  C    0.157651
    45  H   -0.017331
    46  H   -0.016947
    47  H   -0.041808
    48  H    0.001031
    49  H   -0.003845
    50  H    0.025511
    51  H    0.016452
    52  H    0.016854
    53  H    0.011250
    54  H    0.044030
    55  H    0.017988
    56  H    0.018099
    57  H    0.006011
    58  H    0.027026
    59  H    0.040120
    60  H    0.037485
    61  H    0.035907
    62  H    0.031980
    63  H    0.016151
    64  H    0.009537
    65  H    0.023108
    66  H    0.012831
    67  H    0.004777
    68  H    0.006085
    69  H    0.004607
    70  H    0.008436
    71  H    0.016893
    72  H    0.029390
    73  H    0.047534
    74  H    0.008739
    75  H    0.046099
    76  H    0.035257
    77  H    0.043088
    78  H    0.046386
    79  H    0.053701
    80  Mg   0.838082
    81  C   -0.016973
    82  C   -0.087721
    83  C   -0.044977
    84  C   -0.064825
    85  N   -0.254616
    86  C   -0.049882
    87  C   -0.015107
    88  C   -0.090552
    89  C    0.045905
    90  C    0.114338
    91  C    0.062552
    92  C   -0.077786
    93  H    0.034536
    94  N   -0.423652
    95  C    0.163171
    96  C   -0.174258
    97  C   -0.007386
    98  C    0.152243
    99  C    0.099224
   100  C    0.015877
   101  O   -0.252705
   102  C    0.061162
   103  N   -0.350003
   104  C    0.037896
   105  C   -0.020115
   106  C   -0.034560
   107  C    0.088876
   108  C    0.073233
   109  C    0.034763
   110  C   -0.007613
   111  N   -0.323995
   112  C    0.078327
   113  C   -0.163481
   114  C    0.001998
   115  C    0.096144
   116  C    0.131554
   117  C    0.042018
   118  O   -0.188633
   119  C    0.001034
   120  C    0.211153
   121  O   -0.251135
   122  O   -0.305597
   123  C    0.152140
   124  H   -0.019587
   125  H   -0.015013
   126  H   -0.040922
   127  H   -0.000684
   128  H   -0.004529
   129  H    0.022598
   130  H    0.014952
   131  H    0.016213
   132  H    0.013845
   133  H    0.037531
   134  H    0.020859
   135  H    0.019513
   136  H    0.008615
   137  H    0.026703
   138  H    0.039638
   139  H    0.038591
   140  H    0.036502
   141  H    0.033538
   142  H    0.014209
   143  H    0.012345
   144  H    0.025321
   145  H    0.013428
   146  H    0.005989
   147  H    0.006223
   148  H    0.003151
   149  H    0.011007
   150  H    0.017527
   151  H    0.030082
   152  H    0.045626
   153  H    0.008277
   154  H    0.046279
   155  H    0.034893
   156  H    0.043664
   157  H    0.049545
   158  H    0.053415
 Sum of Mulliken charges =  -0.00000

 Dipole moment (field-independent basis, Debye):
    X=              3.7720    Y=              2.2265    Z=              0.4663  Tot=              4.4048
 Quadrupole moment (field-independent basis, Debye-Ang):
   XX=           -522.2398   YY=           -545.1962   ZZ=           -451.9199
   XY=             20.6895   XZ=            -60.8782   YZ=             41.1256

 Normal termination of Gaussian 16 at Sat Sep  4 08:29:17 2021.
