 Gaussian 16, Revision A.03,
 Gaussian 16:  ES64L-G16RevA.03 25-Dec-2016

 -----------------------------------
 #p cam-b3lyp/Def2SVP td=(nstates=5)
 -----------------------------------

 --------------------------------
 TDDFT excited states in gaussian
 --------------------------------
 Symbolic Z-matrix:
 Charge =  0 Multiplicity = 1

                         Standard orientation:
 ---------------------------------------------------------------------
 Center     Atomic      Atomic             Coordinates (Angstroms)
 Number     Number       Type             X           Y           Z
 ---------------------------------------------------------------------
      1         12           0        6.364733    0.676932    0.029781
      2          6           0        6.719653   -2.530866   -1.518212
      3          6           0        7.252842    2.054046   -2.963192
      4          6           0        6.500709    3.489801    1.487827
      5          6           0        6.621328   -0.942730    3.104926
      6          7           0        6.893316   -0.227924   -1.920215
      7          6           0        6.933269   -1.467670   -2.398342
      8          6           0        7.149056   -1.528574   -3.940126
      9          6           0        7.854464   -0.114480   -4.151633
     10          6           0        7.272650    0.627639   -2.961391
     11          6           0        9.372043   -0.162837   -4.006312
     12          6           0        5.797994   -1.618150   -4.726472
     13          6           0        5.925391   -2.007792   -6.202040
     14          1           0        4.892417   -2.841660   -6.797840
     15          7           0        6.332167    2.507546   -0.712272
     16          6           0        6.714176    2.884034   -1.956302
     17          6           0        6.501401    4.345865   -2.023080
     18          6           0        6.144193    4.816604   -0.656002
     19          6           0        6.339523    3.612074    0.109721
     20          6           0        6.593553    5.133566   -3.293822
     21          6           0        5.707770    6.144371   -0.122428
     22          8           0        5.672466    6.395568    1.130659
     23          6           0        5.403304    7.185578   -1.120541
     24          7           0        6.755717    1.236395    2.002537
     25          6           0        6.694583    2.517665    2.381476
     26          6           0        6.729717    2.647492    3.875414
     27          6           0        6.582464    1.165541    4.451513
     28          6           0        6.569666    0.391200    3.110431
     29          6           0        7.989669    3.299842    4.461051
     30          6           0        5.433087    0.913910    5.459498
     31          6           0        4.098764    1.050444    4.760899
     32          7           0        6.446755   -1.381177    0.714255
     33          6           0        6.575980   -1.824858    2.038311
     34          6           0        6.695919   -3.293712    1.991946
     35          6           0        6.644449   -3.603093    0.634198
     36          6           0        6.527814   -2.401461   -0.121293
     37          6           0        6.889564   -4.149798    3.111791
     38          6           0        6.685630   -4.667425   -0.355427
     39          8           0        6.680997   -5.898284   -0.305831
     40          6           0        6.858575   -4.007363   -1.794258
     41          6           0        5.853905   -4.648658   -2.712237
     42          8           0        4.630127   -4.468247   -2.547354
     43          8           0        6.490212   -5.173017   -3.770870
     44          6           0        5.547676   -5.799365   -4.735996
     45          1           0        7.745445    2.587727   -3.778340
     46          1           0        6.441916    4.430830    2.038686
     47          1           0        6.619601   -1.522619    4.029684
     48          1           0        7.809949   -2.328131   -4.275320
     49          1           0        7.544246    0.359869   -5.082482
     50          1           0        9.707593   -1.137881   -3.653301
     51          1           0        9.619640    0.611060   -3.279488
     52          1           0        9.859767    0.131995   -4.935815
     53          1           0        5.377879   -0.618175   -4.834245
     54          1           0        5.107989   -2.302219   -4.231228
     55          1           0        6.914922   -2.408061   -6.424579
     56          1           0        5.859158   -1.100077   -6.801928
     57          1           0        7.033653    4.545734   -4.098378
     58          1           0        7.310533    5.935695   -3.119929
     59          1           0        5.632035    5.556675   -3.585017
     60          1           0        6.286779    7.366052   -1.733281
     61          1           0        5.022498    8.038063   -0.559197
     62          1           0        4.632748    6.812707   -1.795938
     63          1           0        5.899813    3.254551    4.234810
     64          1           0        7.477838    0.842540    4.983161
     65          1           0        7.783602    4.176943    5.075003
     66          1           0        8.655490    3.548322    3.635079
     67          1           0        8.617016    2.633094    5.052066
     68          1           0        5.456431    1.658232    6.254726
     69          1           0        5.477043   -0.070621    5.925349
     70          1           0        3.921332    2.125092    4.782854
     71          1           0        3.324449    0.515564    5.311852
     72          1           0        4.165014    0.752438    3.714339
     73          1           0        6.225285   -5.001087    2.963430
     74          1           0        6.670379   -3.634530    4.046702
     75          1           0        7.947824   -4.387099    3.003947
     76          1           0        7.883398   -4.203453   -2.107960
     77          1           0        5.869498   -6.831506   -4.875096
     78          1           0        5.527737   -5.152942   -5.613575
     79          1           0        4.525997   -5.947934   -4.384660
     80         12           0       -6.842699    0.188611   -0.250901
     81          6           0       -5.279930   -1.386633    2.569633
     82          6           0       -6.061845    3.185166    1.179333
     83          6           0       -8.599105    1.599942   -2.484866
     84          6           0       -8.469902   -2.832376   -0.860450
     85          7           0       -5.803133    0.703087    1.632410
     86          6           0       -5.198724    0.021301    2.593764
     87          6           0       -4.397829    0.895078    3.596089
     88          6           0       -5.187398    2.278661    3.393238
     89          6           0       -5.690238    2.066277    1.966795
     90          6           0       -6.392339    2.423640    4.307807
     91          6           0       -2.886974    1.031833    3.195318
     92          6           0       -1.982166    1.609776    4.285764
     93          1           0       -0.615692    1.106592    4.395387
     94          7           0       -6.860938    2.074297   -0.869297
     95          6           0       -6.488683    3.164722   -0.166671
     96          6           0       -6.709040    4.313090   -1.059346
     97          6           0       -7.396368    3.827881   -2.286891
     98          6           0       -7.670091    2.455413   -1.910714
     99          6           0       -6.209839    5.693947   -0.747164
    100          6           0       -7.759991    4.493058   -3.579757
    101          8           0       -8.566062    3.948019   -4.414032
    102          6           0       -7.218228    5.842274   -3.797924
    103          7           0       -8.478525   -0.444187   -1.367142
    104          6           0       -9.020415    0.347346   -2.309339
    105          6           0      -10.000622   -0.417416   -3.166498
    106          6           0       -9.823386   -1.952912   -2.756090
    107          6           0       -8.789617   -1.793426   -1.619747
    108          6           0      -11.468239   -0.017152   -3.017300
    109          6           0       -9.514510   -2.956245   -3.900898
    110          6           0       -8.139194   -2.685685   -4.467197
    111          7           0       -6.751933   -1.816118    0.549644
    112          6           0       -7.539890   -2.923795    0.167219
    113          6           0       -7.194298   -4.037710    1.073958
    114          6           0       -6.238418   -3.489734    1.942573
    115          6           0       -6.019582   -2.124569    1.614067
    116          6           0       -7.777534   -5.336043    1.056599
    117          6           0       -5.372554   -3.752770    3.069421
    118          8           0       -5.066998   -4.754636    3.714901
    119          6           0       -4.806455   -2.367798    3.605850
    120          6           0       -3.322763   -2.517470    3.802808
    121          8           0       -2.571934   -2.706939    2.829695
    122          8           0       -3.012242   -2.197099    5.072189
    123          6           0       -1.549824   -2.319503    5.313410
    124          1           0       -6.068126    4.169921    1.647405
    125          1           0       -9.152833    2.006715   -3.334221
    126          1           0       -8.861548   -3.834543   -1.047399
    127          1           0       -4.464157    0.577212    4.629686
    128          1           0       -4.511847    3.129011    3.436738
    129          1           0       -6.588501    1.518030    4.862359
    130          1           0       -7.226692    2.658856    3.660056
    131          1           0       -6.266022    3.290125    4.963235
    132          1           0       -2.788075    1.816161    2.433887
    133          1           0       -2.494699    0.090954    2.861396
    134          1           0       -2.470522    1.612815    5.267822
    135          1           0       -1.809323    2.666761    4.069113
    136          1           0       -5.887995    5.778561    0.298141
    137          1           0       -7.069078    6.369173   -0.822313
    138          1           0       -5.435552    6.028730   -1.440751
    139          1           0       -7.549669    6.498440   -2.996645
    140          1           0       -7.513712    6.115243   -4.812841
    141          1           0       -6.125384    5.794974   -3.734249
    142          1           0       -9.764802   -0.305143   -4.217639
    143          1           0      -10.735911   -2.359616   -2.295962
    144          1           0      -11.936447    0.288755   -3.971912
    145          1           0      -11.532110    0.780857   -2.289538
    146          1           0      -12.112727   -0.778951   -2.581974
    147          1           0      -10.220964   -2.821296   -4.723611
    148          1           0       -9.573627   -3.994761   -3.592716
    149          1           0       -8.320304   -1.873836   -5.177958
    150          1           0       -7.750606   -3.569833   -4.968516
    151          1           0       -7.463598   -2.302126   -3.693824
    152          1           0       -6.967151   -6.043011    1.174781
    153          1           0       -8.328530   -5.512091    0.135090
    154          1           0       -8.439825   -5.263942    1.923462
    155          1           0       -5.322747   -2.142540    4.539816
    156          1           0       -1.421789   -2.997398    6.162973
    157          1           0       -1.179387   -1.284230    5.434779
    158          1           0       -0.956623   -2.816672    4.554871
 ---------------------------------------------------------------------

 SCF Done:  E(RCAM-B3LYP) =  -4069.81128484     A.U. after   19 cycles

 Excitation energies and oscillator strengths:

 Excited State   1:      Singlet-A      1.6649 eV  744.68 nm  f=0.0090  <S**2>=0.000
     309 -> 315       -0.11053
     310 -> 316        0.13033
     311 -> 313       -0.44308
     312 -> 314        0.52458
 This state for optimization and/or second-order correction.
 Total Energy, E(TD-HF/TD-DFT) =  -4069.75009969
 Copying the excited state density for this state as the 1-particle RhoCI density.

 Excited State   2:      Singlet-A      1.6897 eV  733.77 nm  f=0.7330  <S**2>=0.000
     309 -> 315        0.13567
     310 -> 316        0.11416
     311 -> 313        0.52331
     312 -> 314        0.44212

 Excited State   3:      Singlet-A      2.1845 eV  567.57 nm  f=0.0590  <S**2>=0.000
     309 -> 313        0.20594
     310 -> 314        0.60920
     312 -> 316       -0.25758

 Excited State   4:      Singlet-A      2.1922 eV  565.58 nm  f=0.1347  <S**2>=0.000
     309 -> 313        0.60689
     310 -> 314       -0.20446
     311 -> 315       -0.26368

 Excited State   5:      Singlet-A      2.6884 eV  461.18 nm  f=0.0000  <S**2>=0.000
     312 -> 313        0.70700

 The electronic state is 1-A.
 Alpha  occ. eigenvalues --  -46.87755 -46.87551 -19.26183 -19.26133 -19.18970
 Alpha  occ. eigenvalues --  -19.18859 -19.18828 -19.18639 -19.18081 -19.17919
 Alpha  occ. eigenvalues --  -14.42405 -14.42389 -14.41422 -14.41254 -14.39367
 Alpha  occ. eigenvalues --  -14.39247 -14.38536 -14.38487 -10.38928 -10.38910
 Alpha  occ. eigenvalues --  -10.35465 -10.35319 -10.34299 -10.34095 -10.31600
 Alpha  occ. eigenvalues --  -10.31517 -10.31347 -10.31192 -10.30915 -10.30861
 Alpha  occ. eigenvalues --  -10.30518 -10.30471 -10.30290 -10.30245 -10.30202
 Alpha  occ. eigenvalues --  -10.30048 -10.29894 -10.29789 -10.29593 -10.29338
 Alpha  occ. eigenvalues --  -10.29295 -10.29226 -10.28674 -10.28598 -10.28512
 Alpha  occ. eigenvalues --  -10.28431 -10.28315 -10.28294 -10.28052 -10.28026
 Alpha  occ. eigenvalues --  -10.27892 -10.27746 -10.27685 -10.27562 -10.27553
 Alpha  occ. eigenvalues --  -10.27537 -10.27477 -10.27467 -10.27433 -10.27385
 Alpha  occ. eigenvalues --  -10.27372 -10.27364 -10.27352 -10.27292 -10.27063
 Alpha  occ. eigenvalues --  -10.26915 -10.26603 -10.26548 -10.26455 -10.26368
 Alpha  occ. eigenvalues --  -10.26273 -10.26177 -10.26054 -10.25997 -10.25925
 Alpha  occ. eigenvalues --  -10.25831 -10.25779 -10.25732 -10.25463 -10.25327
 Alpha  occ. eigenvalues --  -10.24825 -10.24777 -10.24761 -10.24759 -10.24642
 Alpha  occ. eigenvalues --  -10.24587  -3.16497  -3.16301  -1.91378  -1.91183
 Alpha  occ. eigenvalues --   -1.90965  -1.90807  -1.90772  -1.90609  -1.16481
 Alpha  occ. eigenvalues --   -1.16473  -1.08530  -1.08520  -1.07234  -1.06894
 Alpha  occ. eigenvalues --   -1.06762  -1.06485  -1.04533  -1.04385  -1.03729
 Alpha  occ. eigenvalues --   -1.03557  -1.03195  -1.02933  -1.02373  -1.02004
 Alpha  occ. eigenvalues --   -0.91911  -0.91869  -0.89527  -0.89394  -0.89121
 Alpha  occ. eigenvalues --   -0.89034  -0.88294  -0.88126  -0.87816  -0.87679
 Alpha  occ. eigenvalues --   -0.87629  -0.87574  -0.87257  -0.87032  -0.84925
 Alpha  occ. eigenvalues --   -0.84884  -0.83956  -0.83781  -0.82981  -0.82854
 Alpha  occ. eigenvalues --   -0.82601  -0.82545  -0.81502  -0.81467  -0.80541
 Alpha  occ. eigenvalues --   -0.80327  -0.78767  -0.78537  -0.77194  -0.77037
 Alpha  occ. eigenvalues --   -0.76876  -0.76783  -0.75855  -0.75722  -0.74889
 Alpha  occ. eigenvalues --   -0.74706  -0.72737  -0.72592  -0.71633  -0.71475
 Alpha  occ. eigenvalues --   -0.69950  -0.69667  -0.68823  -0.68715  -0.67602
 Alpha  occ. eigenvalues --   -0.67493  -0.67162  -0.67087  -0.65224  -0.65152
 Alpha  occ. eigenvalues --   -0.64806  -0.64659  -0.64574  -0.64535  -0.64264
 Alpha  occ. eigenvalues --   -0.64104  -0.62206  -0.62144  -0.60429  -0.60247
 Alpha  occ. eigenvalues --   -0.59745  -0.59682  -0.58948  -0.58883  -0.58460
 Alpha  occ. eigenvalues --   -0.58312  -0.57499  -0.57416  -0.57274  -0.57132
 Alpha  occ. eigenvalues --   -0.56268  -0.56096  -0.55875  -0.55753  -0.55492
 Alpha  occ. eigenvalues --   -0.55347  -0.55317  -0.55137  -0.54472  -0.54368
 Alpha  occ. eigenvalues --   -0.53828  -0.53793  -0.53277  -0.53174  -0.53128
 Alpha  occ. eigenvalues --   -0.53030  -0.52858  -0.52776  -0.52735  -0.52581
 Alpha  occ. eigenvalues --   -0.52476  -0.52307  -0.51852  -0.51765  -0.51557
 Alpha  occ. eigenvalues --   -0.51545  -0.51148  -0.51085  -0.50580  -0.50398
 Alpha  occ. eigenvalues --   -0.50055  -0.49900  -0.49881  -0.49778  -0.49471
 Alpha  occ. eigenvalues --   -0.49388  -0.49161  -0.49087  -0.49034  -0.48989
 Alpha  occ. eigenvalues --   -0.48531  -0.48455  -0.48435  -0.48403  -0.48280
 Alpha  occ. eigenvalues --   -0.48243  -0.47661  -0.47489  -0.47265  -0.47020
 Alpha  occ. eigenvalues --   -0.46770  -0.46601  -0.46490  -0.46439  -0.46329
 Alpha  occ. eigenvalues --   -0.46165  -0.46113  -0.45972  -0.45744  -0.45697
 Alpha  occ. eigenvalues --   -0.45203  -0.45114  -0.44512  -0.44498  -0.44397
 Alpha  occ. eigenvalues --   -0.44368  -0.44141  -0.44037  -0.44020  -0.43978
 Alpha  occ. eigenvalues --   -0.43960  -0.43834  -0.43426  -0.43419  -0.43351
 Alpha  occ. eigenvalues --   -0.43272  -0.42984  -0.42808  -0.42763  -0.42709
 Alpha  occ. eigenvalues --   -0.42552  -0.42460  -0.41998  -0.41857  -0.41654
 Alpha  occ. eigenvalues --   -0.41552  -0.41479  -0.41346  -0.41101  -0.40883
 Alpha  occ. eigenvalues --   -0.40844  -0.40821  -0.40631  -0.40593  -0.40562
 Alpha  occ. eigenvalues --   -0.40394  -0.40159  -0.40107  -0.39498  -0.39335
 Alpha  occ. eigenvalues --   -0.38471  -0.38254  -0.37677  -0.37529  -0.37311
 Alpha  occ. eigenvalues --   -0.37197  -0.37164  -0.37081  -0.36623  -0.36618
 Alpha  occ. eigenvalues --   -0.36122  -0.36096  -0.34242  -0.34142  -0.33684
 Alpha  occ. eigenvalues --   -0.33632  -0.33137  -0.33063  -0.31358  -0.31197
 Alpha  occ. eigenvalues --   -0.30995  -0.30864  -0.29937  -0.29821  -0.29417
 Alpha  occ. eigenvalues --   -0.29266  -0.29226  -0.29097  -0.24038  -0.23926
 Alpha  occ. eigenvalues --   -0.21090  -0.21011
 Alpha virt. eigenvalues --   -0.08736  -0.08685  -0.01722  -0.01581  -0.00031
 Alpha virt. eigenvalues --    0.00068   0.02257   0.02324   0.03182   0.03357
 Alpha virt. eigenvalues --    0.04766   0.04811   0.05237   0.05336   0.06150

 Mulliken charges:
               1
     1  Mg   0.839433
     2  C   -0.002313
     3  C   -0.093917
     4  C   -0.046351
     5  C   -0.064378
     6  N   -0.256682
     7  C   -0.052180
     8  C   -0.014067
     9  C   -0.087019
    10  C    0.046301
    11  C    0.104849
    12  C    0.053445
    13  C   -0.071938
    14  H    0.036861
    15  N   -0.433014
    16  C    0.168229
    17  C   -0.177269
    18  C   -0.004442
    19  C    0.148619
    20  C    0.110203
    21  C    0.011737
    22  O   -0.250495
    23  C    0.062690
    24  N   -0.341100
    25  C    0.041121
    26  C   -0.028057
    27  C   -0.023938
    28  C    0.074829
    29  C    0.076238
    30  C    0.035308
    31  C   -0.004565
    32  N   -0.310725
    33  C    0.080943
    34  C   -0.169162
    35  C    0.008909
    36  C    0.083727
    37  C    0.127095
    38  C    0.047062
    39  O   -0.187415
    40  C   -0.005688
    41  C    0.212792
    42  O   -0.255465
    43  O   -0.305194
    44  C    0.157422
    45  H   -0.017703
    46  H   -0.017539
    47  H   -0.041815
    48  H    0.001065
    49  H   -0.004020
    50  H    0.025500
    51  H    0.016219
    52  H    0.016574
    53  H    0.011176
    54  H    0.045036
    55  H    0.017662
    56  H    0.017705
    57  H    0.006013
    58  H    0.026543
    59  H    0.039091
    60  H    0.037579
    61  H    0.034755
    62  H    0.031110
    63  H    0.015658
    64  H    0.009612
    65  H    0.022725
    66  H    0.012796
    67  H    0.004739
    68  H    0.005963
    69  H    0.004698
    70  H    0.008302
    71  H    0.015447
    72  H    0.030543
    73  H    0.048742
    74  H    0.008580
    75  H    0.045993
    76  H    0.035028
    77  H    0.042899
    78  H    0.046095
    79  H    0.054766
    80  Mg   0.838215
    81  C   -0.016400
    82  C   -0.087725
    83  C   -0.045685
    84  C   -0.065042
    85  N   -0.254523
    86  C   -0.049665
    87  C   -0.015115
    88  C   -0.090532
    89  C    0.045733
    90  C    0.114425
    91  C    0.062405
    92  C   -0.078339
    93  H    0.035618
    94  N   -0.423395
    95  C    0.162781
    96  C   -0.174851
    97  C   -0.008106
    98  C    0.152057
    99  C    0.099454
   100  C    0.015307
   101  O   -0.253549
   102  C    0.061344
   103  N   -0.350101
   104  C    0.037443
   105  C   -0.019758
   106  C   -0.034809
   107  C    0.089090
   108  C    0.073766
   109  C    0.034764
   110  C   -0.007660
   111  N   -0.324255
   112  C    0.078800
   113  C   -0.162792
   114  C    0.002471
   115  C    0.096658
   116  C    0.131348
   117  C    0.043055
   118  O   -0.187268
   119  C    0.000657
   120  C    0.211160
   121  O   -0.249191
   122  O   -0.306117
   123  C    0.151669
   124  H   -0.019827
   125  H   -0.015934
   126  H   -0.040483
   127  H   -0.000828
   128  H   -0.004180
   129  H    0.022310
   130  H    0.014236
   131  H    0.016095
   132  H    0.014106
   133  H    0.038551
   134  H    0.020129
   135  H    0.020016
   136  H    0.008879
   137  H    0.025810
   138  H    0.039302
   139  H    0.038204
   140  H    0.035890
   141  H    0.033542
   142  H    0.014173
   143  H    0.012261
   144  H    0.024834
   145  H    0.011552
   146  H    0.005507
   147  H    0.005941
   148  H    0.003723
   149  H    0.010593
   150  H    0.018027
   151  H    0.030530
   152  H    0.046709
   153  H    0.008435
   154  H    0.046705
   155  H    0.034679
   156  H    0.043349
   157  H    0.048447
   158  H    0.055401
 Sum of Mulliken charges =  -0.00000

 Dipole moment (field-independent basis, Debye):
    X=              1.5031    Y=              6.9946    Z=             -1.7023  Tot=              7.3540
 Quadrupole moment (field-independent basis, Debye-Ang):
   XX=           -477.3220   YY=           -535.6974   ZZ=           -470.1357
   XY=             14.7393   XZ=            -23.5583   YZ=             16.7725

 Normal termination of Gaussian 16 at Sat Sep 11 08:52:39 2021.
