 Gaussian 16, Revision A.03,
 Gaussian 16:  ES64L-G16RevA.03 25-Dec-2016

 -----------------------------------
 #p cam-b3lyp/Def2SVP td=(nstates=5)
 -----------------------------------

 --------------------------------
 TDDFT excited states in gaussian
 --------------------------------
 Symbolic Z-matrix:
 Charge =  0 Multiplicity = 1

                         Standard orientation:
 ---------------------------------------------------------------------
 Center     Atomic      Atomic             Coordinates (Angstroms)
 Number     Number       Type             X           Y           Z
 ---------------------------------------------------------------------
      1         12           0       -4.200776   -1.035405    0.221062
      2          6           0       -4.580622    1.899523    2.234549
      3          6           0       -5.366560    0.799093   -2.409267
      4          6           0       -4.305220   -3.719673   -1.464292
      5          6           0       -4.161576   -2.879560    3.177956
      6          7           0       -4.855716    1.072955    0.058218
      7          6           0       -4.896060    2.108980    0.890201
      8          6           0       -5.232374    3.456140    0.183499
      9          6           0       -5.995050    2.886029   -1.095289
     10          6           0       -5.342824    1.517134   -1.176836
     11          6           0       -7.493999    2.703865   -0.879715
     12          6           0       -3.946352    4.251182   -0.223669
     13          6           0       -4.179323    5.712138   -0.619506
     14          1           0       -3.172395    6.702027   -0.267991
     15          7           0       -4.283214   -1.319385   -1.732245
     16          6           0       -4.774641   -0.458588   -2.655724
     17          6           0       -4.612382   -1.128206   -3.964144
     18          6           0       -4.161571   -2.524358   -3.707971
     19          6           0       -4.258428   -2.585812   -2.271928
     20          6           0       -4.829637   -0.436604   -5.274959
     21          6           0       -3.724451   -3.631338   -4.614422
     22          8           0       -3.596803   -4.835662   -4.204685
     23          6           0       -3.532460   -3.281352   -6.033468
     24          7           0       -4.449729   -3.038210    0.754383
     25          6           0       -4.397467   -4.008646   -0.164588
     26          6           0       -4.317071   -5.362879    0.475357
     27          6           0       -4.079321   -5.102465    2.032730
     28          6           0       -4.150182   -3.555463    2.026829
     29          6           0       -5.545445   -6.264487    0.290392
     30          6           0       -2.845983   -5.781859    2.679042
     31          6           0       -1.576497   -5.177528    2.122006
     32          7           0       -4.165304   -0.589550    2.344974
     33          6           0       -4.174806   -1.512759    3.400563
     34          6           0       -4.253394   -0.737159    4.652097
     35          6           0       -4.301178    0.591363    4.234255
     36          6           0       -4.281822    0.641246    2.811080
     37          6           0       -4.330867   -1.279576    5.965191
     38          6           0       -4.388935    1.979262    4.658391
     39          8           0       -4.342969    2.558653    5.744525
     40          6           0       -4.696239    2.875794    3.378695
     41          6           0       -3.749098    4.044372    3.404357
     42          8           0       -2.522106    3.876871    3.250081
     43          8           0       -4.451718    5.186969    3.367756
     44          6           0       -3.570705    6.385269    3.361003
     45          1           0       -5.938690    1.205134   -3.245770
     46          1           0       -4.231221   -4.666415   -2.003405
     47          1           0       -4.068367   -3.383004    4.141962
     48          1           0       -5.893339    4.113342    0.748861
     49          1           0       -5.774738    3.464780   -1.992079
     50          1           0       -7.770503    2.874422    0.160658
     51          1           0       -7.706134    1.673561   -1.166013
     52          1           0       -8.063148    3.329337   -1.567924
     53          1           0       -3.566757    3.861341   -1.168122
     54          1           0       -3.198529    4.207252    0.568895
     55          1           0       -5.170853    6.052945   -0.320125
     56          1           0       -4.188826    5.773786   -1.707766
     57          1           0       -5.314544    0.529748   -5.142388
     58          1           0       -5.554467   -1.030106   -5.831812
     59          1           0       -3.907752   -0.347965   -5.849940
     60          1           0       -4.467134   -2.892172   -6.437786
     61          1           0       -3.134099   -4.175111   -6.512376
     62          1           0       -2.807352   -2.469891   -6.102020
     63          1           0       -3.479933   -5.934604    0.076915
     64          1           0       -4.919137   -5.445238    2.637618
     65          1           0       -5.317728   -7.225370   -0.171727
     66          1           0       -6.282361   -5.714326   -0.294046
     67          1           0       -6.103031   -6.470342    1.203703
     68          1           0       -2.828324   -6.844105    2.437655
     69          1           0       -2.822658   -5.688054    3.764818
     70          1           0       -1.430603   -5.729856    1.194385
     71          1           0       -0.744755   -5.340292    2.808245
     72          1           0       -1.717058   -4.129101    1.858323
     73          1           0       -3.655012   -0.686056    6.580758
     74          1           0       -4.053450   -2.333398    5.975303
     75          1           0       -5.386661   -1.123581    6.186140
     76          1           0       -5.736415    3.190073    3.458589
     77          1           0       -3.871109    7.009273    4.202793
     78          1           0       -3.640580    6.815625    2.361845
     79          1           0       -2.520184    6.212538    3.597454
     80         12           0        4.748154   -0.212107   -0.176838
     81          6           0        2.425610    1.904277   -1.910563
     82          6           0        6.961917    2.380586   -0.285557
     83          6           0        6.964345   -2.187608    0.942663
     84          6           0        2.824267   -2.930359   -1.204179
     85          7           0        4.596592    1.828738   -1.016043
     86          6           0        3.643805    2.542279   -1.596894
     87          6           0        3.988362    4.044275   -1.783622
     88          6           0        5.589901    3.926604   -1.773883
     89          6           0        5.736335    2.652550   -0.944414
     90          6           0        6.182985    3.671694   -3.149605
     91          6           0        3.470144    4.928578   -0.595571
     92          6           0        3.497597    6.436206   -0.856430
     93          1           0        2.432400    7.259873   -0.291278
     94          7           0        6.487448    0.172287    0.698178
     95          6           0        7.239499    1.284354    0.560354
     96          6           0        8.432409    1.069187    1.393924
     97          6           0        8.401796   -0.328216    1.904856
     98          6           0        7.269309   -0.853279    1.168741
     99          6           0        9.417896    2.159114    1.700999
    100          6           0        9.258818   -1.072871    2.883219
    101          8           0        9.196644   -2.347874    2.998715
    102          6           0       10.238930   -0.276002    3.635458
    103          7           0        4.998840   -2.271578   -0.311148
    104          6           0        6.020236   -2.885738    0.311322
    105          6           0        5.841257   -4.385172    0.303900
    106          6           0        4.360101   -4.638334   -0.243527
    107          6           0        3.953226   -3.181485   -0.555677
    108          6           0        6.839204   -5.170048   -0.547249
    109          6           0        3.417726   -5.494498    0.646186
    110          6           0        3.092203   -4.748613    1.920186
    111          7           0        2.856045   -0.486771   -1.183077
    112          6           0        2.248216   -1.711141   -1.537421
    113          6           0        1.029246   -1.385710   -2.305960
    114          6           0        1.024724    0.016041   -2.365618
    115          6           0        2.171355    0.527430   -1.699872
    116          6           0        0.131542   -2.329089   -2.880643
    117          6           0        0.316266    1.179050   -2.849570
    118          8           0       -0.764337    1.368541   -3.406457
    119          6           0        1.258024    2.448932   -2.685619
    120          6           0        0.449252    3.548510   -2.053694
    121          8           0        0.022995    3.431553   -0.891269
    122          8           0        0.497030    4.638742   -2.840762
    123          6           0       -0.281442    5.760222   -2.250778
    124          1           0        7.806469    3.046398   -0.465283
    125          1           0        7.640391   -2.910651    1.404889
    126          1           0        2.118967   -3.718869   -1.475260
    127          1           0        3.652817    4.474337   -2.719690
    128          1           0        6.044800    4.769973   -1.260882
    129          1           0        5.418502    3.493504   -3.891197
    130          1           0        6.814865    2.799975   -3.040611
    131          1           0        6.848293    4.492870   -3.431342
    132          1           0        4.185960    4.868433    0.234328
    133          1           0        2.482534    4.630671   -0.301421
    134          1           0        3.640091    6.668157   -1.918895
    135          1           0        4.380875    6.856600   -0.369510
    136          1           0        9.267946    3.031328    1.052804
    137          1           0       10.408338    1.781985    1.424098
    138          1           0        9.426957    2.433223    2.758097
    139          1           0       10.908645    0.223559    2.939477
    140          1           0       10.693813   -0.967939    4.346918
    141          1           0        9.705779    0.511641    4.179495
    142          1           0        5.919365   -4.788928    1.305894
    143          1           0        4.366722   -5.175315   -1.203444
    144          1           0        7.395520   -5.935051    0.026641
    145          1           0        7.522293   -4.468024   -1.006683
    146          1           0        6.411781   -5.675747   -1.411409
    147          1           0        3.917057   -6.418907    0.946689
    148          1           0        2.493128   -5.773837    0.152129
    149          1           0        3.953075   -4.965179    2.559776
    150          1           0        2.170042   -5.124216    2.359023
    151          1           0        3.073109   -3.666104    1.748544
    152          1           0       -0.868887   -1.973961   -2.672013
    153          1           0        0.292037   -3.327019   -2.477956
    154          1           0        0.422068   -2.259192   -3.932296
    155          1           0        1.615005    2.722519   -3.679244
    156          1           0       -1.010132    6.074540   -3.004369
    157          1           0        0.467983    6.508763   -1.931724
    158          1           0       -0.929047    5.533963   -1.411806
 ---------------------------------------------------------------------

 SCF Done:  E(RCAM-B3LYP) =  -4069.81366511     A.U. after   19 cycles

 Excitation energies and oscillator strengths:

 Excited State   1:      Singlet-A      1.6435 eV  754.39 nm  f=0.2333  <S**2>=0.000
     309 -> 315       -0.12413
     310 -> 316       -0.10814
     311 -> 313        0.51119
     312 -> 314       -0.45649
 This state for optimization and/or second-order correction.
 Total Energy, E(TD-HF/TD-DFT) =  -4069.75326739
 Copying the excited state density for this state as the 1-particle RhoCI density.

 Excited State   2:      Singlet-A      1.7004 eV  729.16 nm  f=0.5293  <S**2>=0.000
     309 -> 315       -0.11933
     310 -> 316        0.13334
     311 -> 313        0.45600
     312 -> 314        0.51037

 Excited State   3:      Singlet-A      2.1756 eV  569.88 nm  f=0.0054  <S**2>=0.000
     309 -> 313        0.51687
     310 -> 314       -0.38686
     311 -> 315        0.21296
     312 -> 316        0.15715

 Excited State   4:      Singlet-A      2.1943 eV  565.03 nm  f=0.1636  <S**2>=0.000
     309 -> 313        0.38194
     310 -> 314        0.51124
     311 -> 315        0.16631
     312 -> 316       -0.22391

 Excited State   5:      Singlet-A      2.2252 eV  557.19 nm  f=0.0002  <S**2>=0.000
     312 -> 313        0.70296

 The electronic state is 1-A.
 Alpha  occ. eigenvalues --  -46.87568 -46.87099 -19.26421 -19.25719 -19.19202
 Alpha  occ. eigenvalues --  -19.18637 -19.18343 -19.18312 -19.18184 -19.17568
 Alpha  occ. eigenvalues --  -14.42407 -14.41748 -14.41279 -14.40824 -14.39269
 Alpha  occ. eigenvalues --  -14.38741 -14.38522 -14.37911 -10.39099 -10.38414
 Alpha  occ. eigenvalues --  -10.35314 -10.34949 -10.34327 -10.33786 -10.31870
 Alpha  occ. eigenvalues --  -10.31250 -10.31247 -10.30947 -10.30710 -10.30325
 Alpha  occ. eigenvalues --  -10.30298 -10.30192 -10.30037 -10.29931 -10.29883
 Alpha  occ. eigenvalues --  -10.29820 -10.29612 -10.29385 -10.29338 -10.29335
 Alpha  occ. eigenvalues --  -10.29026 -10.28648 -10.28586 -10.28578 -10.28344
 Alpha  occ. eigenvalues --  -10.28265 -10.28080 -10.28068 -10.27936 -10.27668
 Alpha  occ. eigenvalues --  -10.27590 -10.27454 -10.27414 -10.27410 -10.27398
 Alpha  occ. eigenvalues --  -10.27387 -10.27286 -10.27133 -10.27113 -10.27092
 Alpha  occ. eigenvalues --  -10.27078 -10.27027 -10.26956 -10.26746 -10.26667
 Alpha  occ. eigenvalues --  -10.26562 -10.26539 -10.26328 -10.26011 -10.25998
 Alpha  occ. eigenvalues --  -10.25945 -10.25901 -10.25852 -10.25828 -10.25679
 Alpha  occ. eigenvalues --  -10.25648 -10.25408 -10.25331 -10.25320 -10.25099
 Alpha  occ. eigenvalues --  -10.24827 -10.24619 -10.24612 -10.24575 -10.24208
 Alpha  occ. eigenvalues --  -10.24185  -3.16317  -3.15837  -1.91198  -1.90788
 Alpha  occ. eigenvalues --   -1.90718  -1.90625  -1.90306  -1.90149  -1.16706
 Alpha  occ. eigenvalues --   -1.16048  -1.08777  -1.08032  -1.06973  -1.06888
 Alpha  occ. eigenvalues --   -1.06728  -1.05981  -1.04417  -1.03886  -1.03584
 Alpha  occ. eigenvalues --   -1.03135  -1.02959  -1.02583  -1.02037  -1.01764
 Alpha  occ. eigenvalues --   -0.91948  -0.91323  -0.89410  -0.89079  -0.89048
 Alpha  occ. eigenvalues --   -0.88526  -0.88131  -0.87814  -0.87691  -0.87598
 Alpha  occ. eigenvalues --   -0.87262  -0.87043  -0.87006  -0.86620  -0.84924
 Alpha  occ. eigenvalues --   -0.84378  -0.83795  -0.83535  -0.82852  -0.82593
 Alpha  occ. eigenvalues --   -0.82422  -0.82071  -0.81583  -0.81026  -0.80397
 Alpha  occ. eigenvalues --   -0.80002  -0.78552  -0.78148  -0.77059  -0.76857
 Alpha  occ. eigenvalues --   -0.76691  -0.76406  -0.75803  -0.75341  -0.74737
 Alpha  occ. eigenvalues --   -0.74419  -0.72609  -0.72172  -0.71521  -0.71090
 Alpha  occ. eigenvalues --   -0.69658  -0.69541  -0.68760  -0.68284  -0.67543
 Alpha  occ. eigenvalues --   -0.67115  -0.67045  -0.66609  -0.65214  -0.64711
 Alpha  occ. eigenvalues --   -0.64650  -0.64602  -0.64260  -0.64125  -0.64073
 Alpha  occ. eigenvalues --   -0.63739  -0.62278  -0.61735  -0.60263  -0.59851
 Alpha  occ. eigenvalues --   -0.59722  -0.59146  -0.58928  -0.58396  -0.58375
 Alpha  occ. eigenvalues --   -0.57904  -0.57553  -0.57173  -0.56972  -0.56761
 Alpha  occ. eigenvalues --   -0.56128  -0.55887  -0.55697  -0.55414  -0.55395
 Alpha  occ. eigenvalues --   -0.55195  -0.54956  -0.54867  -0.54447  -0.54022
 Alpha  occ. eigenvalues --   -0.53839  -0.53249  -0.53152  -0.53087  -0.52846
 Alpha  occ. eigenvalues --   -0.52748  -0.52626  -0.52586  -0.52360  -0.52295
 Alpha  occ. eigenvalues --   -0.52175  -0.52037  -0.51760  -0.51581  -0.51350
 Alpha  occ. eigenvalues --   -0.51163  -0.50971  -0.50634  -0.50393  -0.49957
 Alpha  occ. eigenvalues --   -0.49902  -0.49790  -0.49552  -0.49419  -0.49315
 Alpha  occ. eigenvalues --   -0.49161  -0.49079  -0.48930  -0.48611  -0.48531
 Alpha  occ. eigenvalues --   -0.48515  -0.48343  -0.48266  -0.48065  -0.47940
 Alpha  occ. eigenvalues --   -0.47874  -0.47538  -0.47133  -0.47045  -0.46710
 Alpha  occ. eigenvalues --   -0.46624  -0.46485  -0.46260  -0.46188  -0.46016
 Alpha  occ. eigenvalues --   -0.45954  -0.45792  -0.45731  -0.45609  -0.45290
 Alpha  occ. eigenvalues --   -0.45135  -0.44748  -0.44468  -0.44391  -0.44118
 Alpha  occ. eigenvalues --   -0.44047  -0.44007  -0.43970  -0.43883  -0.43667
 Alpha  occ. eigenvalues --   -0.43576  -0.43474  -0.43417  -0.43316  -0.42942
 Alpha  occ. eigenvalues --   -0.42932  -0.42863  -0.42791  -0.42506  -0.42449
 Alpha  occ. eigenvalues --   -0.42250  -0.42124  -0.41884  -0.41655  -0.41523
 Alpha  occ. eigenvalues --   -0.41380  -0.41117  -0.40986  -0.40933  -0.40641
 Alpha  occ. eigenvalues --   -0.40615  -0.40578  -0.40409  -0.40369  -0.40286
 Alpha  occ. eigenvalues --   -0.40133  -0.40079  -0.39555  -0.39324  -0.39105
 Alpha  occ. eigenvalues --   -0.38260  -0.38009  -0.37571  -0.37199  -0.37178
 Alpha  occ. eigenvalues --   -0.37123  -0.36783  -0.36772  -0.36615  -0.36164
 Alpha  occ. eigenvalues --   -0.36126  -0.35612  -0.34176  -0.33842  -0.33638
 Alpha  occ. eigenvalues --   -0.33102  -0.33087  -0.32528  -0.31195  -0.30899
 Alpha  occ. eigenvalues --   -0.30844  -0.30400  -0.30056  -0.29430  -0.29265
 Alpha  occ. eigenvalues --   -0.29161  -0.28797  -0.28672  -0.23956  -0.23411
 Alpha  occ. eigenvalues --   -0.21042  -0.20471
 Alpha virt. eigenvalues --   -0.08728  -0.08113  -0.01599  -0.01136   0.00030
 Alpha virt. eigenvalues --    0.00578   0.02203   0.02788   0.03308   0.04050
 Alpha virt. eigenvalues --    0.04796   0.05102   0.05220   0.05743   0.06100

 Mulliken charges:
               1
     1  Mg   0.841936
     2  C    0.002023
     3  C   -0.084895
     4  C   -0.049975
     5  C   -0.065758
     6  N   -0.256639
     7  C   -0.048436
     8  C   -0.014740
     9  C   -0.089734
    10  C    0.051222
    11  C    0.105301
    12  C    0.051087
    13  C   -0.075845
    14  H    0.027486
    15  N   -0.436247
    16  C    0.181723
    17  C   -0.169493
    18  C   -0.006307
    19  C    0.144769
    20  C    0.112803
    21  C    0.010623
    22  O   -0.253428
    23  C    0.061811
    24  N   -0.341098
    25  C    0.041933
    26  C   -0.027770
    27  C   -0.023263
    28  C    0.074054
    29  C    0.076754
    30  C    0.036411
    31  C   -0.010572
    32  N   -0.310519
    33  C    0.080268
    34  C   -0.171318
    35  C    0.007234
    36  C    0.083722
    37  C    0.127592
    38  C    0.046132
    39  O   -0.190964
    40  C   -0.006507
    41  C    0.211066
    42  O   -0.251559
    43  O   -0.305923
    44  C    0.159140
    45  H   -0.019526
    46  H   -0.019727
    47  H   -0.043954
    48  H   -0.002037
    49  H   -0.003623
    50  H    0.024409
    51  H    0.015889
    52  H    0.014821
    53  H    0.021341
    54  H    0.054670
    55  H    0.017596
    56  H    0.016026
    57  H    0.005871
    58  H    0.022670
    59  H    0.046468
    60  H    0.037117
    61  H    0.032450
    62  H    0.035037
    63  H    0.013228
    64  H    0.008689
    65  H    0.021451
    66  H    0.012938
    67  H    0.003969
    68  H    0.004407
    69  H    0.004294
    70  H    0.005044
    71  H    0.020762
    72  H    0.032898
    73  H    0.046304
    74  H    0.007560
    75  H    0.044548
    76  H    0.033394
    77  H    0.040790
    78  H    0.044500
    79  H    0.053513
    80  Mg   0.840481
    81  C   -0.015201
    82  C   -0.087829
    83  C   -0.045338
    84  C   -0.064962
    85  N   -0.254778
    86  C   -0.049298
    87  C   -0.015811
    88  C   -0.090621
    89  C    0.046553
    90  C    0.114538
    91  C    0.062075
    92  C   -0.077634
    93  H    0.034575
    94  N   -0.423432
    95  C    0.163731
    96  C   -0.174521
    97  C   -0.007478
    98  C    0.152459
    99  C    0.099427
   100  C    0.015901
   101  O   -0.253134
   102  C    0.061012
   103  N   -0.350046
   104  C    0.037687
   105  C   -0.020023
   106  C   -0.034196
   107  C    0.088736
   108  C    0.073733
   109  C    0.033790
   110  C   -0.009136
   111  N   -0.323709
   112  C    0.077391
   113  C   -0.165349
   114  C   -0.000982
   115  C    0.097773
   116  C    0.125682
   117  C    0.043578
   118  O   -0.193318
   119  C    0.001457
   120  C    0.208446
   121  O   -0.244020
   122  O   -0.306502
   123  C    0.150506
   124  H   -0.019925
   125  H   -0.015547
   126  H   -0.038777
   127  H   -0.001896
   128  H   -0.004180
   129  H    0.021682
   130  H    0.014385
   131  H    0.015980
   132  H    0.015131
   133  H    0.040878
   134  H    0.019469
   135  H    0.019679
   136  H    0.008720
   137  H    0.025926
   138  H    0.040360
   139  H    0.038023
   140  H    0.036410
   141  H    0.034491
   142  H    0.014529
   143  H    0.012779
   144  H    0.024976
   145  H    0.011347
   146  H    0.005754
   147  H    0.005540
   148  H    0.005129
   149  H    0.010250
   150  H    0.018335
   151  H    0.031147
   152  H    0.054298
   153  H    0.014648
   154  H    0.042400
   155  H    0.033416
   156  H    0.039726
   157  H    0.049776
   158  H    0.055039
 Sum of Mulliken charges =  -0.00000

 Dipole moment (field-independent basis, Debye):
    X=              2.0111    Y=              3.0660    Z=             -4.5653  Tot=              5.8555
 Quadrupole moment (field-independent basis, Debye-Ang):
   XX=           -478.4440   YY=           -468.7686   ZZ=           -526.9538
   XY=             22.7069   XZ=              8.2083   YZ=            -27.9849

 Normal termination of Gaussian 16 at Thu Sep  9 20:51:06 2021.
