 Gaussian 16, Revision A.03,
 Gaussian 16:  ES64L-G16RevA.03 25-Dec-2016

 -----------------------------------
 #p cam-b3lyp/Def2SVP td=(nstates=5)
 -----------------------------------

 --------------------------------
 TDDFT excited states in gaussian
 --------------------------------
 Symbolic Z-matrix:
 Charge =  0 Multiplicity = 1

                         Standard orientation:
 ---------------------------------------------------------------------
 Center     Atomic      Atomic             Coordinates (Angstroms)
 Number     Number       Type             X           Y           Z
 ---------------------------------------------------------------------
      1         12           0        4.163840   -0.305978    0.509152
      2          6           0        4.275218    2.788346   -1.286668
      3          6           0        4.583736    1.509414    3.367666
      4          6           0        4.523513   -3.044930    2.066520
      5          6           0        4.887558   -1.908281   -2.499921
      6          7           0        4.386762    1.867382    0.866165
      7          6           0        4.352149    2.951938    0.098238
      8          6           0        4.329085    4.282335    0.908722
      9          6           0        4.994692    3.764392    2.261756
     10          6           0        4.602636    2.299621    2.180127
     11          6           0        6.516583    3.865801    2.269839
     12          6           0        2.873422    4.806194    1.150275
     13          6           0        2.772940    6.252645    1.643262
     14          1           0        1.660311    7.072159    1.187409
     15          7           0        4.019167   -0.712127    2.437094
     16          6           0        4.206280    0.152475    3.463125
     17          6           0        3.986759   -0.628549    4.699447
     18          6           0        3.843573   -2.059984    4.313979
     19          6           0        4.153133   -1.998862    2.908342
     20          6           0        3.883620   -0.006568    6.058216
     21          6           0        3.494954   -3.289631    5.091516
     22          8           0        3.652256   -4.464569    4.612611
     23          6           0        3.041827   -3.083082    6.478980
     24          7           0        4.852882   -2.189268   -0.070569
     25          6           0        4.851392   -3.217865    0.784399
     26          6           0        5.115127   -4.514888    0.078627
     27          6           0        5.056907   -4.188055   -1.483277
     28          6           0        4.838238   -2.657417   -1.396096
     29          6           0        6.450375   -5.196556    0.407948
     30          6           0        4.075401   -5.025675   -2.340866
     31          6           0        2.649876   -4.696993   -1.957530
     32          7           0        4.348411    0.279755   -1.572649
     33          6           0        4.678711   -0.548098   -2.655348
     34          6           0        4.789151    0.318058   -3.843475
     35          6           0        4.530022    1.600226   -3.363118
     36          6           0        4.299794    1.542359   -1.958860
     37          6           0        5.151542   -0.105296   -5.152626
     38          6           0        4.418358    3.008918   -3.705133
     39          8           0        4.420560    3.648469   -4.757969
     40          6           0        4.369215    3.850215   -2.353974
     41          6           0        3.235313    4.832006   -2.470860
     42          8           0        2.051377    4.439813   -2.513812
     43          8           0        3.701532    6.074947   -2.275207
     44          6           0        2.621816    7.095230   -2.348628
     45          1           0        4.945964    1.948185    4.299445
     46          1           0        4.550455   -4.026502    2.544253
     47          1           0        5.027175   -2.348870   -3.488780
     48          1           0        4.930275    5.085196    0.481628
     49          1           0        4.545812    4.228451    3.139753
     50          1           0        6.901616    4.157625    1.292849
     51          1           0        6.873149    2.871077    2.537939
     52          1           0        6.856307    4.530218    3.064770
     53          1           0        2.442420    4.287893    2.006814
     54          1           0        2.267001    4.688676    0.251515
     55          1           0        3.716415    6.783944    1.514864
     56          1           0        2.616167    6.235758    2.721843
     57          1           0        4.194841    1.037236    6.045540
     58          1           0        4.619313   -0.501693    6.691711
     59          1           0        2.889118   -0.124050    6.488908
     60          1           0        3.821092   -2.565470    7.038777
     61          1           0        2.752107   -4.065519    6.850098
     62          1           0        2.176627   -2.419501    6.472772
     63          1           0        4.350503   -5.252808    0.317897
     64          1           0        6.022960   -4.332347   -1.967628
     65          1           0        6.341407   -6.213545    0.785524
     66          1           0        6.981927   -4.568915    1.122657
     67          1           0        7.160435   -5.233848   -0.417788
     68          1           0        4.220825   -6.089049   -2.153695
     69          1           0        4.189568   -4.858812   -3.412021
     70          1           0        2.478620   -5.332322   -1.089279
     71          1           0        1.968778   -4.953698   -2.769576
     72          1           0        2.554771   -3.662193   -1.627939
     73          1           0        4.471807    0.402757   -5.836594
     74          1           0        5.078555   -1.187972   -5.253067
     75          1           0        6.180619    0.250231   -5.202196
     76          1           0        5.333731    4.348110   -2.259468
     77          1           0        2.917834    7.821952   -3.105254
     78          1           0        2.468064    7.457402   -1.331968
     79          1           0        1.665943    6.757443   -2.750556
     80         12           0       -3.695505   -1.014106   -0.304527
     81          6           0       -6.451825    1.236368    0.161453
     82          6           0       -1.715858    1.732970   -0.715822
     83          6           0       -1.342145   -2.961409   -1.163097
     84          6           0       -6.029342   -3.510036   -0.989536
     85          7           0       -4.142193    1.151701   -0.259860
     86          6           0       -5.213974    1.889668   -0.012792
     87          6           0       -4.929651    3.408913    0.130820
     88          6           0       -3.569075    3.480338   -0.719233
     89          6           0       -3.086530    2.043761   -0.529340
     90          6           0       -3.798147    3.715058   -2.203075
     91          6           0       -4.697741    3.835177    1.622982
     92          6           0       -4.721565    5.344932    1.871640
     93          1           0       -5.283895    5.834750    3.127159
     94          7           0       -1.736129   -0.707060   -0.376330
     95          6           0       -1.102650    0.475332   -0.524416
     96          6           0        0.334831    0.162842   -0.536695
     97          6           0        0.493112   -1.316862   -0.549316
     98          6           0       -0.885808   -1.727997   -0.721509
     99          6           0        1.397976    1.219526   -0.455623
    100          6           0        1.689196   -2.213205   -0.439137
    101          8           0        1.621319   -3.463371   -0.713516
    102          6           0        2.962967   -1.566837   -0.090959
    103          7           0       -3.674064   -2.897680   -1.184305
    104          6           0       -2.516301   -3.545789   -1.402197
    105          6           0       -2.761023   -4.985876   -1.785140
    106          6           0       -4.321932   -5.235612   -1.542689
    107          6           0       -4.745047   -3.809206   -1.128251
    108          6           0       -2.402984   -5.362010   -3.222744
    109          6           0       -4.709500   -6.420214   -0.615779
    110          6           0       -4.276942   -6.128281    0.803044
    111          7           0       -5.846933   -1.195986   -0.225012
    112          6           0       -6.621418   -2.322294   -0.579525
    113          6           0       -8.040585   -1.927563   -0.467413
    114          6           0       -7.992795   -0.581502   -0.074565
    115          6           0       -6.639413   -0.160852    0.029831
    116          6           0       -9.160173   -2.755861   -0.761658
    117          6           0       -8.779552    0.582217    0.265238
    118          8           0       -9.978496    0.801434    0.433165
    119          6           0       -7.817738    1.846828    0.310542
    120          6           0       -8.110748    2.608209    1.574255
    121          8           0       -7.873138    2.103493    2.685745
    122          8           0       -8.416789    3.880497    1.261222
    123          6           0       -8.704633    4.678579    2.482716
    124          1           0       -1.051924    2.515442   -1.084359
    125          1           0       -0.568313   -3.705350   -1.366117
    126          1           0       -6.817513   -4.259111   -1.091230
    127          1           0       -5.678610    4.055003   -0.311230
    128          1           0       -2.864322    4.180695   -0.278563
    129          1           0       -4.846358    3.677107   -2.459871
    130          1           0       -3.255162    2.929679   -2.712389
    131          1           0       -3.330806    4.654232   -2.512721
    132          1           0       -3.658876    3.615377    1.900824
    133          1           0       -5.401862    3.350999    2.271371
    134          1           0       -5.141573    5.896116    1.021501
    135          1           0       -3.690993    5.701732    1.939601
    136          1           0        0.983387    2.221036   -0.624392
    137          1           0        2.073641    1.058969   -1.302718
    138          1           0        1.974007    1.167286    0.470722
    139          1           0        3.198686   -0.809339   -0.834655
    140          1           0        3.680660   -2.380804    0.028434
    141          1           0        2.840096   -1.043170    0.863650
    142          1           0       -2.195072   -5.656420   -1.150172
    143          1           0       -4.849392   -5.459543   -2.481561
    144          1           0       -1.675165   -6.192715   -3.288211
    145          1           0       -2.020377   -4.481082   -3.720853
    146          1           0       -3.247836   -5.635037   -3.852738
    147          1           0       -4.182365   -7.327660   -0.920470
    148          1           0       -5.770603   -6.645984   -0.624170
    149          1           0       -3.223315   -6.423171    0.805436
    150          1           0       -4.854407   -6.721390    1.509303
    151          1           0       -4.318880   -5.053389    1.014003
    152          1           0       -9.881297   -2.597085    0.029081
    153          1           0       -8.872258   -3.802596   -0.833920
    154          1           0       -9.458174   -2.344336   -1.729701
    155          1           0       -8.016868    2.441985   -0.581491
    156          1           0       -9.699574    5.115240    2.351945
    157          1           0       -7.856222    5.380674    2.587655
    158          1           0       -8.830725    4.140382    3.414860
 ---------------------------------------------------------------------

 SCF Done:  E(RCAM-B3LYP) =  -4069.45011151     A.U. after   19 cycles

 Excitation energies and oscillator strengths:

 Excited State   1:      Singlet-A      1.6170 eV  766.74 nm  f=0.4884  <S**2>=0.000
     309 -> 316       -0.12704
     310 -> 313       -0.11052
     311 -> 313       -0.18189
     312 -> 313        0.20834
     312 -> 314        0.61529
 This state for optimization and/or second-order correction.
 Total Energy, E(TD-HF/TD-DFT) =  -4069.39068639
 Copying the excited state density for this state as the 1-particle RhoCI density.

 Excited State   2:      Singlet-A      1.7030 eV  728.04 nm  f=0.3207  <S**2>=0.000
     310 -> 315        0.17237
     311 -> 313        0.63242
     312 -> 314        0.21886

 Excited State   3:      Singlet-A      1.8848 eV  657.82 nm  f=0.0595  <S**2>=0.000
     309 -> 313       -0.11652
     310 -> 313        0.61034
     311 -> 315       -0.15368
     312 -> 313       -0.17913
     312 -> 314        0.15018

 Excited State   4:      Singlet-A      2.0738 eV  597.86 nm  f=0.0071  <S**2>=0.000
     310 -> 313        0.20789
     312 -> 313        0.64029
     312 -> 314       -0.14419

 Excited State   5:      Singlet-A      2.1822 eV  568.17 nm  f=0.1005  <S**2>=0.000
     309 -> 313        0.14340
     309 -> 314        0.58270
     310 -> 314        0.20326
     312 -> 316        0.23258
     312 -> 318        0.11274

 The electronic state is 1-A.
 Alpha  occ. eigenvalues --  -46.87824 -46.87382 -19.26992 -19.26191 -19.20009
 Alpha  occ. eigenvalues --  -19.19889 -19.19265 -19.18990 -19.18584 -19.17789
 Alpha  occ. eigenvalues --  -14.44184 -14.42521 -14.42207 -14.41090 -14.39752
 Alpha  occ. eigenvalues --  -14.39079 -14.38931 -14.38323 -10.39854 -10.38914
 Alpha  occ. eigenvalues --  -10.35865 -10.35497 -10.34835 -10.33973 -10.32329
 Alpha  occ. eigenvalues --  -10.31951 -10.31638 -10.31217 -10.31145 -10.31012
 Alpha  occ. eigenvalues --  -10.30963 -10.30692 -10.30217 -10.30206 -10.30119
 Alpha  occ. eigenvalues --  -10.30003 -10.29932 -10.29868 -10.29771 -10.29595
 Alpha  occ. eigenvalues --  -10.29189 -10.29114 -10.29093 -10.29015 -10.28769
 Alpha  occ. eigenvalues --  -10.28525 -10.28521 -10.28414 -10.28246 -10.28221
 Alpha  occ. eigenvalues --  -10.28086 -10.27823 -10.27808 -10.27746 -10.27670
 Alpha  occ. eigenvalues --  -10.27612 -10.27510 -10.27357 -10.27309 -10.27280
 Alpha  occ. eigenvalues --  -10.27263 -10.27225 -10.27212 -10.27207 -10.27182
 Alpha  occ. eigenvalues --  -10.26988 -10.26815 -10.26684 -10.26596 -10.26487
 Alpha  occ. eigenvalues --  -10.26164 -10.26084 -10.25998 -10.25911 -10.25644
 Alpha  occ. eigenvalues --  -10.25606 -10.25520 -10.25348 -10.25242 -10.25171
 Alpha  occ. eigenvalues --  -10.24596 -10.24595 -10.24573 -10.24002 -10.23806
 Alpha  occ. eigenvalues --  -10.19932  -3.17858  -3.16133  -1.92927  -1.92301
 Alpha  occ. eigenvalues --   -1.92098  -1.91015  -1.90604  -1.90440  -1.17352
 Alpha  occ. eigenvalues --   -1.16481  -1.11180  -1.09684  -1.09074  -1.08410
 Alpha  occ. eigenvalues --   -1.07633  -1.07443  -1.06772  -1.04910  -1.04211
 Alpha  occ. eigenvalues --   -1.04062  -1.03431  -1.03393  -1.02786  -1.01837
 Alpha  occ. eigenvalues --   -0.92600  -0.91713  -0.90681  -0.89875  -0.89628
 Alpha  occ. eigenvalues --   -0.89285  -0.88820  -0.88458  -0.88267  -0.88053
 Alpha  occ. eigenvalues --   -0.87758  -0.87516  -0.87379  -0.87088  -0.85569
 Alpha  occ. eigenvalues --   -0.84869  -0.84432  -0.83988  -0.83676  -0.83149
 Alpha  occ. eigenvalues --   -0.82621  -0.82484  -0.82166  -0.81408  -0.81053
 Alpha  occ. eigenvalues --   -0.80370  -0.79302  -0.78683  -0.77637  -0.77336
 Alpha  occ. eigenvalues --   -0.76912  -0.76665  -0.76350  -0.75574  -0.75175
 Alpha  occ. eigenvalues --   -0.74588  -0.73270  -0.72416  -0.72322  -0.71359
 Alpha  occ. eigenvalues --   -0.70589  -0.69592  -0.69470  -0.69384  -0.68348
 Alpha  occ. eigenvalues --   -0.68108  -0.67748  -0.67210  -0.66172  -0.65757
 Alpha  occ. eigenvalues --   -0.65285  -0.65126  -0.65036  -0.64580  -0.64497
 Alpha  occ. eigenvalues --   -0.64019  -0.63227  -0.62504  -0.62075  -0.61917
 Alpha  occ. eigenvalues --   -0.60852  -0.59806  -0.59660  -0.59527  -0.58897
 Alpha  occ. eigenvalues --   -0.58758  -0.58466  -0.58220  -0.58013  -0.57945
 Alpha  occ. eigenvalues --   -0.57327  -0.57111  -0.56703  -0.55983  -0.55938
 Alpha  occ. eigenvalues --   -0.55826  -0.55655  -0.55451  -0.55306  -0.55038
 Alpha  occ. eigenvalues --   -0.54703  -0.54396  -0.54292  -0.53804  -0.53742
 Alpha  occ. eigenvalues --   -0.53614  -0.53552  -0.53024  -0.52952  -0.52827
 Alpha  occ. eigenvalues --   -0.52691  -0.52542  -0.52254  -0.52115  -0.52085
 Alpha  occ. eigenvalues --   -0.51657  -0.51632  -0.51394  -0.51011  -0.50936
 Alpha  occ. eigenvalues --   -0.50734  -0.50635  -0.50250  -0.49988  -0.49753
 Alpha  occ. eigenvalues --   -0.49618  -0.49538  -0.49436  -0.49354  -0.48977
 Alpha  occ. eigenvalues --   -0.48927  -0.48860  -0.48772  -0.48683  -0.48369
 Alpha  occ. eigenvalues --   -0.48266  -0.48002  -0.47840  -0.47688  -0.47334
 Alpha  occ. eigenvalues --   -0.47216  -0.46768  -0.46634  -0.46468  -0.46447
 Alpha  occ. eigenvalues --   -0.46395  -0.46079  -0.45867  -0.45680  -0.45626
 Alpha  occ. eigenvalues --   -0.45557  -0.45109  -0.44970  -0.44776  -0.44753
 Alpha  occ. eigenvalues --   -0.44492  -0.44391  -0.44282  -0.44053  -0.43947
 Alpha  occ. eigenvalues --   -0.43918  -0.43812  -0.43684  -0.43597  -0.43366
 Alpha  occ. eigenvalues --   -0.43326  -0.43166  -0.43007  -0.42867  -0.42662
 Alpha  occ. eigenvalues --   -0.42607  -0.42480  -0.42006  -0.41896  -0.41799
 Alpha  occ. eigenvalues --   -0.41466  -0.41337  -0.41324  -0.41193  -0.41165
 Alpha  occ. eigenvalues --   -0.40852  -0.40731  -0.40498  -0.40459  -0.40277
 Alpha  occ. eigenvalues --   -0.40127  -0.40088  -0.39267  -0.38632  -0.38194
 Alpha  occ. eigenvalues --   -0.38175  -0.37746  -0.37413  -0.37348  -0.37125
 Alpha  occ. eigenvalues --   -0.37037  -0.36903  -0.36599  -0.36328  -0.36168
 Alpha  occ. eigenvalues --   -0.35981  -0.35476  -0.34632  -0.34200  -0.33959
 Alpha  occ. eigenvalues --   -0.33663  -0.32881  -0.32129  -0.31709  -0.30755
 Alpha  occ. eigenvalues --   -0.30469  -0.30357  -0.29985  -0.29713  -0.29658
 Alpha  occ. eigenvalues --   -0.29237  -0.28951  -0.26772  -0.23792  -0.23265
 Alpha  occ. eigenvalues --   -0.22103  -0.20769
 Alpha virt. eigenvalues --   -0.09135  -0.08538  -0.02618  -0.01611  -0.00596
 Alpha virt. eigenvalues --   -0.00239   0.01421   0.02353   0.03320   0.03556
 Alpha virt. eigenvalues --    0.04274   0.04947   0.05010   0.05348   0.05919

 Mulliken charges:
               1
     1  Mg   0.259237
     2  C    0.002586
     3  C   -0.102427
     4  C   -0.043559
     5  C   -0.004186
     6  N   -0.246180
     7  C   -0.050234
     8  C   -0.013030
     9  C   -0.084315
    10  C    0.054917
    11  C    0.105215
    12  C    0.046560
    13  C   -0.070813
    14  H    0.033625
    15  N   -0.422063
    16  C    0.181327
    17  C   -0.180014
    18  C    0.000725
    19  C    0.146418
    20  C    0.111089
    21  C    0.014181
    22  O   -0.245531
    23  C    0.061748
    24  N   -0.166698
    25  C   -0.000198
    26  C    0.016468
    27  C   -0.007953
    28  C   -0.050607
    29  C    0.088228
    30  C    0.069289
    31  C    0.012604
    32  N   -0.336964
    33  C    0.056641
    34  C   -0.161063
    35  C    0.015263
    36  C    0.055235
    37  C    0.127486
    38  C    0.043231
    39  O   -0.187176
    40  C   -0.007234
    41  C    0.214970
    42  O   -0.263664
    43  O   -0.302948
    44  C    0.156920
    45  H   -0.020038
    46  H   -0.008068
    47  H   -0.036126
    48  H    0.000090
    49  H   -0.004157
    50  H    0.026218
    51  H    0.018503
    52  H    0.017313
    53  H    0.012395
    54  H    0.043786
    55  H    0.019731
    56  H    0.019718
    57  H    0.007127
    58  H    0.027767
    59  H    0.041510
    60  H    0.037903
    61  H    0.038070
    62  H    0.033370
    63  H    0.016964
    64  H    0.002725
    65  H    0.022235
    66  H    0.006717
    67  H    0.004323
    68  H   -0.011175
    69  H   -0.016302
    70  H   -0.007464
    71  H   -0.010032
    72  H    0.040879
    73  H    0.047168
    74  H    0.011682
    75  H    0.046417
    76  H    0.036336
    77  H    0.045404
    78  H    0.047392
    79  H    0.051374
    80  Mg   0.837947
    81  C   -0.016407
    82  C   -0.094127
    83  C   -0.053494
    84  C   -0.065599
    85  N   -0.254085
    86  C   -0.050512
    87  C   -0.015200
    88  C   -0.088911
    89  C    0.043397
    90  C    0.114365
    91  C    0.062807
    92  C   -0.076819
    93  H    0.032472
    94  N   -0.424873
    95  C    0.157824
    96  C   -0.185421
    97  C    0.051458
    98  C    0.152997
    99  C    0.111362
   100  C    0.095313
   101  O   -0.228404
   102  C   -0.129385
   103  N   -0.350807
   104  C    0.036325
   105  C   -0.019966
   106  C   -0.034310
   107  C    0.089051
   108  C    0.072851
   109  C    0.034944
   110  C   -0.007447
   111  N   -0.323765
   112  C    0.077519
   113  C   -0.164320
   114  C    0.002144
   115  C    0.095166
   116  C    0.131694
   117  C    0.041658
   118  O   -0.189336
   119  C    0.001056
   120  C    0.211174
   121  O   -0.251738
   122  O   -0.305411
   123  C    0.152371
   124  H   -0.000348
   125  H   -0.017883
   126  H   -0.041550
   127  H   -0.001269
   128  H   -0.003400
   129  H    0.020448
   130  H    0.018118
   131  H    0.018540
   132  H    0.013177
   133  H    0.036707
   134  H    0.020992
   135  H    0.018644
   136  H    0.013966
   137  H    0.076508
   138  H    0.087467
   139  H    0.210032
   140  H    0.130262
   141  H    0.173031
   142  H    0.013010
   143  H    0.012154
   144  H    0.023808
   145  H    0.011925
   146  H    0.006241
   147  H    0.005332
   148  H    0.003547
   149  H    0.010474
   150  H    0.017514
   151  H    0.030533
   152  H    0.044999
   153  H    0.007693
   154  H    0.046316
   155  H    0.035013
   156  H    0.043471
   157  H    0.049174
   158  H    0.052924
 Sum of Mulliken charges =  -0.00000

 Dipole moment (field-independent basis, Debye):
    X=              5.2553    Y=              2.8858    Z=              2.8946  Tot=              6.6577
 Quadrupole moment (field-independent basis, Debye-Ang):
   XX=           -553.9829   YY=           -472.3882   ZZ=           -509.7374
   XY=             12.2733   XZ=             30.8640   YZ=             37.4887

 Normal termination of Gaussian 16 at Thu Sep  9 12:21:31 2021.
