 Gaussian 16, Revision A.03,
 Gaussian 16:  ES64L-G16RevA.03 25-Dec-2016

 -----------------------------------
 #p cam-b3lyp/Def2SVP td=(nstates=5)
 -----------------------------------

 --------------------------------
 TDDFT excited states in gaussian
 --------------------------------
 Symbolic Z-matrix:
 Charge =  0 Multiplicity = 1

                         Standard orientation:
 ---------------------------------------------------------------------
 Center     Atomic      Atomic             Coordinates (Angstroms)
 Number     Number       Type             X           Y           Z
 ---------------------------------------------------------------------
      1         12           0        6.480812   -0.888558    0.343242
      2          6           0        6.987279    1.831426   -1.927746
      3          6           0        7.674093    1.144274    2.810373
      4          6           0        6.471194   -3.405672    2.272146
      5          6           0        6.417312   -2.998515   -2.429791
      6          7           0        7.205341    1.203132    0.320142
      7          6           0        7.292036    2.155042   -0.603722
      8          6           0        7.664963    3.550533   -0.019852
      9          6           0        8.390834    3.077593    1.318594
     10          6           0        7.691121    1.744468    1.516345
     11          6           0        9.885368    2.826939    1.145266
     12          6           0        6.401676    4.421951    0.290741
     13          6           0        6.679303    5.905042    0.552880
     14          1           0        5.711547    6.890324    0.094607
     15          7           0        6.527846   -0.991428    2.315564
     16          6           0        7.036289   -0.064761    3.162948
     17          6           0        6.834052   -0.603563    4.525106
     18          6           0        6.339116   -2.001967    4.392447
     19          6           0        6.452647   -2.200417    2.970088
     20          6           0        7.057634    0.199924    5.769360
     21          6           0        5.852507   -3.004491    5.390590
     22          8           0        5.689098   -4.236970    5.092484
     23          6           0        5.654005   -2.517388    6.767677
     24          7           0        6.668042   -2.939511    0.002401
     25          6           0        6.570541   -3.817638    1.006578
     26          6           0        6.452242   -5.222342    0.493986
     27          6           0        6.243999   -5.100842   -1.084503
     28          6           0        6.367687   -3.563218   -1.221190
     29          6           0        7.646502   -6.142607    0.781849
     30          6           0        4.996715   -5.796735   -1.684865
     31          6           0        3.741460   -5.101638   -1.207086
     32          7           0        6.488492   -0.642085   -1.813199
     33          6           0        6.480237   -1.659654   -2.778165
     34          6           0        6.601741   -1.007330   -4.094895
     35          6           0        6.689485    0.352118   -3.801556
     36          6           0        6.653176    0.535305   -2.389672
     37          6           0        6.677825   -1.672261   -5.350487
     38          6           0        6.830254    1.690704   -4.351309
     39          8           0        6.818401    2.167322   -5.487173
     40          6           0        7.151247    2.692248   -3.155608
     41          6           0        6.245078    3.883809   -3.305108
     42          8           0        5.011153    3.771854   -3.155901
     43          8           0        6.985855    5.001124   -3.363396
     44          6           0        6.146362    6.223115   -3.482312
     45          1           0        8.248761    1.607645    3.614727
     46          1           0        6.357765   -4.294982    2.895603
     47          1           0        6.319582   -3.586454   -3.344247
     48          1           0        8.355397    4.129989   -0.633005
     49          1           0        8.178712    3.744492    2.154041
     50          1           0       10.181175    2.890410    0.098179
     51          1           0       10.058339    1.821465    1.529449
     52          1           0       10.466514    3.494911    1.781552
     53          1           0        5.996601    4.134701    1.261031
     54          1           0        5.663251    4.328788   -0.506364
     55          1           0        7.685760    6.183636    0.239288
     56          1           0        6.676632    6.067710    1.630717
     57          1           0        7.577031    1.133214    5.555488
     58          1           0        7.754356   -0.362473    6.390647
     59          1           0        6.131859    0.372117    6.318561
     60          1           0        6.596067   -2.123070    7.149231
     61          1           0        5.219037   -3.348941    7.321005
     62          1           0        4.956260   -1.679687    6.748756
     63          1           0        5.590870   -5.726541    0.930157
     64          1           0        7.079454   -5.526017   -1.641202
     65          1           0        7.379986   -7.048129    1.327471
     66          1           0        8.394087   -5.564780    1.324550
     67          1           0        8.208651   -6.451068   -0.099206
     68          1           0        4.939542   -6.830638   -1.346160
     69          1           0        4.990863   -5.804027   -2.774894
     70          1           0        3.564587   -5.559827   -0.234660
     71          1           0        2.913709   -5.300363   -1.888664
     72          1           0        3.914352   -4.038354   -1.039690
     73          1           0        6.030817   -1.116939   -6.029433
     74          1           0        6.364656   -2.712735   -5.267165
     75          1           0        7.741148   -1.572357   -5.567784
     76          1           0        8.202530    2.963344   -3.247436
     77          1           0        6.478968    6.755567   -4.373437
     78          1           0        6.217811    6.742375   -2.526452
     79          1           0        5.093737    6.063667   -3.718737
     80         12           0       -6.645678    0.795699    0.603279
     81          6           0       -6.854764   -2.129469   -1.465230
     82          6           0       -5.599863    2.494766   -2.163318
     83          6           0       -6.020457    3.273854    2.483516
     84          6           0       -6.592334   -1.330287    3.364270
     85          7           0       -6.310624    0.155807   -1.487300
     86          6           0       -6.482279   -0.966005   -2.170244
     87          6           0       -6.319233   -0.815083   -3.706539
     88          6           0       -5.385995    0.491702   -3.722080
     89          6           0       -5.811506    1.111773   -2.392745
     90          6           0       -3.902149    0.172477   -3.646963
     91          6           0       -7.686750   -0.552948   -4.429863
     92          6           0       -7.648073   -0.702720   -5.952299
     93          1           0       -8.822312   -1.247600   -6.628144
     94          7           0       -6.392737    2.713297    0.158979
     95          6           0       -5.984896    3.228537   -1.019781
     96          6           0       -5.940050    4.686355   -0.827672
     97          6           0       -6.195856    4.978248    0.609023
     98          6           0       -6.192252    3.636028    1.155410
     99          6           0       -5.753073    5.651253   -1.962319
    100          6           0       -6.396195    6.255008    1.367922
    101          8           0       -6.366696    6.288647    2.648874
    102          6           0       -6.534752    7.479458    0.566047
    103          7           0       -6.136239    0.947460    2.613206
    104          6           0       -5.970810    2.147970    3.195727
    105          6           0       -5.881888    2.017929    4.697576
    106          6           0       -6.265913    0.499498    5.020820
    107          6           0       -6.430818   -0.032019    3.580098
    108          6           0       -4.520830    2.340630    5.313818
    109          6           0       -7.421820    0.265801    6.031722
    110          6           0       -8.729949    0.736316    5.437733
    111          7           0       -6.894866   -1.323998    0.939183
    112          6           0       -6.808553   -2.008306    2.171404
    113          6           0       -6.934608   -3.450714    1.878139
    114          6           0       -7.063462   -3.507498    0.482189
    115          6           0       -7.000463   -2.194743   -0.058372
    116          6           0       -6.873303   -4.502646    2.835104
    117          6           0       -7.227787   -4.380291   -0.657959
    118          8           0       -7.427519   -5.584980   -0.808108
    119          6           0       -6.973108   -3.536845   -1.980884
    120          6           0       -8.087141   -3.838213   -2.945565
    121          8           0       -9.256283   -3.503403   -2.685509
    122          8           0       -7.560590   -4.273519   -4.104707
    123          6           0       -8.626023   -4.575100   -5.097546
    124          1           0       -5.049226    3.066397   -2.910925
    125          1           0       -5.912080    4.101916    3.187818
    126          1           0       -6.683730   -2.050718    4.179930
    127          1           0       -5.812205   -1.639880   -4.192741
    128          1           0       -5.641294    1.149580   -4.548756
    129          1           0       -3.724374   -0.878837   -3.475855
    130          1           0       -3.516063    0.760247   -2.824468
    131          1           0       -3.392290    0.537026   -4.543336
    132          1           0       -7.934216    0.513578   -4.352222
    133          1           0       -8.458141   -1.178590   -4.024696
    134          1           0       -6.737967   -1.210894   -6.293497
    135          1           0       -7.581929    0.293040   -6.397382
    136          1           0       -5.425735    5.139495   -2.875752
    137          1           0       -4.909994    6.298058   -1.696388
    138          1           0       -6.634104    6.272674   -2.136323
    139          1           0       -5.648399    7.609740   -0.050283
    140          1           0       -6.759103    8.273280    1.281165
    141          1           0       -7.379708    7.354454   -0.120271
    142          1           0       -6.594255    2.672018    5.185241
    143          1           0       -5.421441   -0.048994    5.463396
    144          1           0       -4.566508    3.137331    6.080146
    145          1           0       -3.842601    2.617329    4.517587
    146          1           0       -4.008537    1.495469    5.770399
    147          1           0       -7.260259    0.858600    6.935401
    148          1           0       -7.523651   -0.769480    6.339627
    149          1           0       -8.720618    1.811396    5.640731
    150          1           0       -9.570460    0.249334    5.928056
    151          1           0       -8.737245    0.606435    4.349280
    152          1           0       -7.664377   -5.197162    2.585442
    153          1           0       -6.980976   -4.124125    3.849452
    154          1           0       -5.866123   -4.882267    2.643386
    155          1           0       -5.999605   -3.831289   -2.374798
    156          1           0       -8.479127   -5.610792   -5.419171
    157          1           0       -8.542803   -3.790302   -5.872744
    158          1           0       -9.648858   -4.607454   -4.740859
 ---------------------------------------------------------------------

 SCF Done:  E(RCAM-B3LYP) =  -4069.81201604     A.U. after   19 cycles

 Excitation energies and oscillator strengths:

 Excited State   1:      Singlet-A      1.6732 eV  741.02 nm  f=0.2942  <S**2>=0.000
     310 -> 316        0.15138
     311 -> 313        0.32879
     312 -> 314        0.60217
 This state for optimization and/or second-order correction.
 Total Energy, E(TD-HF/TD-DFT) =  -4069.75052869
 Copying the excited state density for this state as the 1-particle RhoCI density.

 Excited State   2:      Singlet-A      1.6810 eV  737.56 nm  f=0.4376  <S**2>=0.000
     309 -> 315        0.15433
     311 -> 313        0.60172
     312 -> 314       -0.32868

 Excited State   3:      Singlet-A      2.1858 eV  567.23 nm  f=0.0988  <S**2>=0.000
     310 -> 314        0.64171
     312 -> 316       -0.27207

 Excited State   4:      Singlet-A      2.1927 eV  565.44 nm  f=0.0997  <S**2>=0.000
     309 -> 313        0.63990
     311 -> 315       -0.27786

 Excited State   5:      Singlet-A      2.6462 eV  468.54 nm  f=0.0000  <S**2>=0.000
     312 -> 313        0.70710

 The electronic state is 1-A.
 Alpha  occ. eigenvalues --  -46.87860 -46.87548 -19.26404 -19.26252 -19.19142
 Alpha  occ. eigenvalues --  -19.19063 -19.18866 -19.18627 -19.18258 -19.17950
 Alpha  occ. eigenvalues --  -14.42513 -14.42375 -14.41508 -14.41254 -14.39465
 Alpha  occ. eigenvalues --  -14.39240 -14.38655 -14.38490 -10.39197 -10.38992
 Alpha  occ. eigenvalues --  -10.35499 -10.35305 -10.34478 -10.34126 -10.31809
 Alpha  occ. eigenvalues --  -10.31665 -10.31473 -10.31178 -10.30973 -10.30898
 Alpha  occ. eigenvalues --  -10.30639 -10.30572 -10.30296 -10.30258 -10.30246
 Alpha  occ. eigenvalues --  -10.30039 -10.29980 -10.29801 -10.29696 -10.29325
 Alpha  occ. eigenvalues --  -10.29314 -10.29295 -10.28818 -10.28613 -10.28570
 Alpha  occ. eigenvalues --  -10.28519 -10.28432 -10.28290 -10.28180 -10.27965
 Alpha  occ. eigenvalues --  -10.27891 -10.27861 -10.27789 -10.27647 -10.27537
 Alpha  occ. eigenvalues --  -10.27536 -10.27533 -10.27486 -10.27472 -10.27449
 Alpha  occ. eigenvalues --  -10.27370 -10.27360 -10.27332 -10.27313 -10.27247
 Alpha  occ. eigenvalues --  -10.26944 -10.26780 -10.26559 -10.26456 -10.26334
 Alpha  occ. eigenvalues --  -10.26292 -10.26208 -10.26084 -10.26078 -10.25925
 Alpha  occ. eigenvalues --  -10.25831 -10.25785 -10.25757 -10.25464 -10.25359
 Alpha  occ. eigenvalues --  -10.24905 -10.24846 -10.24764 -10.24710 -10.24678
 Alpha  occ. eigenvalues --  -10.24589  -3.16603  -3.16298  -1.91484  -1.91181
 Alpha  occ. eigenvalues --   -1.91071  -1.90913  -1.90769  -1.90606  -1.16752
 Alpha  occ. eigenvalues --   -1.16546  -1.08719  -1.08558  -1.07266  -1.06881
 Alpha  occ. eigenvalues --   -1.06847  -1.06763  -1.04646  -1.04373  -1.03820
 Alpha  occ. eigenvalues --   -1.03552  -1.03297  -1.02933  -1.02474  -1.02003
 Alpha  occ. eigenvalues --   -0.92045  -0.91875  -0.89570  -0.89404  -0.89254
 Alpha  occ. eigenvalues --   -0.88996  -0.88333  -0.88140  -0.87943  -0.87735
 Alpha  occ. eigenvalues --   -0.87688  -0.87564  -0.87332  -0.87012  -0.85048
 Alpha  occ. eigenvalues --   -0.84866  -0.83983  -0.83803  -0.83017  -0.82840
 Alpha  occ. eigenvalues --   -0.82715  -0.82530  -0.81673  -0.81492  -0.80669
 Alpha  occ. eigenvalues --   -0.80335  -0.78859  -0.78525  -0.77278  -0.77027
 Alpha  occ. eigenvalues --   -0.77004  -0.76784  -0.75997  -0.75705  -0.74950
 Alpha  occ. eigenvalues --   -0.74719  -0.72838  -0.72589  -0.71734  -0.71466
 Alpha  occ. eigenvalues --   -0.69946  -0.69684  -0.68938  -0.68700  -0.67707
 Alpha  occ. eigenvalues --   -0.67497  -0.67286  -0.67080  -0.65356  -0.65143
 Alpha  occ. eigenvalues --   -0.64925  -0.64688  -0.64662  -0.64541  -0.64321
 Alpha  occ. eigenvalues --   -0.64116  -0.62388  -0.62179  -0.60498  -0.60239
 Alpha  occ. eigenvalues --   -0.59871  -0.59658  -0.59052  -0.58886  -0.58571
 Alpha  occ. eigenvalues --   -0.58321  -0.57674  -0.57450  -0.57371  -0.57143
 Alpha  occ. eigenvalues --   -0.56379  -0.56093  -0.56073  -0.55780  -0.55584
 Alpha  occ. eigenvalues --   -0.55403  -0.55346  -0.55163  -0.54597  -0.54403
 Alpha  occ. eigenvalues --   -0.53962  -0.53765  -0.53361  -0.53290  -0.53126
 Alpha  occ. eigenvalues --   -0.53028  -0.52993  -0.52815  -0.52790  -0.52550
 Alpha  occ. eigenvalues --   -0.52478  -0.52332  -0.51993  -0.51786  -0.51686
 Alpha  occ. eigenvalues --   -0.51532  -0.51266  -0.51097  -0.50623  -0.50370
 Alpha  occ. eigenvalues --   -0.50075  -0.49975  -0.49863  -0.49775  -0.49580
 Alpha  occ. eigenvalues --   -0.49370  -0.49287  -0.49165  -0.49083  -0.48970
 Alpha  occ. eigenvalues --   -0.48671  -0.48518  -0.48508  -0.48438  -0.48296
 Alpha  occ. eigenvalues --   -0.48238  -0.47757  -0.47480  -0.47358  -0.47012
 Alpha  occ. eigenvalues --   -0.46857  -0.46624  -0.46601  -0.46423  -0.46419
 Alpha  occ. eigenvalues --   -0.46230  -0.46168  -0.45993  -0.45905  -0.45717
 Alpha  occ. eigenvalues --   -0.45249  -0.45127  -0.44657  -0.44563  -0.44410
 Alpha  occ. eigenvalues --   -0.44347  -0.44204  -0.44151  -0.44090  -0.44001
 Alpha  occ. eigenvalues --   -0.43985  -0.43831  -0.43580  -0.43452  -0.43445
 Alpha  occ. eigenvalues --   -0.43269  -0.43093  -0.42830  -0.42797  -0.42797
 Alpha  occ. eigenvalues --   -0.42707  -0.42467  -0.42066  -0.41868  -0.41772
 Alpha  occ. eigenvalues --   -0.41598  -0.41562  -0.41338  -0.41203  -0.40928
 Alpha  occ. eigenvalues --   -0.40877  -0.40866  -0.40621  -0.40617  -0.40582
 Alpha  occ. eigenvalues --   -0.40398  -0.40302  -0.40098  -0.39476  -0.39354
 Alpha  occ. eigenvalues --   -0.38516  -0.38262  -0.37818  -0.37528  -0.37372
 Alpha  occ. eigenvalues --   -0.37333  -0.37169  -0.37072  -0.36809  -0.36677
 Alpha  occ. eigenvalues --   -0.36266  -0.36120  -0.34351  -0.34143  -0.33883
 Alpha  occ. eigenvalues --   -0.33762  -0.33254  -0.33066  -0.31396  -0.31186
 Alpha  occ. eigenvalues --   -0.31099  -0.30862  -0.30118  -0.29854  -0.29513
 Alpha  occ. eigenvalues --   -0.29393  -0.29220  -0.29104  -0.24145  -0.23924
 Alpha  occ. eigenvalues --   -0.21190  -0.21005
 Alpha virt. eigenvalues --   -0.08838  -0.08682  -0.01809  -0.01577  -0.00120
 Alpha virt. eigenvalues --    0.00081   0.02126   0.02308   0.03052   0.03327
 Alpha virt. eigenvalues --    0.04654   0.04858   0.04987   0.05266   0.06105

 Mulliken charges:
               1
     1  Mg   0.838626
     2  C   -0.003170
     3  C   -0.094088
     4  C   -0.045767
     5  C   -0.063905
     6  N   -0.256830
     7  C   -0.052520
     8  C   -0.014018
     9  C   -0.087024
    10  C    0.046384
    11  C    0.104765
    12  C    0.053444
    13  C   -0.071794
    14  H    0.035783
    15  N   -0.433184
    16  C    0.168526
    17  C   -0.177036
    18  C   -0.003875
    19  C    0.148755
    20  C    0.110135
    21  C    0.012351
    22  O   -0.249298
    23  C    0.062443
    24  N   -0.341136
    25  C    0.041333
    26  C   -0.028283
    27  C   -0.023980
    28  C    0.074793
    29  C    0.076096
    30  C    0.035074
    31  C   -0.004563
    32  N   -0.310354
    33  C    0.080209
    34  C   -0.170048
    35  C    0.008136
    36  C    0.082775
    37  C    0.127420
    38  C    0.045716
    39  O   -0.189000
    40  C   -0.005196
    41  C    0.212859
    42  O   -0.257829
    43  O   -0.304547
    44  C    0.157939
    45  H   -0.017434
    46  H   -0.016540
    47  H   -0.041466
    48  H    0.000882
    49  H   -0.003890
    50  H    0.025465
    51  H    0.016551
    52  H    0.016818
    53  H    0.011404
    54  H    0.043673
    55  H    0.017945
    56  H    0.018289
    57  H    0.005998
    58  H    0.027020
    59  H    0.039683
    60  H    0.037461
    61  H    0.035823
    62  H    0.031407
    63  H    0.016881
    64  H    0.009542
    65  H    0.023542
    66  H    0.012503
    67  H    0.004873
    68  H    0.006879
    69  H    0.004618
    70  H    0.009246
    71  H    0.018330
    72  H    0.028465
    73  H    0.046922
    74  H    0.009187
    75  H    0.046133
    76  H    0.035273
    77  H    0.042878
    78  H    0.046679
    79  H    0.052847
    80  Mg   0.838023
    81  C   -0.016798
    82  C   -0.087306
    83  C   -0.045650
    84  C   -0.064998
    85  N   -0.254637
    86  C   -0.049615
    87  C   -0.015118
    88  C   -0.090468
    89  C    0.045585
    90  C    0.114034
    91  C    0.062458
    92  C   -0.077829
    93  H    0.034365
    94  N   -0.423588
    95  C    0.162814
    96  C   -0.174017
    97  C   -0.008056
    98  C    0.152386
    99  C    0.099153
   100  C    0.015482
   101  O   -0.253709
   102  C    0.061236
   103  N   -0.350032
   104  C    0.037601
   105  C   -0.019775
   106  C   -0.034774
   107  C    0.088888
   108  C    0.073816
   109  C    0.034849
   110  C   -0.007609
   111  N   -0.324063
   112  C    0.078370
   113  C   -0.163284
   114  C    0.002205
   115  C    0.096130
   116  C    0.131508
   117  C    0.042231
   118  O   -0.188247
   119  C    0.001005
   120  C    0.211227
   121  O   -0.251161
   122  O   -0.305552
   123  C    0.152099
   124  H   -0.018240
   125  H   -0.016051
   126  H   -0.040779
   127  H   -0.000586
   128  H   -0.004111
   129  H    0.022145
   130  H    0.015489
   131  H    0.018119
   132  H    0.013817
   133  H    0.037338
   134  H    0.021105
   135  H    0.019836
   136  H    0.009560
   137  H    0.026619
   138  H    0.039491
   139  H    0.038464
   140  H    0.035914
   141  H    0.033892
   142  H    0.014114
   143  H    0.012187
   144  H    0.024461
   145  H    0.011834
   146  H    0.005194
   147  H    0.005765
   148  H    0.003550
   149  H    0.010742
   150  H    0.017715
   151  H    0.030368
   152  H    0.045733
   153  H    0.008256
   154  H    0.047017
   155  H    0.035115
   156  H    0.043654
   157  H    0.049690
   158  H    0.053402
 Sum of Mulliken charges =  -0.00000

 Dipole moment (field-independent basis, Debye):
    X=              4.6722    Y=              3.9709    Z=              1.5620  Tot=              6.3275
 Quadrupole moment (field-independent basis, Debye-Ang):
   XX=           -519.6360   YY=           -513.1900   ZZ=           -485.7834
   XY=            -13.4122   XZ=             41.3953   YZ=             10.7948

 Normal termination of Gaussian 16 at Sat Sep  4 07:00:11 2021.
