 Gaussian 16, Revision A.03,
 Gaussian 16:  ES64L-G16RevA.03 25-Dec-2016

 -----------------------------------
 #p cam-b3lyp/Def2SVP td=(nstates=5)
 -----------------------------------

 --------------------------------
 TDDFT excited states in gaussian
 --------------------------------
 Symbolic Z-matrix:
 Charge =  0 Multiplicity = 1

                         Standard orientation:
 ---------------------------------------------------------------------
 Center     Atomic      Atomic             Coordinates (Angstroms)
 Number     Number       Type             X           Y           Z
 ---------------------------------------------------------------------
      1         12           0       -7.763321   -0.676141   -0.118874
      2          6           0       -8.128927    2.883797   -0.045469
      3          6           0       -8.729237   -0.558798   -3.389394
      4          6           0       -7.887524   -3.844721   -0.082901
      5          6           0       -7.938094   -0.618007    3.361318
      6          7           0       -8.329011    1.008949   -1.438386
      7          6           0       -8.370405    2.330953   -1.305111
      8          6           0       -8.620529    3.079780   -2.648268
      9          6           0       -9.341191    1.910546   -3.457920
     10          6           0       -8.738234    0.713476   -2.744204
     11          6           0      -10.854688    1.882931   -3.270661
     12          6           0       -7.286953    3.518979   -3.341384
     13          6           0       -7.444733    4.531672   -4.479327
     14          1           0       -6.419230    5.548177   -4.659347
     15          7           0       -7.761357   -1.975361   -1.607119
     16          6           0       -8.174225   -1.751771   -2.877880
     17          6           0       -7.974052   -3.025697   -3.601569
     18          6           0       -7.589591   -4.061058   -2.602414
     19          6           0       -7.758463   -3.331893   -1.371488
     20          6           0       -8.100853   -3.156092   -5.088401
     21          6           0       -7.151250   -5.485257   -2.735250
     22          8           0       -7.089521   -6.274379   -1.731233
     23          6           0       -6.877295   -5.963482   -4.102471
     24          7           0       -8.113815   -2.066391    1.398358
     25          6           0       -8.053802   -3.380660    1.157359
     26          6           0       -8.056129   -4.170297    2.432665
     27          6           0       -7.884708   -3.106827    3.611393
     28          6           0       -7.896390   -1.810924    2.763591
     29          6           0       -9.307406   -5.020989    2.690810
     30          6           0       -6.710970   -3.332770    4.597145
     31          6           0       -5.393851   -3.135012    3.880773
     32          7           0       -7.814312    0.851924    1.421731
     33          6           0       -7.910216    0.650454    2.806248
     34          6           0       -8.020084    1.981987    3.429959
     35          6           0       -7.996990    2.870534    2.356741
     36          6           0       -7.906537    2.139069    1.138107
     37          6           0       -8.181894    2.240473    4.819720
     38          6           0       -8.052500    4.266609    1.954557
     39          8           0       -8.037457    5.342877    2.553651
     40          6           0       -8.262907    4.325653    0.377196
     41          6           0       -7.274436    5.315453   -0.176456
     42          8           0       -6.048640    5.084310   -0.139535
     43          8           0       -7.930539    6.258626   -0.869634
     44          6           0       -7.005364    7.256128   -1.470628
     45          1           0       -9.244158   -0.669284   -4.345736
     46          1           0       -7.823395   -4.932833   -0.017042
     47          1           0       -7.911084   -0.517401    4.447873
     48          1           0       -9.282778    3.942290   -2.571278
     49          1           0       -9.055687    1.907966   -4.509682
     50          1           0      -11.174803    2.592879   -2.508151
     51          1           0      -11.091623    0.863590   -2.965213
     52          1           0      -11.365514    2.037214   -4.221467
     53          1           0       -6.876941    2.676491   -3.898309
     54          1           0       -6.580784    3.908627   -2.607338
     55          1           0       -8.435993    4.985858   -4.474091
     56          1           0       -7.398932    3.992207   -5.425414
     57          1           0       -8.554582   -2.270153   -5.530880
     58          1           0       -8.819752   -3.952931   -5.277982
     59          1           0       -7.149386   -3.399112   -5.561669
     60          1           0       -7.775734   -5.851329   -4.709741
     61          1           0       -6.490340   -6.976177   -3.994929
     62          1           0       -6.119414   -5.323461   -4.555172
     63          1           0       -7.222917   -4.871320    2.460076
     64          1           0       -8.765370   -3.061354    4.252517
     65          1           0       -9.094137   -6.079981    2.838315
     66          1           0       -9.993588   -4.872634    1.857482
     67          1           0       -9.916181   -4.694542    3.533569
     68          1           0       -6.721946   -4.355782    4.971675
     69          1           0       -6.736950   -2.664227    5.457741
     70          1           0       -5.224084   -4.103486    3.411659
     71          1           0       -4.603263   -2.903352    4.595276
     72          1           0       -5.481494   -2.397343    3.082870
     73          1           0       -7.514733    3.069496    5.055490
     74          1           0       -7.945524    1.359759    5.416440
     75          1           0       -9.240500    2.497246    4.855441
     76          1           0       -9.293051    4.638583    0.209864
     77          1           0       -7.322449    8.238986   -1.121799
     78          1           0       -7.010151    7.074938   -2.545594
     79          1           0       -5.974911    7.233847   -1.114246
     80         12           0        8.080399    0.052402   -0.526849
     81          6           0        7.175994   -0.030891    2.945068
     82          6           0        7.935346   -3.355293   -0.492556
     83          6           0        9.309206    0.069689   -3.452108
     84          6           0        9.249805    3.293106   -0.001457
     85          7           0        7.605075   -1.392260    1.079170
     86          6           0        7.216180   -1.305452    2.342332
     87          6           0        6.772550   -2.652783    2.972760
     88          6           0        7.590930   -3.647852    2.014141
     89          6           0        7.691047   -2.763933    0.772635
     90          6           0        8.998278   -3.938014    2.508623
     91          6           0        5.225315   -2.886340    2.856568
     92          6           0        4.680725   -4.027708    3.718239
     93          1           0        3.352932   -3.881907    4.308290
     94          7           0        8.089006   -1.356480   -1.924542
     95          6           0        7.998268   -2.689780   -1.736528
     96          6           0        8.072175   -3.291070   -3.077106
     97          6           0        8.379432   -2.214639   -4.057734
     98          6           0        8.630503   -1.104588   -3.160600
     99          6           0        7.781820   -4.740980   -3.335733
    100          6           0        8.449781   -2.191675   -5.554634
    101          8           0        8.967850   -1.205972   -6.189323
    102          6           0        7.979393   -3.397662   -6.251632
    103          7           0        9.317948    1.389427   -1.528425
    104          6           0        9.660318    1.185520   -2.812607
    105          6           0       10.322676    2.408270   -3.401310
    106          6           0       10.135316    3.564563   -2.312521
    107          6           0        9.445007    2.751119   -1.195744
    108          6           0       11.806310    2.263416   -3.739312
    109          6           0        9.463219    4.880329   -2.791796
    110          6           0        8.014564    4.623119   -3.139084
    111          7           0        8.039342    1.476553    1.097402
    112          6           0        8.611453    2.767472    1.114603
    113          6           0        8.423320    3.308943    2.476159
    114          6           0        7.770045    2.278258    3.168555
    115          6           0        7.583518    1.164784    2.305491
    116          6           0        8.877070    4.576880    2.937222
    117          6           0        7.205338    1.874994    4.436307
    118          8           0        6.997424    2.434724    5.512037
    119          6           0        6.908608    0.314353    4.383794
    120          6           0        5.518583    0.087805    4.912012
    121          8           0        4.529928    0.526706    4.298392
    122          8           0        5.571836   -0.789851    5.930476
    123          6           0        4.215867   -1.055305    6.480657
    124          1           0        8.140344   -4.425400   -0.534195
    125          1           0        9.656212    0.170222   -4.483108
    126          1           0        9.498989    4.334135    0.214961
    127          1           0        7.077171   -2.794483    4.002774
    128          1           0        7.019317   -4.546513    1.797286
    129          1           0        9.257787   -3.331911    3.363864
    130          1           0        9.653764   -3.718080    1.676151
    131          1           0        9.114393   -5.006907    2.709411
    132          1           0        4.996561   -3.279440    1.857628
    133          1           0        4.686627   -1.983651    3.070082
    134          1           0        5.404064   -4.353831    4.475451
    135          1           0        4.542724   -4.906349    3.083447
    136          1           0        7.747704   -5.317022   -2.402774
    137          1           0        8.643732   -5.148425   -3.875150
    138          1           0        6.884305   -4.889573   -3.939922
    139          1           0        8.557124   -4.256254   -5.917674
    140          1           0        8.024432   -3.156646   -7.315465
    141          1           0        6.939597   -3.586053   -5.961899
    142          1           0        9.833949    2.708234   -4.320143
    143          1           0       11.100131    3.901213   -1.905534
    144          1           0       12.035830    2.481924   -4.799324
    145          1           0       12.118737    1.260160   -3.481582
    146          1           0       12.478320    2.875691   -3.140373
    147          1           0        9.942514    5.239252   -3.705919
    148          1           0        9.516751    5.682795   -2.063664
    149          1           0        8.070689    4.236365   -4.161020
    150          1           0        7.440855    5.546799   -3.097583
    151          1           0        7.593595    3.830699   -2.509396
    152          1           0        8.070750    5.003425    3.518951
    153          1           0        9.156437    5.224483    2.108763
    154          1           0        9.743747    4.270470    3.529041
    155          1           0        7.664178   -0.183444    4.992809
    156          1           0        4.257252   -0.836087    7.552067
    157          1           0        3.972847   -2.094089    6.188063
    158          1           0        3.409721   -0.404576    6.162629
 ---------------------------------------------------------------------

 SCF Done:  E(RCAM-B3LYP) =  -4069.81156428     A.U. after   19 cycles

 Excitation energies and oscillator strengths:

 Excited State   1:      Singlet-A      1.6698 eV  742.52 nm  f=0.0173  <S**2>=0.000
     309 -> 315       -0.10463
     310 -> 316        0.13686
     311 -> 314       -0.41559
     312 -> 313        0.54624
 This state for optimization and/or second-order correction.
 Total Energy, E(TD-HF/TD-DFT) =  -4069.75020129
 Copying the excited state density for this state as the 1-particle RhoCI density.

 Excited State   2:      Singlet-A      1.6853 eV  735.70 nm  f=0.7396  <S**2>=0.000
     309 -> 315        0.14064
     310 -> 316        0.10650
     311 -> 314        0.54540
     312 -> 313        0.41506

 Excited State   3:      Singlet-A      2.1853 eV  567.35 nm  f=0.0638  <S**2>=0.000
     309 -> 314        0.14062
     310 -> 313        0.62716
     312 -> 316       -0.26598

 Excited State   4:      Singlet-A      2.1922 eV  565.57 nm  f=0.1310  <S**2>=0.000
     309 -> 314        0.62524
     310 -> 313       -0.13968
     311 -> 315       -0.27144

 Excited State   5:      Singlet-A      2.8052 eV  441.98 nm  f=0.0000  <S**2>=0.000
     311 -> 313        0.70710

 The electronic state is 1-A.
 Alpha  occ. eigenvalues --  -46.87719 -46.87592 -19.26251 -19.26162 -19.19054
 Alpha  occ. eigenvalues --  -19.18893 -19.18770 -19.18666 -19.18074 -19.17971
 Alpha  occ. eigenvalues --  -14.42430 -14.42372 -14.41377 -14.41293 -14.39329
 Alpha  occ. eigenvalues --  -14.39286 -14.38529 -14.38505 -10.38988 -10.38957
 Alpha  occ. eigenvalues --  -10.35406 -10.35345 -10.34292 -10.34147 -10.31658
 Alpha  occ. eigenvalues --  -10.31552 -10.31321 -10.31237 -10.30956 -10.30833
 Alpha  occ. eigenvalues --  -10.30487 -10.30432 -10.30330 -10.30289 -10.30144
 Alpha  occ. eigenvalues --  -10.30081 -10.29848 -10.29828 -10.29555 -10.29374
 Alpha  occ. eigenvalues --  -10.29334 -10.29184 -10.28662 -10.28646 -10.28572
 Alpha  occ. eigenvalues --  -10.28438 -10.28336 -10.28286 -10.28072 -10.28035
 Alpha  occ. eigenvalues --  -10.27932 -10.27714 -10.27651 -10.27603 -10.27514
 Alpha  occ. eigenvalues --  -10.27462 -10.27449 -10.27425 -10.27414 -10.27414
 Alpha  occ. eigenvalues --  -10.27402 -10.27400 -10.27323 -10.27322 -10.27060
 Alpha  occ. eigenvalues --  -10.26969 -10.26608 -10.26605 -10.26386 -10.26384
 Alpha  occ. eigenvalues --  -10.26159 -10.26139 -10.26079 -10.25965 -10.25947
 Alpha  occ. eigenvalues --  -10.25868 -10.25773 -10.25749 -10.25396 -10.25353
 Alpha  occ. eigenvalues --  -10.24802 -10.24750 -10.24718 -10.24665 -10.24640
 Alpha  occ. eigenvalues --  -10.24625  -3.16461  -3.16341  -1.91343  -1.91224
 Alpha  occ. eigenvalues --   -1.90930  -1.90812  -1.90772  -1.90649  -1.16543
 Alpha  occ. eigenvalues --   -1.16511  -1.08575  -1.08527  -1.07174  -1.06920
 Alpha  occ. eigenvalues --   -1.06841  -1.06517  -1.04502  -1.04427  -1.03688
 Alpha  occ. eigenvalues --   -1.03596  -1.03158  -1.02972  -1.02335  -1.02044
 Alpha  occ. eigenvalues --   -0.91914  -0.91888  -0.89455  -0.89430  -0.89104
 Alpha  occ. eigenvalues --   -0.89080  -0.88226  -0.88160  -0.87786  -0.87721
 Alpha  occ. eigenvalues --   -0.87616  -0.87596  -0.87213  -0.87064  -0.84930
 Alpha  occ. eigenvalues --   -0.84901  -0.83876  -0.83814  -0.82919  -0.82881
 Alpha  occ. eigenvalues --   -0.82587  -0.82572  -0.81516  -0.81491  -0.80515
 Alpha  occ. eigenvalues --   -0.80371  -0.78728  -0.78573  -0.77145  -0.77078
 Alpha  occ. eigenvalues --   -0.76850  -0.76827  -0.75837  -0.75766  -0.74834
 Alpha  occ. eigenvalues --   -0.74741  -0.72698  -0.72631  -0.71598  -0.71515
 Alpha  occ. eigenvalues --   -0.69851  -0.69697  -0.68795  -0.68759  -0.67567
 Alpha  occ. eigenvalues --   -0.67534  -0.67140  -0.67131  -0.65202  -0.65198
 Alpha  occ. eigenvalues --   -0.64772  -0.64700  -0.64581  -0.64541  -0.64203
 Alpha  occ. eigenvalues --   -0.64140  -0.62199  -0.62196  -0.60380  -0.60281
 Alpha  occ. eigenvalues --   -0.59727  -0.59723  -0.58924  -0.58911  -0.58426
 Alpha  occ. eigenvalues --   -0.58355  -0.57488  -0.57471  -0.57236  -0.57171
 Alpha  occ. eigenvalues --   -0.56233  -0.56136  -0.55877  -0.55805  -0.55452
 Alpha  occ. eigenvalues --   -0.55386  -0.55265  -0.55178  -0.54439  -0.54413
 Alpha  occ. eigenvalues --   -0.53841  -0.53810  -0.53231  -0.53164  -0.53146
 Alpha  occ. eigenvalues --   -0.53073  -0.52829  -0.52826  -0.52693  -0.52614
 Alpha  occ. eigenvalues --   -0.52380  -0.52338  -0.51825  -0.51809  -0.51590
 Alpha  occ. eigenvalues --   -0.51536  -0.51128  -0.51114  -0.50524  -0.50426
 Alpha  occ. eigenvalues --   -0.49974  -0.49918  -0.49857  -0.49809  -0.49442
 Alpha  occ. eigenvalues --   -0.49426  -0.49134  -0.49132  -0.49034  -0.49013
 Alpha  occ. eigenvalues --   -0.48506  -0.48484  -0.48404  -0.48371  -0.48314
 Alpha  occ. eigenvalues --   -0.48280  -0.47623  -0.47529  -0.47227  -0.47056
 Alpha  occ. eigenvalues --   -0.46723  -0.46641  -0.46484  -0.46472  -0.46285
 Alpha  occ. eigenvalues --   -0.46204  -0.46082  -0.46015  -0.45744  -0.45728
 Alpha  occ. eigenvalues --   -0.45148  -0.45141  -0.44491  -0.44443  -0.44442
 Alpha  occ. eigenvalues --   -0.44409  -0.44077  -0.44060  -0.44013  -0.44011
 Alpha  occ. eigenvalues --   -0.43939  -0.43875  -0.43474  -0.43402  -0.43316
 Alpha  occ. eigenvalues --   -0.43312  -0.42949  -0.42853  -0.42821  -0.42622
 Alpha  occ. eigenvalues --   -0.42561  -0.42492  -0.41937  -0.41896  -0.41624
 Alpha  occ. eigenvalues --   -0.41597  -0.41453  -0.41389  -0.41067  -0.40924
 Alpha  occ. eigenvalues --   -0.40797  -0.40768  -0.40664  -0.40634  -0.40506
 Alpha  occ. eigenvalues --   -0.40430  -0.40155  -0.40147  -0.39387  -0.39364
 Alpha  occ. eigenvalues --   -0.38406  -0.38289  -0.37660  -0.37579  -0.37254
 Alpha  occ. eigenvalues --   -0.37201  -0.37178  -0.37128  -0.36680  -0.36612
 Alpha  occ. eigenvalues --   -0.36144  -0.36105  -0.34208  -0.34184  -0.33762
 Alpha  occ. eigenvalues --   -0.33653  -0.33106  -0.33106  -0.31299  -0.31225
 Alpha  occ. eigenvalues --   -0.30960  -0.30906  -0.29931  -0.29874  -0.29378
 Alpha  occ. eigenvalues --   -0.29263  -0.29239  -0.29140  -0.24003  -0.23967
 Alpha  occ. eigenvalues --   -0.21052  -0.21050
 Alpha virt. eigenvalues --   -0.08725  -0.08700  -0.01679  -0.01619   0.00008
 Alpha virt. eigenvalues --    0.00032   0.02280   0.02284   0.03218   0.03310
 Alpha virt. eigenvalues --    0.04798   0.04799   0.05215   0.05263   0.06259

 Mulliken charges:
               1
     1  Mg   0.839097
     2  C   -0.002718
     3  C   -0.094074
     4  C   -0.046040
     5  C   -0.063970
     6  N   -0.256738
     7  C   -0.052330
     8  C   -0.014030
     9  C   -0.087006
    10  C    0.046315
    11  C    0.104854
    12  C    0.053462
    13  C   -0.071857
    14  H    0.036501
    15  N   -0.433040
    16  C    0.168347
    17  C   -0.177283
    18  C   -0.004245
    19  C    0.148676
    20  C    0.110219
    21  C    0.012059
    22  O   -0.250112
    23  C    0.062583
    24  N   -0.341164
    25  C    0.041216
    26  C   -0.028066
    27  C   -0.023979
    28  C    0.074945
    29  C    0.076259
    30  C    0.035150
    31  C   -0.004398
    32  N   -0.310594
    33  C    0.080718
    34  C   -0.169305
    35  C    0.008550
    36  C    0.083303
    37  C    0.127195
    38  C    0.046534
    39  O   -0.187964
    40  C   -0.005484
    41  C    0.212861
    42  O   -0.256386
    43  O   -0.305005
    44  C    0.157564
    45  H   -0.017763
    46  H   -0.017244
    47  H   -0.041478
    48  H    0.000947
    49  H   -0.004068
    50  H    0.025449
    51  H    0.016310
    52  H    0.016528
    53  H    0.011229
    54  H    0.044558
    55  H    0.017710
    56  H    0.017810
    57  H    0.005886
    58  H    0.026556
    59  H    0.039298
    60  H    0.037360
    61  H    0.035068
    62  H    0.031381
    63  H    0.016167
    64  H    0.009383
    65  H    0.022827
    66  H    0.012553
    67  H    0.004662
    68  H    0.005876
    69  H    0.004863
    70  H    0.008206
    71  H    0.018072
    72  H    0.029630
    73  H    0.048230
    74  H    0.009095
    75  H    0.045876
    76  H    0.035030
    77  H    0.042903
    78  H    0.046238
    79  H    0.054231
    80  Mg   0.838135
    81  C   -0.016624
    82  C   -0.087766
    83  C   -0.045616
    84  C   -0.064906
    85  N   -0.254553
    86  C   -0.049759
    87  C   -0.015121
    88  C   -0.090513
    89  C    0.045768
    90  C    0.114422
    91  C    0.062513
    92  C   -0.077886
    93  H    0.035084
    94  N   -0.423439
    95  C    0.162885
    96  C   -0.174745
    97  C   -0.007971
    98  C    0.152108
    99  C    0.099420
   100  C    0.015438
   101  O   -0.253432
   102  C    0.061266
   103  N   -0.350111
   104  C    0.037509
   105  C   -0.019767
   106  C   -0.034830
   107  C    0.089006
   108  C    0.073730
   109  C    0.034753
   110  C   -0.007676
   111  N   -0.324194
   112  C    0.078650
   113  C   -0.162873
   114  C    0.002362
   115  C    0.096491
   116  C    0.131401
   117  C    0.042714
   118  O   -0.187514
   119  C    0.000779
   120  C    0.211235
   121  O   -0.250267
   122  O   -0.305850
   123  C    0.151911
   124  H   -0.019806
   125  H   -0.015797
   126  H   -0.040422
   127  H   -0.000705
   128  H   -0.004321
   129  H    0.022393
   130  H    0.014308
   131  H    0.016142
   132  H    0.014037
   133  H    0.038094
   134  H    0.020549
   135  H    0.019583
   136  H    0.008766
   137  H    0.025909
   138  H    0.039606
   139  H    0.038201
   140  H    0.036043
   141  H    0.033789
   142  H    0.014270
   143  H    0.012312
   144  H    0.024929
   145  H    0.011564
   146  H    0.005567
   147  H    0.006037
   148  H    0.003737
   149  H    0.010689
   150  H    0.018140
   151  H    0.030391
   152  H    0.046482
   153  H    0.008532
   154  H    0.046785
   155  H    0.034858
   156  H    0.043765
   157  H    0.049229
   158  H    0.054176
 Sum of Mulliken charges =  -0.00000

 Dipole moment (field-independent basis, Debye):
    X=             -0.9139    Y=             -5.5177    Z=             -4.7943  Tot=              7.3665
 Quadrupole moment (field-independent basis, Debye-Ang):
   XX=           -464.9579   YY=           -501.5826   ZZ=           -499.5655
   XY=             -7.7627   XZ=             28.4494   YZ=            -39.0674

 Normal termination of Gaussian 16 at Sat Sep 11 23:27:06 2021.
