 Gaussian 16, Revision A.03,
 Gaussian 16:  ES64L-G16RevA.03 25-Dec-2016

 -----------------------------------
 #p cam-b3lyp/Def2SVP td=(nstates=5)
 -----------------------------------

 --------------------------------
 TDDFT excited states in gaussian
 --------------------------------
 Symbolic Z-matrix:
 Charge =  0 Multiplicity = 1

                         Standard orientation:
 ---------------------------------------------------------------------
 Center     Atomic      Atomic             Coordinates (Angstroms)
 Number     Number       Type             X           Y           Z
 ---------------------------------------------------------------------
      1         12           0       -7.856786   -0.728299   -0.137357
      2          6           0       -8.084025    2.636229    1.062862
      3          6           0       -8.645258    0.479357   -3.229758
      4          6           0       -8.108463   -3.730852   -1.126271
      5          6           0       -8.210519   -1.774863    3.167978
      6          7           0       -8.285450    1.317991   -0.865086
      7          6           0       -8.281198    2.528453   -0.315598
      8          6           0       -8.430933    3.679330   -1.355038
      9          6           0       -9.154228    2.870769   -2.523400
     10          6           0       -8.637372    1.477576   -2.210676
     11          6           0      -10.675337    2.867136   -2.410631
     12          6           0       -7.046606    4.243643   -1.820784
     13          6           0       -7.104425    5.573631   -2.577846
     14          1           0       -6.031355    6.537079   -2.383842
     15          7           0       -7.828757   -1.482480   -1.963083
     16          6           0       -8.165527   -0.842800   -3.108805
     17          6           0       -7.978617   -1.827913   -4.195680
     18          6           0       -7.688262   -3.147362   -3.568909
     19          6           0       -7.892053   -2.841290   -2.176010
     20          6           0       -8.032720   -1.469711   -5.649129
     21          6           0       -7.300504   -4.476230   -4.136259
     22          8           0       -7.322658   -5.546717   -3.437589
     23          6           0       -6.974774   -4.507084   -5.573615
     24          7           0       -8.340940   -2.508956    0.838599
     25          6           0       -8.320684   -3.678719    0.190350
     26          6           0       -8.420936   -4.832822    1.143205
     27          6           0       -8.269164   -4.212297    2.606649
     28          6           0       -8.185093   -2.714932    2.220512
     29          6           0       -9.716784   -5.652061    1.068133
     30          6           0       -7.158378   -4.804576    3.509854
     31          6           0       -5.798850   -4.460372    2.943900
     32          7           0       -7.927378    0.228343    1.809666
     33          6           0       -8.103343   -0.399068    3.051465
     34          6           0       -8.192636    0.667558    4.065568
     35          6           0       -8.078281    1.849593    3.336487
     36          6           0       -7.953473    1.541684    1.951601
     37          6           0       -8.416368    0.477222    5.457743
     38          6           0       -8.057224    3.301848    3.402595
     39          8           0       -8.030730    4.128033    4.315945
     40          6           0       -8.182503    3.872727    1.921302
     41          6           0       -7.127946    4.932206    1.751823
     42          8           0       -5.915898    4.635095    1.757455
     43          8           0       -7.708991    6.081517    1.374977
     44          6           0       -6.714816    7.166838    1.160853
     45          1           0       -9.113544    0.708133   -4.189086
     46          1           0       -8.091133   -4.784837   -1.411323
     47          1           0       -8.236283   -2.028034    4.229436
     48          1           0       -9.061512    4.506780   -1.029278
     49          1           0       -8.814546    3.188587   -3.508960
     50          1           0      -11.006360    3.312792   -1.472688
     51          1           0      -10.968196    1.818094   -2.457923
     52          1           0      -11.129308    3.344423   -3.279472
     53          1           0       -6.641873    3.602069   -2.603494
     54          1           0       -6.364792    4.339557   -0.975055
     55          1           0       -8.075782    6.055557   -2.463294
     56          1           0       -7.030771    5.362791   -3.644768
     57          1           0       -8.427185   -0.465587   -5.799724
     58          1           0       -8.771828   -2.124001   -6.111008
     59          1           0       -7.068253   -1.600265   -6.140139
     60          1           0       -7.835127   -4.158261   -6.145158
     61          1           0       -6.634493   -5.520573   -5.783138
     62          1           0       -6.169473   -3.798228   -5.768455
     63          1           0       -7.618796   -5.550112    0.974409
     64          1           0       -9.179586   -4.326081    3.195595
     65          1           0       -9.553739   -6.712668    0.875169
     66          1           0      -10.352101   -5.208354    0.302112
     67          1           0      -10.355269   -5.579166    1.948156
     68          1           0       -7.229516   -5.891430    3.535043
     69          1           0       -7.202665   -4.445398    4.538096
     70          1           0       -5.643434   -5.236116    2.194968
     71          1           0       -5.038055   -4.512283    3.723455
     72          1           0       -5.815356   -3.502959    2.422773
     73          1           0       -7.730018    1.150029    5.971772
     74          1           0       -8.246636   -0.559384    5.747986
     75          1           0       -9.464359    0.766302    5.535220
     76          1           0       -9.189265    4.278216    1.825738
     77          1           0       -7.010383    8.002601    1.795183
     78          1           0       -6.670682    7.338860    0.085276
     79          1           0       -5.706067    6.975964    1.528729
     80         12           0        8.020031   -0.765407    0.287117
     81          6           0        7.844247    2.725634   -0.525781
     82          6           0        7.229654   -1.410144   -2.967761
     83          6           0        7.724235   -3.826244    1.068912
     84          6           0        7.663713    0.138237    3.634083
     85          7           0        7.613943    0.569303   -1.429250
     86          6           0        7.636513    1.877757   -1.633658
     87          6           0        7.504409    2.298612   -3.121939
     88          6           0        6.756349    0.990202   -3.676334
     89          6           0        7.253888   -0.028074   -2.652493
     90          6           0        5.242574    1.072539   -3.571337
     91          6           0        8.899038    2.498879   -3.812519
     92          6           0        8.849465    3.205821   -5.168811
     93          1           0        9.943290    4.105218   -5.525314
     94          7           0        8.031074   -2.389188   -0.853845
     95          6           0        7.703530   -2.467690   -2.160684
     96          6           0        7.854898   -3.883869   -2.529031
     97          6           0        8.139310   -4.662244   -1.292922
     98          6           0        7.951199   -3.636676   -0.286479
     99          6           0        7.806662   -4.364632   -3.950280
    100          6           0        8.505805   -6.095862   -1.054992
    101          8           0        8.473574   -6.613499    0.117121
    102          6           0        8.813225   -6.900379   -2.246517
    103          7           0        7.523929   -1.725409    2.063242
    104          6           0        7.518757   -3.067465    2.145646
    105          6           0        7.404226   -3.525466    3.580042
    106          6           0        7.577692   -2.206335    4.467383
    107          6           0        7.677783   -1.154766    3.340632
    108          6           0        6.095616   -4.221397    3.953686
    109          6           0        8.685466   -2.231020    5.555924
    110          6           0       10.048637   -2.278118    4.904056
    111          7           0        7.978608    1.084313    1.402849
    112          6           0        7.793390    1.237116    2.794404
    113          6           0        7.725166    2.687275    3.067898
    114          6           0        7.853395    3.281754    1.803511
    115          6           0        7.971498    2.272842    0.809712
    116          6           0        7.516680    3.284432    4.343069
    117          6           0        7.905037    4.533150    1.082389
    118          8           0        7.941083    5.720188    1.403915
    119          6           0        7.774424    4.226575   -0.471752
    120          6           0        8.843212    5.003980   -1.189975
    121          8           0       10.045312    4.742256   -1.008117
    122          8           0        8.269525    5.776045   -2.130809
    123          6           0        9.290295    6.558296   -2.877766
    124          1           0        6.765705   -1.720576   -3.904387
    125          1           0        7.724559   -4.865328    1.406226
    126          1           0        7.652140    0.503161    4.663341
    127          1           0        6.893480    3.176803   -3.293172
    128          1           0        7.103057    0.729465   -4.672918
    129          1           0        4.923413    1.951202   -3.030763
    130          1           0        4.934589    0.175313   -3.050589
    131          1           0        4.791927    1.013305   -4.566192
    132          1           0        9.287846    1.520983   -4.124460
    133          1           0        9.576439    3.015179   -3.160459
    134          1           0        7.881077    3.689129   -5.346561
    135          1           0        8.921067    2.451494   -5.956138
    136          1           0        7.418591   -3.590573   -4.623815
    137          1           0        7.057132   -5.162299   -3.992756
    138          1           0        8.764585   -4.761152   -4.293551
    139          1           0        7.956247   -6.896452   -2.915863
    140          1           0        9.138534   -7.871215   -1.867657
    141          1           0        9.637583   -6.422918   -2.787893
    142          1           0        8.195535   -4.222261    3.827866
    143          1           0        6.664282   -1.973557    5.034250
    144          1           0        6.243987   -5.236147    4.368823
    145          1           0        5.465692   -4.258450    3.074842
    146          1           0        5.471173   -3.680751    4.662883
    147          1           0        8.600133   -3.135872    6.162639
    148          1           0        8.644689   -1.384289    6.232961
    149          1           0       10.183423   -3.342697    4.690543
    150          1           0       10.812752   -1.912716    5.587163
    151          1           0       10.044739   -1.747465    3.944860
    152          1           0        8.208145    4.113363    4.415467
    153          1           0        7.668511    2.567623    5.147363
    154          1           0        6.468601    3.581433    4.250328
    155          1           0        6.772416    4.525777   -0.781617
    156          1           0        9.006733    7.612262   -2.797617
    157          1           0        9.318418    6.120035   -3.893100
    158          1           0       10.297256    6.579180   -2.477722
 ---------------------------------------------------------------------

 SCF Done:  E(RCAM-B3LYP) =  -4069.81171188     A.U. after   19 cycles

 Excitation energies and oscillator strengths:

 Excited State   1:      Singlet-A      1.6708 eV  742.06 nm  f=0.0811  <S**2>=0.000
     309 -> 315       -0.10166
     310 -> 316        0.13959
     311 -> 313       -0.40265
     312 -> 314        0.55574
 This state for optimization and/or second-order correction.
 Total Energy, E(TD-HF/TD-DFT) =  -4069.75031041
 Copying the excited state density for this state as the 1-particle RhoCI density.

 Excited State   2:      Singlet-A      1.6841 eV  736.22 nm  f=0.6725  <S**2>=0.000
     309 -> 315        0.14296
     310 -> 316        0.10319
     311 -> 313        0.55502
     312 -> 314        0.40224

 Excited State   3:      Singlet-A      2.1857 eV  567.26 nm  f=0.0702  <S**2>=0.000
     309 -> 313       -0.11989
     310 -> 314        0.63136
     312 -> 316       -0.26815

 Excited State   4:      Singlet-A      2.1924 eV  565.51 nm  f=0.1253  <S**2>=0.000
     309 -> 313        0.62956
     310 -> 314        0.11901
     311 -> 315       -0.27331

 Excited State   5:      Singlet-A      2.7654 eV  448.34 nm  f=0.0000  <S**2>=0.000
     312 -> 313        0.70710

 The electronic state is 1-A.
 Alpha  occ. eigenvalues --  -46.87834 -46.87590 -19.26301 -19.26288 -19.19108
 Alpha  occ. eigenvalues --  -19.19029 -19.18866 -19.18653 -19.18195 -19.17978
 Alpha  occ. eigenvalues --  -14.42486 -14.42430 -14.41485 -14.41288 -14.39442
 Alpha  occ. eigenvalues --  -14.39283 -14.38622 -14.38528 -10.39090 -10.39037
 Alpha  occ. eigenvalues --  -10.35501 -10.35331 -10.34414 -10.34156 -10.31719
 Alpha  occ. eigenvalues --  -10.31671 -10.31438 -10.31241 -10.30961 -10.30946
 Alpha  occ. eigenvalues --  -10.30604 -10.30544 -10.30325 -10.30289 -10.30246
 Alpha  occ. eigenvalues --  -10.30070 -10.29954 -10.29819 -10.29669 -10.29367
 Alpha  occ. eigenvalues --  -10.29331 -10.29294 -10.28780 -10.28668 -10.28628
 Alpha  occ. eigenvalues --  -10.28564 -10.28401 -10.28336 -10.28149 -10.28087
 Alpha  occ. eigenvalues --  -10.27929 -10.27829 -10.27764 -10.27625 -10.27603
 Alpha  occ. eigenvalues --  -10.27536 -10.27535 -10.27483 -10.27441 -10.27437
 Alpha  occ. eigenvalues --  -10.27416 -10.27414 -10.27398 -10.27301 -10.27180
 Alpha  occ. eigenvalues --  -10.26982 -10.26736 -10.26652 -10.26478 -10.26364
 Alpha  occ. eigenvalues --  -10.26263 -10.26217 -10.26067 -10.26055 -10.25969
 Alpha  occ. eigenvalues --  -10.25870 -10.25861 -10.25754 -10.25466 -10.25316
 Alpha  occ. eigenvalues --  -10.24867 -10.24824 -10.24799 -10.24722 -10.24667
 Alpha  occ. eigenvalues --  -10.24619  -3.16577  -3.16340  -1.91458  -1.91222
 Alpha  occ. eigenvalues --   -1.91045  -1.90887  -1.90811  -1.90648  -1.16638
 Alpha  occ. eigenvalues --   -1.16594  -1.08650  -1.08586  -1.07268  -1.06906
 Alpha  occ. eigenvalues --   -1.06892  -1.06651  -1.04617  -1.04428  -1.03797
 Alpha  occ. eigenvalues --   -1.03594  -1.03271  -1.02967  -1.02447  -1.02040
 Alpha  occ. eigenvalues --   -0.92003  -0.91918  -0.89554  -0.89423  -0.89220
 Alpha  occ. eigenvalues --   -0.89096  -0.88321  -0.88148  -0.87903  -0.87715
 Alpha  occ. eigenvalues --   -0.87708  -0.87618  -0.87321  -0.87058  -0.85015
 Alpha  occ. eigenvalues --   -0.84943  -0.83968  -0.83806  -0.83017  -0.82871
 Alpha  occ. eigenvalues --   -0.82682  -0.82595  -0.81607  -0.81536  -0.80627
 Alpha  occ. eigenvalues --   -0.80381  -0.78839  -0.78568  -0.77253  -0.77082
 Alpha  occ. eigenvalues --   -0.76961  -0.76839  -0.75950  -0.75779  -0.74929
 Alpha  occ. eigenvalues --   -0.74733  -0.72809  -0.72628  -0.71704  -0.71514
 Alpha  occ. eigenvalues --   -0.69941  -0.69688  -0.68907  -0.68769  -0.67676
 Alpha  occ. eigenvalues --   -0.67536  -0.67256  -0.67148  -0.65317  -0.65214
 Alpha  occ. eigenvalues --   -0.64884  -0.64704  -0.64650  -0.64593  -0.64303
 Alpha  occ. eigenvalues --   -0.64134  -0.62315  -0.62219  -0.60485  -0.60274
 Alpha  occ. eigenvalues --   -0.59838  -0.59736  -0.59020  -0.58924  -0.58536
 Alpha  occ. eigenvalues --   -0.58358  -0.57607  -0.57489  -0.57342  -0.57168
 Alpha  occ. eigenvalues --   -0.56345  -0.56137  -0.55995  -0.55832  -0.55559
 Alpha  occ. eigenvalues --   -0.55392  -0.55366  -0.55180  -0.54546  -0.54424
 Alpha  occ. eigenvalues --   -0.53927  -0.53859  -0.53337  -0.53258  -0.53161
 Alpha  occ. eigenvalues --   -0.53082  -0.52942  -0.52843  -0.52800  -0.52612
 Alpha  occ. eigenvalues --   -0.52471  -0.52333  -0.51944  -0.51799  -0.51652
 Alpha  occ. eigenvalues --   -0.51604  -0.51225  -0.51134  -0.50627  -0.50418
 Alpha  occ. eigenvalues --   -0.50068  -0.49962  -0.49920  -0.49798  -0.49552
 Alpha  occ. eigenvalues --   -0.49428  -0.49248  -0.49140  -0.49126  -0.49042
 Alpha  occ. eigenvalues --   -0.48619  -0.48501  -0.48496  -0.48478  -0.48304
 Alpha  occ. eigenvalues --   -0.48278  -0.47730  -0.47534  -0.47333  -0.47054
 Alpha  occ. eigenvalues --   -0.46830  -0.46643  -0.46587  -0.46499  -0.46393
 Alpha  occ. eigenvalues --   -0.46202  -0.46191  -0.46014  -0.45845  -0.45754
 Alpha  occ. eigenvalues --   -0.45235  -0.45138  -0.44606  -0.44547  -0.44451
 Alpha  occ. eigenvalues --   -0.44415  -0.44180  -0.44121  -0.44065  -0.44052
 Alpha  occ. eigenvalues --   -0.44013  -0.43878  -0.43517  -0.43494  -0.43419
 Alpha  occ. eigenvalues --   -0.43323  -0.43059  -0.42873  -0.42834  -0.42722
 Alpha  occ. eigenvalues --   -0.42676  -0.42486  -0.42041  -0.41902  -0.41735
 Alpha  occ. eigenvalues --   -0.41601  -0.41566  -0.41402  -0.41174  -0.40925
 Alpha  occ. eigenvalues --   -0.40904  -0.40869  -0.40667  -0.40642  -0.40604
 Alpha  occ. eigenvalues --   -0.40425  -0.40267  -0.40181  -0.39475  -0.39356
 Alpha  occ. eigenvalues --   -0.38502  -0.38282  -0.37779  -0.37605  -0.37355
 Alpha  occ. eigenvalues --   -0.37296  -0.37198  -0.37139  -0.36730  -0.36716
 Alpha  occ. eigenvalues --   -0.36217  -0.36152  -0.34321  -0.34184  -0.33806
 Alpha  occ. eigenvalues --   -0.33785  -0.33220  -0.33106  -0.31395  -0.31212
 Alpha  occ. eigenvalues --   -0.31071  -0.30905  -0.30053  -0.29883  -0.29490
 Alpha  occ. eigenvalues --   -0.29357  -0.29259  -0.29137  -0.24116  -0.23966
 Alpha  occ. eigenvalues --   -0.21164  -0.21047
 Alpha virt. eigenvalues --   -0.08812  -0.08722  -0.01787  -0.01614  -0.00100
 Alpha virt. eigenvalues --    0.00035   0.02169   0.02281   0.03077   0.03290
 Alpha virt. eigenvalues --    0.04685   0.04792   0.05085   0.05221   0.06150

 Mulliken charges:
               1
     1  Mg   0.838574
     2  C   -0.002958
     3  C   -0.094241
     4  C   -0.045901
     5  C   -0.063971
     6  N   -0.256774
     7  C   -0.052435
     8  C   -0.013977
     9  C   -0.086976
    10  C    0.046286
    11  C    0.104811
    12  C    0.053501
    13  C   -0.071872
    14  H    0.036408
    15  N   -0.433113
    16  C    0.168325
    17  C   -0.177302
    18  C   -0.004142
    19  C    0.148657
    20  C    0.110206
    21  C    0.012136
    22  O   -0.249621
    23  C    0.062576
    24  N   -0.341142
    25  C    0.041215
    26  C   -0.028171
    27  C   -0.024023
    28  C    0.074906
    29  C    0.076153
    30  C    0.035119
    31  C   -0.004498
    32  N   -0.310520
    33  C    0.080503
    34  C   -0.169643
    35  C    0.008456
    36  C    0.083021
    37  C    0.127289
    38  C    0.046209
    39  O   -0.188107
    40  C   -0.005335
    41  C    0.212924
    42  O   -0.257037
    43  O   -0.304836
    44  C    0.157543
    45  H   -0.017645
    46  H   -0.016866
    47  H   -0.041406
    48  H    0.001084
    49  H   -0.004135
    50  H    0.025559
    51  H    0.016436
    52  H    0.016674
    53  H    0.010918
    54  H    0.044226
    55  H    0.017990
    56  H    0.017743
    57  H    0.005865
    58  H    0.026828
    59  H    0.039079
    60  H    0.037420
    61  H    0.035478
    62  H    0.031062
    63  H    0.016523
    64  H    0.009550
    65  H    0.023231
    66  H    0.012550
    67  H    0.004822
    68  H    0.006455
    69  H    0.004785
    70  H    0.008776
    71  H    0.018152
    72  H    0.028897
    73  H    0.047714
    74  H    0.009128
    75  H    0.046125
    76  H    0.035238
    77  H    0.043183
    78  H    0.046349
    79  H    0.053993
    80  Mg   0.837969
    81  C   -0.016819
    82  C   -0.087849
    83  C   -0.045427
    84  C   -0.064534
    85  N   -0.254525
    86  C   -0.049743
    87  C   -0.015101
    88  C   -0.090546
    89  C    0.045783
    90  C    0.114413
    91  C    0.062574
    92  C   -0.077726
    93  H    0.034678
    94  N   -0.423470
    95  C    0.162883
    96  C   -0.174702
    97  C   -0.007854
    98  C    0.152068
    99  C    0.099403
   100  C    0.015525
   101  O   -0.253244
   102  C    0.061230
   103  N   -0.349976
   104  C    0.037544
   105  C   -0.019874
   106  C   -0.034879
   107  C    0.088967
   108  C    0.073588
   109  C    0.034705
   110  C   -0.007644
   111  N   -0.324180
   112  C    0.078499
   113  C   -0.162828
   114  C    0.002375
   115  C    0.096258
   116  C    0.131433
   117  C    0.042617
   118  O   -0.187759
   119  C    0.000812
   120  C    0.211202
   121  O   -0.251116
   122  O   -0.305598
   123  C    0.152101
   124  H   -0.019946
   125  H   -0.015618
   126  H   -0.040205
   127  H   -0.000700
   128  H   -0.004663
   129  H    0.022808
   130  H    0.014713
   131  H    0.015700
   132  H    0.013869
   133  H    0.037681
   134  H    0.020629
   135  H    0.019403
   136  H    0.008518
   137  H    0.026067
   138  H    0.039575
   139  H    0.038219
   140  H    0.036273
   141  H    0.033762
   142  H    0.014250
   143  H    0.012823
   144  H    0.024932
   145  H    0.011828
   146  H    0.005964
   147  H    0.006206
   148  H    0.003776
   149  H    0.010830
   150  H    0.017841
   151  H    0.030060
   152  H    0.045887
   153  H    0.008534
   154  H    0.047809
   155  H    0.035301
   156  H    0.043821
   157  H    0.049299
   158  H    0.053522
 Sum of Mulliken charges =  -0.00000

 Dipole moment (field-independent basis, Debye):
    X=             -3.8391    Y=             -2.2427    Z=             -7.4564  Tot=              8.6813
 Quadrupole moment (field-independent basis, Debye-Ang):
   XX=           -517.8099   YY=           -543.4266   ZZ=           -455.5485
   XY=            -20.9882   XZ=              4.2021   YZ=            -40.7869

 Normal termination of Gaussian 16 at Sun Sep 12 04:52:02 2021.
