 Gaussian 16, Revision A.03,
 Gaussian 16:  ES64L-G16RevA.03 25-Dec-2016

 -----------------------------------
 #p cam-b3lyp/Def2SVP td=(nstates=5)
 -----------------------------------

 --------------------------------
 TDDFT excited states in gaussian
 --------------------------------
 Symbolic Z-matrix:
 Charge =  0 Multiplicity = 1

                         Standard orientation:
 ---------------------------------------------------------------------
 Center     Atomic      Atomic             Coordinates (Angstroms)
 Number     Number       Type             X           Y           Z
 ---------------------------------------------------------------------
      1         12           0        4.451283   -0.622838    0.685351
      2          6           0        5.011464    1.979297   -1.707828
      3          6           0        4.949550    1.714132    3.121201
      4          6           0        4.411475   -2.981502    2.804723
      5          6           0        5.119566   -2.906404   -1.861094
      6          7           0        4.912943    1.540250    0.592788
      7          6           0        5.042678    2.430059   -0.386282
      8          6           0        5.139504    3.899294    0.122980
      9          6           0        5.675457    3.619546    1.598275
     10          6           0        5.117063    2.221689    1.798568
     11          6           0        7.196620    3.558993    1.692616
     12          6           0        3.746400    4.613779    0.145426
     13          6           0        3.794942    6.135016    0.315233
     14          1           0        2.809527    6.949075   -0.380189
     15          7           0        4.170006   -0.583929    2.640400
     16          6           0        4.410156    0.457762    3.472563
     17          6           0        4.042467   -0.009124    4.826632
     18          6           0        3.749008   -1.466755    4.741264
     19          6           0        4.128701   -1.744740    3.379671
     20          6           0        3.950529    0.899861    6.013663
     21          6           0        3.221536   -2.454822    5.733045
     22          8           0        3.260823   -3.715503    5.523966
     23          6           0        2.731959   -1.905837    7.010531
     24          7           0        4.938870   -2.648982    0.564393
     25          6           0        4.775896   -3.461808    1.614030
     26          6           0        4.916864   -4.901377    1.216906
     27          6           0        4.970475   -4.916512   -0.378917
     28          6           0        4.930637   -3.389030   -0.630873
     29          6           0        6.145291   -5.632587    1.775753
     30          6           0        3.937733   -5.811619   -1.108742
     31          6           0        2.544831   -5.259013   -0.904911
     32          7           0        4.800543   -0.525013   -1.454624
     33          6           0        5.080591   -1.597962   -2.313128
     34          6           0        5.347914   -1.026491   -3.645804
     35          6           0        5.220247    0.349326   -3.465043
     36          6           0        4.919691    0.621793   -2.099862
     37          6           0        5.718194   -1.759334   -4.807815
     38          6           0        5.292089    1.654148   -4.102331
     39          8           0        5.418943    2.046446   -5.263151
     40          6           0        5.280013    2.768629   -2.964960
     41          6           0        4.276924    3.815883   -3.365436
     42          8           0        3.058189    3.550982   -3.408775
     43          8           0        4.877324    5.015330   -3.402698
     44          6           0        3.930514    6.103637   -3.765038
     45          1           0        5.317394    2.303632    3.963295
     46          1           0        4.299821   -3.833441    3.478645
     47          1           0        5.251936   -3.563037   -2.722932
     48          1           0        5.850688    4.522432   -0.419551
     49          1           0        5.244271    4.307592    2.325181
     50          1           0        7.658523    3.589826    0.705897
     51          1           0        7.420114    2.614049    2.188221
     52          1           0        7.575210    4.340204    2.352279
     53          1           0        3.217707    4.341899    1.059005
     54          1           0        3.172821    4.369000   -0.749234
     55          1           0        4.799601    6.523182    0.145241
     56          1           0        3.587250    6.368920    1.359432
     57          1           0        4.383322    1.877265    5.804105
     58          1           0        4.592184    0.478926    6.787486
     59          1           0        2.930154    0.984204    6.387902
     60          1           0        3.540094   -1.364474    7.502865
     61          1           0        2.311072   -2.748279    7.558250
     62          1           0        1.952588   -1.171800    6.803841
     63          1           0        4.059997   -5.484932    1.551073
     64          1           0        5.934155   -5.263533   -0.752511
     65          1           0        5.899302   -6.526251    2.349825
     66          1           0        6.713534   -4.924709    2.378497
     67          1           0        6.883603   -5.922710    1.028665
     68          1           0        3.947443   -6.818428   -0.692584
     69          1           0        4.120566   -5.893863   -2.180217
     70          1           0        2.259384   -5.669363    0.063058
     71          1           0        1.876676   -5.612195   -1.691068
     72          1           0        2.557602   -4.173263   -0.807596
     73          1           0        5.135922   -1.342700   -5.629608
     74          1           0        5.522366   -2.824137   -4.683526
     75          1           0        6.783293   -1.533712   -4.857959
     76          1           0        6.291216    3.170459   -2.909086
     77          1           0        4.345329    6.613698   -4.634521
     78          1           0        3.773551    6.691683   -2.860621
     79          1           0        2.961134    5.789659   -4.153703
     80         12           0       -4.431966   -0.661693   -0.686511
     81          6           0       -5.104884    1.907918    1.726658
     82          6           0       -4.884151    1.699811   -3.105898
     83          6           0       -4.289817   -2.985705   -2.842007
     84          6           0       -5.156643   -2.993469    1.800129
     85          7           0       -4.926427    1.491469   -0.578500
     86          6           0       -5.098426    2.372917    0.395050
     87          6           0       -5.193267    3.847196   -0.081456
     88          6           0       -5.683655    3.582075   -1.587476
     89          6           0       -5.101918    2.184715   -1.791537
     90          6           0       -7.194833    3.494610   -1.721734
     91          6           0       -3.804178    4.576192   -0.049605
     92          6           0       -3.872356    6.097052   -0.204860
     93          1           0       -2.913744    6.915620    0.532346
     94          7           0       -4.084262   -0.583049   -2.638808
     95          6           0       -4.304577    0.462544   -3.463109
     96          6           0       -3.904797    0.008818   -4.804176
     97          6           0       -3.585723   -1.442990   -4.732432
     98          6           0       -4.003356   -1.737968   -3.376455
     99          6           0       -3.778148    0.940615   -5.974286
    100          6           0       -3.012935   -2.409144   -5.724737
    101          8           0       -3.042816   -3.675081   -5.526395
    102          6           0       -2.500269   -1.835451   -6.977551
    103          7           0       -4.889777   -2.688136   -0.607319
    104          6           0       -4.686926   -3.484807   -1.671309
    105          6           0       -4.825365   -4.941112   -1.296627
    106          6           0       -4.925442   -4.966485    0.299284
    107          6           0       -4.916828   -3.447319    0.577561
    108          6           0       -6.029062   -5.670040   -1.893417
    109          6           0       -3.905290   -5.862024    1.054259
    110          6           0       -2.510484   -5.300509    0.897438
    111          7           0       -4.843810   -0.597579    1.433473
    112          6           0       -5.146151   -1.688921    2.277058
    113          6           0       -5.462940   -1.134705    3.609315
    114          6           0       -5.344410    0.253149    3.441110
    115          6           0       -4.999247    0.544518    2.093726
    116          6           0       -5.850911   -1.888162    4.752951
    117          6           0       -5.443192    1.538526    4.094383
    118          8           0       -5.618706    1.912818    5.253188
    119          6           0       -5.416257    2.673933    2.982399
    120          6           0       -4.438040    3.729479    3.419943
    121          8           0       -3.224987    3.469747    3.507310
    122          8           0       -5.061287    4.921486    3.452493
    123          6           0       -4.129166    6.002392    3.870345
    124          1           0       -5.227335    2.304805   -3.945601
    125          1           0       -4.147294   -3.832142   -3.517810
    126          1           0       -5.296832   -3.660520    2.653390
    127          1           0       -5.922961    4.449230    0.446641
    128          1           0       -5.232243    4.287869   -2.279890
    129          1           0       -7.686152    3.507510   -0.760182
    130          1           0       -7.391130    2.562049   -2.234421
    131          1           0       -7.560892    4.285035   -2.383215
    132          1           0       -3.244186    4.319515   -0.958051
    133          1           0       -3.264007    4.327968    0.843264
    134          1           0       -4.890788    6.480197   -0.067242
    135          1           0       -3.627693    6.351614   -1.238957
    136          1           0       -4.237269    1.914556   -5.764452
    137          1           0       -4.386449    0.522258   -6.783490
    138          1           0       -2.748033    1.041803   -6.322577
    139          1           0       -3.298924   -1.295974   -7.481120
    140          1           0       -2.051398   -2.670360   -7.519125
    141          1           0       -1.727194   -1.098088   -6.734091
    142          1           0       -3.952166   -5.503950   -1.602961
    143          1           0       -5.901012   -5.342932    0.640434
    144          1           0       -5.749947   -6.564363   -2.481945
    145          1           0       -6.583185   -4.970232   -2.504780
    146          1           0       -6.778824   -5.990821   -1.172201
    147          1           0       -3.886988   -6.864472    0.619615
    148          1           0       -4.126730   -5.972983    2.110508
    149          1           0       -2.193622   -5.694219   -0.072958
    150          1           0       -1.863017   -5.654082    1.697326
    151          1           0       -2.532888   -4.207401    0.818294
    152          1           0       -5.306820   -1.479696    5.594152
    153          1           0       -5.642542   -2.947773    4.620385
    154          1           0       -6.924021   -1.679712    4.768979
    155          1           0       -6.429439    3.067296    2.891233
    156          1           0       -4.581693    6.498045    4.734779
    157          1           0       -3.961970    6.618497    2.966898
    158          1           0       -3.168264    5.706900    4.275057
 ---------------------------------------------------------------------

 SCF Done:  E(RCAM-B3LYP) =  -4069.81259109     A.U. after   18 cycles

 Excitation energies and oscillator strengths:

 Excited State   1:      Singlet-A      1.6491 eV  751.83 nm  f=0.0042  <S**2>=0.000
     309 -> 315        0.11333
     310 -> 316        0.12304
     311 -> 313        0.50664
     312 -> 314       -0.46495
 This state for optimization and/or second-order correction.
 Total Energy, E(TD-HF/TD-DFT) =  -4069.75198777
 Copying the excited state density for this state as the 1-particle RhoCI density.

 Excited State   2:      Singlet-A      1.7037 eV  727.73 nm  f=0.6986  <S**2>=0.000
     309 -> 315       -0.13380
     310 -> 316        0.12230
     311 -> 313        0.46270
     312 -> 314        0.50411

 Excited State   3:      Singlet-A      2.1841 eV  567.68 nm  f=0.0143  <S**2>=0.000
     309 -> 314       -0.32361
     310 -> 313        0.55699
     311 -> 316       -0.23383
     312 -> 315       -0.13501

 Excited State   4:      Singlet-A      2.1968 eV  564.37 nm  f=0.1621  <S**2>=0.000
     309 -> 314        0.55292
     310 -> 313        0.32001
     311 -> 316       -0.14160
     312 -> 315        0.24348

 Excited State   5:      Singlet-A      2.4785 eV  500.23 nm  f=0.0000  <S**2>=0.000
     312 -> 313        0.70708

 The electronic state is 1-A.
 Alpha  occ. eigenvalues --  -46.87593 -46.87478 -19.26355 -19.26276 -19.19154
 Alpha  occ. eigenvalues --  -19.19000 -19.18574 -19.18492 -19.18047 -19.17943
 Alpha  occ. eigenvalues --  -14.42316 -14.42251 -14.41251 -14.41187 -14.39190
 Alpha  occ. eigenvalues --  -14.39159 -14.38430 -14.38397 -10.39073 -10.39048
 Alpha  occ. eigenvalues --  -10.35201 -10.35162 -10.34270 -10.34125 -10.31813
 Alpha  occ. eigenvalues --  -10.31722 -10.31226 -10.31149 -10.30836 -10.30706
 Alpha  occ. eigenvalues --  -10.30380 -10.30317 -10.30230 -10.30191 -10.29987
 Alpha  occ. eigenvalues --  -10.29945 -10.29747 -10.29746 -10.29431 -10.29234
 Alpha  occ. eigenvalues --  -10.29218 -10.29033 -10.28581 -10.28567 -10.28556
 Alpha  occ. eigenvalues --  -10.28424 -10.28226 -10.28168 -10.27982 -10.27941
 Alpha  occ. eigenvalues --  -10.27823 -10.27597 -10.27522 -10.27481 -10.27366
 Alpha  occ. eigenvalues --  -10.27359 -10.27319 -10.27310 -10.27278 -10.27267
 Alpha  occ. eigenvalues --  -10.27236 -10.27222 -10.27162 -10.27149 -10.27049
 Alpha  occ. eigenvalues --  -10.26957 -10.26531 -10.26531 -10.26099 -10.26085
 Alpha  occ. eigenvalues --  -10.26081 -10.25982 -10.25976 -10.25891 -10.25815
 Alpha  occ. eigenvalues --  -10.25756 -10.25733 -10.25703 -10.25284 -10.25279
 Alpha  occ. eigenvalues --  -10.24708 -10.24652 -10.24597 -10.24547 -10.24524
 Alpha  occ. eigenvalues --  -10.24458  -3.16335  -3.16228  -1.91217  -1.91110
 Alpha  occ. eigenvalues --   -1.90804  -1.90698  -1.90646  -1.90535  -1.16645
 Alpha  occ. eigenvalues --   -1.16620  -1.08566  -1.08519  -1.06974  -1.06936
 Alpha  occ. eigenvalues --   -1.06744  -1.06620  -1.04385  -1.04317  -1.03563
 Alpha  occ. eigenvalues --   -1.03485  -1.03034  -1.02863  -1.02215  -1.01938
 Alpha  occ. eigenvalues --   -0.91839  -0.91806  -0.89330  -0.89327  -0.89015
 Alpha  occ. eigenvalues --   -0.88995  -0.88100  -0.88063  -0.87696  -0.87641
 Alpha  occ. eigenvalues --   -0.87509  -0.87477  -0.87022  -0.86879  -0.84842
 Alpha  occ. eigenvalues --   -0.84806  -0.83759  -0.83728  -0.82722  -0.82710
 Alpha  occ. eigenvalues --   -0.82472  -0.82463  -0.81505  -0.81476  -0.80430
 Alpha  occ. eigenvalues --   -0.80301  -0.78572  -0.78429  -0.77030  -0.76976
 Alpha  occ. eigenvalues --   -0.76792  -0.76776  -0.75775  -0.75705  -0.74729
 Alpha  occ. eigenvalues --   -0.74660  -0.72585  -0.72531  -0.71500  -0.71431
 Alpha  occ. eigenvalues --   -0.69711  -0.69595  -0.68693  -0.68668  -0.67458
 Alpha  occ. eigenvalues --   -0.67441  -0.67027  -0.67020  -0.65125  -0.65120
 Alpha  occ. eigenvalues --   -0.64696  -0.64628  -0.64514  -0.64457  -0.64083
 Alpha  occ. eigenvalues --   -0.64048  -0.62203  -0.62198  -0.60215  -0.60132
 Alpha  occ. eigenvalues --   -0.59634  -0.59624  -0.58839  -0.58812  -0.58332
 Alpha  occ. eigenvalues --   -0.58280  -0.57476  -0.57465  -0.57129  -0.57072
 Alpha  occ. eigenvalues --   -0.56134  -0.56048  -0.55888  -0.55796  -0.55317
 Alpha  occ. eigenvalues --   -0.55290  -0.55195  -0.55121  -0.54401  -0.54382
 Alpha  occ. eigenvalues --   -0.53758  -0.53725  -0.53111  -0.53064  -0.53028
 Alpha  occ. eigenvalues --   -0.52986  -0.52772  -0.52766  -0.52513  -0.52426
 Alpha  occ. eigenvalues --   -0.52243  -0.52239  -0.51763  -0.51758  -0.51483
 Alpha  occ. eigenvalues --   -0.51428  -0.51067  -0.51039  -0.50284  -0.50211
 Alpha  occ. eigenvalues --   -0.49825  -0.49787  -0.49700  -0.49692  -0.49325
 Alpha  occ. eigenvalues --   -0.49304  -0.49040  -0.49039  -0.48970  -0.48940
 Alpha  occ. eigenvalues --   -0.48458  -0.48436  -0.48309  -0.48250  -0.48225
 Alpha  occ. eigenvalues --   -0.48131  -0.47507  -0.47427  -0.47099  -0.46936
 Alpha  occ. eigenvalues --   -0.46615  -0.46554  -0.46397  -0.46390  -0.46175
 Alpha  occ. eigenvalues --   -0.46106  -0.46005  -0.45952  -0.45720  -0.45703
 Alpha  occ. eigenvalues --   -0.45060  -0.45022  -0.44442  -0.44392  -0.44314
 Alpha  occ. eigenvalues --   -0.44296  -0.43989  -0.43969  -0.43918  -0.43918
 Alpha  occ. eigenvalues --   -0.43824  -0.43739  -0.43472  -0.43380  -0.43240
 Alpha  occ. eigenvalues --   -0.43205  -0.42866  -0.42858  -0.42761  -0.42640
 Alpha  occ. eigenvalues --   -0.42469  -0.42378  -0.41836  -0.41809  -0.41539
 Alpha  occ. eigenvalues --   -0.41530  -0.41363  -0.41305  -0.40968  -0.40838
 Alpha  occ. eigenvalues --   -0.40691  -0.40587  -0.40558  -0.40494  -0.40393
 Alpha  occ. eigenvalues --   -0.40342  -0.40052  -0.40051  -0.39275  -0.39223
 Alpha  occ. eigenvalues --   -0.38287  -0.38198  -0.37590  -0.37515  -0.37132
 Alpha  occ. eigenvalues --   -0.37107  -0.37087  -0.37037  -0.36731  -0.36645
 Alpha  occ. eigenvalues --   -0.36086  -0.36051  -0.34099  -0.34093  -0.33824
 Alpha  occ. eigenvalues --   -0.33721  -0.33005  -0.32999  -0.31109  -0.31058
 Alpha  occ. eigenvalues --   -0.30847  -0.30804  -0.29913  -0.29855  -0.29239
 Alpha  occ. eigenvalues --   -0.29134  -0.29129  -0.29037  -0.23888  -0.23865
 Alpha  occ. eigenvalues --   -0.20936  -0.20927
 Alpha virt. eigenvalues --   -0.08609  -0.08570  -0.01547  -0.01503   0.00160
 Alpha virt. eigenvalues --    0.00173   0.02347   0.02361   0.02948   0.03860
 Alpha virt. eigenvalues --    0.04880   0.04899   0.05146   0.05199   0.06263

 Mulliken charges:
               1
     1  Mg   0.839620
     2  C   -0.003214
     3  C   -0.092429
     4  C   -0.046041
     5  C   -0.063725
     6  N   -0.256821
     7  C   -0.052576
     8  C   -0.014284
     9  C   -0.087319
    10  C    0.046917
    11  C    0.104851
    12  C    0.052945
    13  C   -0.071042
    14  H    0.033645
    15  N   -0.433363
    16  C    0.169720
    17  C   -0.175274
    18  C   -0.003174
    19  C    0.149148
    20  C    0.109914
    21  C    0.013021
    22  O   -0.250574
    23  C    0.061511
    24  N   -0.341216
    25  C    0.041595
    26  C   -0.028097
    27  C   -0.023785
    28  C    0.074546
    29  C    0.076363
    30  C    0.035159
    31  C   -0.004939
    32  N   -0.310163
    33  C    0.079889
    34  C   -0.170417
    35  C    0.007486
    36  C    0.082574
    37  C    0.127624
    38  C    0.045014
    39  O   -0.190493
    40  C   -0.005065
    41  C    0.212689
    42  O   -0.258359
    43  O   -0.304386
    44  C    0.158445
    45  H   -0.017551
    46  H   -0.017166
    47  H   -0.041769
    48  H    0.000099
    49  H   -0.003417
    50  H    0.025062
    51  H    0.016482
    52  H    0.016431
    53  H    0.014312
    54  H    0.043205
    55  H    0.017292
    56  H    0.018778
    57  H    0.005871
    58  H    0.026110
    59  H    0.043812
    60  H    0.036893
    61  H    0.035133
    62  H    0.035419
    63  H    0.016166
    64  H    0.008992
    65  H    0.022764
    66  H    0.012469
    67  H    0.004504
    68  H    0.005533
    69  H    0.004977
    70  H    0.007948
    71  H    0.020112
    72  H    0.029153
    73  H    0.046035
    74  H    0.009398
    75  H    0.045476
    76  H    0.034843
    77  H    0.042330
    78  H    0.046685
    79  H    0.051705
    80  Mg   0.838631
    81  C   -0.017101
    82  C   -0.086005
    83  C   -0.045686
    84  C   -0.064729
    85  N   -0.254612
    86  C   -0.049979
    87  C   -0.015367
    88  C   -0.090842
    89  C    0.046386
    90  C    0.114419
    91  C    0.061894
    92  C   -0.077092
    93  H    0.032335
    94  N   -0.423767
    95  C    0.164576
    96  C   -0.172746
    97  C   -0.006834
    98  C    0.152532
    99  C    0.099136
   100  C    0.016334
   101  O   -0.254288
   102  C    0.060088
   103  N   -0.350067
   104  C    0.037830
   105  C   -0.019752
   106  C   -0.034589
   107  C    0.088551
   108  C    0.073865
   109  C    0.034810
   110  C   -0.008057
   111  N   -0.323775
   112  C    0.077813
   113  C   -0.163894
   114  C    0.001432
   115  C    0.095749
   116  C    0.131769
   117  C    0.041307
   118  O   -0.189883
   119  C    0.001178
   120  C    0.211101
   121  O   -0.252212
   122  O   -0.305248
   123  C    0.152731
   124  H   -0.019553
   125  H   -0.015953
   126  H   -0.040840
   127  H   -0.001509
   128  H   -0.003637
   129  H    0.022030
   130  H    0.014431
   131  H    0.016047
   132  H    0.017305
   133  H    0.036774
   134  H    0.020153
   135  H    0.020426
   136  H    0.008749
   137  H    0.025329
   138  H    0.044655
   139  H    0.037812
   140  H    0.035763
   141  H    0.038300
   142  H    0.013932
   143  H    0.011925
   144  H    0.024654
   145  H    0.011597
   146  H    0.005412
   147  H    0.005416
   148  H    0.003790
   149  H    0.010128
   150  H    0.019605
   151  H    0.030296
   152  H    0.044585
   153  H    0.008636
   154  H    0.046377
   155  H    0.034680
   156  H    0.043274
   157  H    0.049757
   158  H    0.051704
 Sum of Mulliken charges =  -0.00000

 Dipole moment (field-independent basis, Debye):
    X=              0.1688    Y=              3.1089    Z=              0.1339  Tot=              3.1164
 Quadrupole moment (field-independent basis, Debye-Ang):
   XX=           -495.0640   YY=           -461.8262   ZZ=           -534.5716
   XY=              0.3639   XZ=             40.7700   YZ=              0.6097

 Normal termination of Gaussian 16 at Thu Sep  9 17:11:46 2021.
