 Gaussian 16, Revision A.03,
 Gaussian 16:  ES64L-G16RevA.03 25-Dec-2016

 -----------------------------------
 #p cam-b3lyp/Def2SVP td=(nstates=5)
 -----------------------------------

 --------------------------------
 TDDFT excited states in gaussian
 --------------------------------
 Symbolic Z-matrix:
 Charge =  0 Multiplicity = 1

                         Standard orientation:
 ---------------------------------------------------------------------
 Center     Atomic      Atomic             Coordinates (Angstroms)
 Number     Number       Type             X           Y           Z
 ---------------------------------------------------------------------
      1         12           0        7.818755    0.734705    0.457374
      2          6           0        8.341997   -2.378675   -1.229428
      3          6           0        8.563329    2.285816   -2.489273
      4          6           0        7.808096    3.488641    2.029742
      5          6           0        8.233036   -0.990031    3.457260
      6          7           0        8.365333   -0.054881   -1.537232
      7          6           0        8.472811   -1.269126   -2.067542
      8          6           0        8.662786   -1.253365   -3.613839
      9          6           0        9.275302    0.209543   -3.777308
     10          6           0        8.671312    0.864561   -2.547644
     11          6           0       10.795442    0.250309   -3.658918
     12          6           0        7.305233   -1.395070   -4.381106
     13          6           0        7.428575   -1.715362   -5.873605
     14          1           0        6.438057   -2.587168   -6.486936
     15          7           0        7.659068    2.588486   -0.206589
     16          6           0        7.993501    3.038649   -1.439794
     17          6           0        7.689537    4.485813   -1.441699
     18          6           0        7.329801    4.877032   -0.050430
     19          6           0        7.613654    3.656800    0.660793
     20          6           0        7.708794    5.328999   -2.679607
     21          6           0        6.822287    6.151988    0.545431
     22          8           0        6.795200    6.349073    1.808363
     23          6           0        6.435233    7.212024   -0.403018
     24          7           0        8.211602    1.236453    2.445225
     25          6           0        8.078546    2.494834    2.878535
     26          6           0        8.133802    2.565454    4.375832
     27          6           0        8.089357    1.054894    4.891572
     28          6           0        8.099121    0.336714    3.519569
     29          6           0        9.361854    3.270862    4.967693
     30          6           0        6.976982    0.690885    5.906727
     31          6           0        5.623812    0.772120    5.236332
     32          7           0        8.040771   -1.340489    1.053465
     33          6           0        8.222167   -1.828948    2.355455
     34          6           0        8.431786   -3.284300    2.245553
     35          6           0        8.373900   -3.540558    0.877040
     36          6           0        8.168950   -2.318710    0.174634
     37          6           0        8.699105   -4.171638    3.325185
     38          6           0        8.462097   -4.558903   -0.156909
     39          8           0        8.534503   -5.788637   -0.158931
     40          6           0        8.566693   -3.831076   -1.569409
     41          6           0        7.586427   -4.495913   -2.496975
     42          8           0        6.357171   -4.399292   -2.304727
     43          8           0        8.233821   -4.935749   -3.586915
     44          6           0        7.313745   -5.579867   -4.561967
     45          1           0        9.006510    2.882126   -3.289239
     46          1           0        7.701658    4.400854    2.620485
     47          1           0        8.284632   -1.606194    4.356779
     48          1           0        9.365394   -1.995651   -3.993020
     49          1           0        8.918823    0.701197   -4.682251
     50          1           0       11.197237   -0.715445   -3.352649
     51          1           0       11.008408    1.007832   -2.904400
     52          1           0       11.246359    0.612805   -4.583065
     53          1           0        6.822140   -0.419765   -4.439961
     54          1           0        6.668316   -2.140624   -3.903809
     55          1           0        8.436577   -2.043523   -6.128853
     56          1           0        7.295031   -0.789815   -6.433720
     57          1           0        8.169115    4.803213   -3.515190
     58          1           0        8.377971    6.166628   -2.483932
     59          1           0        6.717629    5.702680   -2.937070
     60          1           0        7.294128    7.472292   -1.021976
     61          1           0        6.013128    8.015369    0.199736
     62          1           0        5.676581    6.819592   -1.080804
     63          1           0        7.274895    3.104219    4.773873
     64          1           0        9.012870    0.767079    5.394524
     65          1           0        9.113593    4.107535    5.621184
     66          1           0        9.995318    3.594045    4.142123
     67          1           0       10.040274    2.621069    5.519901
     68          1           0        6.969286    1.402093    6.731997
     69          1           0        7.090512   -0.307179    6.330081
     70          1           0        5.380730    1.831768    5.306247
     71          1           0        4.894592    0.167787    5.776916
     72          1           0        5.688576    0.521853    4.177248
     73          1           0        8.086040   -5.056036    3.152093
     74          1           0        8.466187   -3.709721    4.284343
     75          1           0        9.767784   -4.337674    3.190231
     76          1           0        9.595568   -3.949697   -1.907737
     77          1           0        7.696073   -6.583310   -4.749480
     78          1           0        7.237306   -4.900639   -5.411209
     79          1           0        6.310024   -5.806284   -4.200554
     80         12           0       -7.986503   -0.827130    0.360310
     81          6           0       -8.056390    2.099912   -1.714934
     82          6           0       -7.326900    1.238078    2.993647
     83          6           0       -7.473136   -3.410463    2.129561
     84          6           0       -7.513267   -2.701883   -2.539177
     85          7           0       -7.747049    1.367544    0.495727
     86          6           0       -7.856309    2.382939   -0.347705
     87          6           0       -7.825074    3.782463    0.323057
     88          6           0       -7.031203    3.389467    1.662534
     89          6           0       -7.415616    1.913943    1.750484
     90          6           0       -5.521428    3.481808    1.516346
     91          6           0       -9.262416    4.323233    0.644936
     92          6           0       -9.323411    5.806871    1.014873
     93          1           0      -10.484608    6.583230    0.589023
     94          7           0       -7.960969   -1.048847    2.332301
     95          6           0       -7.696479   -0.099714    3.254514
     96          6           0       -7.783558   -0.771984    4.560126
     97          6           0       -7.958654   -2.231121    4.325671
     98          6           0       -7.779614   -2.290574    2.888834
     99          6           0       -7.779908   -0.024661    5.862019
    100          6           0       -8.228272   -3.384143    5.244383
    101          8           0       -8.106149   -4.598891    4.854116
    102          6           0       -8.548596   -3.049600    6.639721
    103          7           0       -7.345289   -2.749506   -0.104070
    104          6           0       -7.257634   -3.697336    0.845593
    105          6           0       -7.043565   -5.062200    0.235934
    106          6           0       -7.248213   -4.866570   -1.338046
    107          6           0       -7.466829   -3.338141   -1.376772
    108          6           0       -5.679227   -5.700424    0.496045
    109          6           0       -8.295698   -5.780841   -2.030567
    110          6           0       -9.685271   -5.429982   -1.549544
    111          7           0       -7.996218   -0.434953   -1.764345
    112          6           0       -7.749488   -1.358838   -2.803408
    113          6           0       -7.752135   -0.599684   -4.070730
    114          6           0       -7.979150    0.727341   -3.675821
    115          6           0       -8.088725    0.793756   -2.260514
    116          6           0       -7.514075   -1.141287   -5.365370
    117          6           0       -8.140433    2.088652   -4.133575
    118          8           0       -8.229234    2.630066   -5.234802
    119          6           0       -8.071596    3.056615   -2.874722
    120          6           0       -9.219159    4.024390   -2.969651
    121          8           0      -10.393091    3.623280   -2.882523
    122          8           0       -8.740225    5.281116   -2.929147
    123          6           0       -9.841664    6.277242   -3.009102
    124          1           0       -6.894003    1.768013    3.842556
    125          1           0       -7.395628   -4.348879    2.683490
    126          1           0       -7.470526   -3.228437   -3.495000
    127          1           0       -7.275950    4.537506   -0.226632
    128          1           0       -7.412478    3.934701    2.522021
    129          1           0       -5.226921    3.683238    0.497111
    130          1           0       -5.135461    2.523840    1.839409
    131          1           0       -5.119413    4.220180    2.216015
    132          1           0       -9.608915    3.880185    1.587486
    133          1           0       -9.934652    4.125390   -0.167213
    134          1           0       -8.395206    6.333352    0.761507
    135          1           0       -9.390945    5.890893    2.102257
    136          1           0       -7.472514    1.019518    5.725583
    137          1           0       -6.988259   -0.462349    6.479748
    138          1           0       -8.729316   -0.103952    6.395874
    139          1           0       -7.728559   -2.481339    7.072236
    140          1           0       -8.796958   -3.998929    7.118219
    141          1           0       -9.425942   -2.393268    6.649572
    142          1           0       -7.779198   -5.768452    0.600857
    143          1           0       -6.322221   -5.065835   -1.897212
    144          1           0       -5.746774   -6.692258    0.981607
    145          1           0       -5.093867   -5.020253    1.100394
    146          1           0       -5.052032   -5.824781   -0.385070
    147          1           0       -8.126883   -6.825161   -1.756604
    148          1           0       -8.269913   -5.723814   -3.113654
    149          1           0       -9.768431   -5.984294   -0.609902
    150          1           0      -10.433563   -5.757376   -2.268500
    151          1           0       -9.761264   -4.362852   -1.310571
    152          1           0       -8.248137   -0.700829   -6.026919
    153          1           0       -7.582611   -2.227128   -5.360850
    154          1           0       -6.491211   -0.795258   -5.536483
    155          1           0       -7.105851    3.562689   -2.903029
    156          1           0       -9.616368    6.935552   -3.853826
    157          1           0       -9.895921    6.743678   -2.007487
    158          1           0      -10.826417    5.914930   -3.280112
 ---------------------------------------------------------------------

 SCF Done:  E(RCAM-B3LYP) =  -4069.81183883     A.U. after   19 cycles

 Excitation energies and oscillator strengths:

 Excited State   1:      Singlet-A      1.6734 eV  740.90 nm  f=0.2319  <S**2>=0.000
     310 -> 316        0.15379
     311 -> 313        0.31589
     312 -> 314        0.60912
 This state for optimization and/or second-order correction.
 Total Energy, E(TD-HF/TD-DFT) =  -4069.75034172
 Copying the excited state density for this state as the 1-particle RhoCI density.

 Excited State   2:      Singlet-A      1.6814 eV  737.40 nm  f=0.5189  <S**2>=0.000
     309 -> 315        0.15609
     311 -> 313        0.60859
     312 -> 314       -0.31565

 Excited State   3:      Singlet-A      2.1857 eV  567.24 nm  f=0.0892  <S**2>=0.000
     310 -> 314        0.63705
     312 -> 316       -0.27043

 Excited State   4:      Singlet-A      2.1926 eV  565.47 nm  f=0.1088  <S**2>=0.000
     309 -> 313        0.63508
     311 -> 315       -0.27586

 Excited State   5:      Singlet-A      2.7660 eV  448.24 nm  f=0.0000  <S**2>=0.000
     312 -> 313        0.70710

 The electronic state is 1-A.
 Alpha  occ. eigenvalues --  -46.87836 -46.87592 -19.26324 -19.26307 -19.19129
 Alpha  occ. eigenvalues --  -19.19046 -19.18864 -19.18646 -19.18202 -19.18005
 Alpha  occ. eigenvalues --  -14.42486 -14.42431 -14.41491 -14.41286 -14.39442
 Alpha  occ. eigenvalues --  -14.39284 -14.38625 -14.38534 -10.39106 -10.39058
 Alpha  occ. eigenvalues --  -10.35497 -10.35323 -10.34422 -10.34183 -10.31741
 Alpha  occ. eigenvalues --  -10.31698 -10.31438 -10.31248 -10.30960 -10.30942
 Alpha  occ. eigenvalues --  -10.30606 -10.30549 -10.30331 -10.30299 -10.30251
 Alpha  occ. eigenvalues --  -10.30063 -10.29965 -10.29819 -10.29670 -10.29367
 Alpha  occ. eigenvalues --  -10.29338 -10.29294 -10.28771 -10.28667 -10.28620
 Alpha  occ. eigenvalues --  -10.28544 -10.28401 -10.28341 -10.28139 -10.28082
 Alpha  occ. eigenvalues --  -10.27939 -10.27830 -10.27762 -10.27623 -10.27603
 Alpha  occ. eigenvalues --  -10.27557 -10.27509 -10.27506 -10.27440 -10.27424
 Alpha  occ. eigenvalues --  -10.27420 -10.27405 -10.27402 -10.27276 -10.27188
 Alpha  occ. eigenvalues --  -10.27006 -10.26720 -10.26649 -10.26458 -10.26350
 Alpha  occ. eigenvalues --  -10.26254 -10.26253 -10.26061 -10.26054 -10.25960
 Alpha  occ. eigenvalues --  -10.25879 -10.25863 -10.25800 -10.25489 -10.25262
 Alpha  occ. eigenvalues --  -10.24869 -10.24830 -10.24812 -10.24769 -10.24657
 Alpha  occ. eigenvalues --  -10.24617  -3.16579  -3.16342  -1.91460  -1.91224
 Alpha  occ. eigenvalues --   -1.91047  -1.90889  -1.90813  -1.90650  -1.16656
 Alpha  occ. eigenvalues --   -1.16617  -1.08659  -1.08615  -1.07266  -1.06915
 Alpha  occ. eigenvalues --   -1.06897  -1.06668  -1.04616  -1.04431  -1.03801
 Alpha  occ. eigenvalues --   -1.03595  -1.03273  -1.02968  -1.02451  -1.02043
 Alpha  occ. eigenvalues --   -0.92007  -0.91928  -0.89569  -0.89420  -0.89212
 Alpha  occ. eigenvalues --   -0.89094  -0.88337  -0.88136  -0.87906  -0.87735
 Alpha  occ. eigenvalues --   -0.87707  -0.87618  -0.87312  -0.87056  -0.85010
 Alpha  occ. eigenvalues --   -0.84941  -0.83990  -0.83794  -0.83013  -0.82862
 Alpha  occ. eigenvalues --   -0.82681  -0.82593  -0.81617  -0.81549  -0.80631
 Alpha  occ. eigenvalues --   -0.80387  -0.78834  -0.78572  -0.77257  -0.77082
 Alpha  occ. eigenvalues --   -0.76965  -0.76838  -0.75952  -0.75784  -0.74944
 Alpha  occ. eigenvalues --   -0.74718  -0.72813  -0.72634  -0.71709  -0.71509
 Alpha  occ. eigenvalues --   -0.69965  -0.69675  -0.68904  -0.68769  -0.67679
 Alpha  occ. eigenvalues --   -0.67538  -0.67247  -0.67145  -0.65315  -0.65216
 Alpha  occ. eigenvalues --   -0.64891  -0.64708  -0.64657  -0.64596  -0.64317
 Alpha  occ. eigenvalues --   -0.64127  -0.62330  -0.62231  -0.60484  -0.60270
 Alpha  occ. eigenvalues --   -0.59833  -0.59738  -0.59026  -0.58926  -0.58542
 Alpha  occ. eigenvalues --   -0.58363  -0.57616  -0.57508  -0.57351  -0.57167
 Alpha  occ. eigenvalues --   -0.56345  -0.56145  -0.56006  -0.55842  -0.55558
 Alpha  occ. eigenvalues --   -0.55397  -0.55384  -0.55178  -0.54564  -0.54424
 Alpha  occ. eigenvalues --   -0.53920  -0.53856  -0.53339  -0.53254  -0.53163
 Alpha  occ. eigenvalues --   -0.53085  -0.52950  -0.52848  -0.52791  -0.52607
 Alpha  occ. eigenvalues --   -0.52498  -0.52325  -0.51951  -0.51831  -0.51645
 Alpha  occ. eigenvalues --   -0.51604  -0.51233  -0.51144  -0.50612  -0.50408
 Alpha  occ. eigenvalues --   -0.50082  -0.49956  -0.49915  -0.49784  -0.49548
 Alpha  occ. eigenvalues --   -0.49427  -0.49249  -0.49147  -0.49123  -0.49049
 Alpha  occ. eigenvalues --   -0.48625  -0.48507  -0.48504  -0.48484  -0.48298
 Alpha  occ. eigenvalues --   -0.48274  -0.47731  -0.47532  -0.47334  -0.47048
 Alpha  occ. eigenvalues --   -0.46837  -0.46642  -0.46582  -0.46495  -0.46399
 Alpha  occ. eigenvalues --   -0.46204  -0.46202  -0.46017  -0.45854  -0.45770
 Alpha  occ. eigenvalues --   -0.45249  -0.45120  -0.44612  -0.44546  -0.44459
 Alpha  occ. eigenvalues --   -0.44416  -0.44189  -0.44117  -0.44069  -0.44054
 Alpha  occ. eigenvalues --   -0.44010  -0.43882  -0.43528  -0.43504  -0.43421
 Alpha  occ. eigenvalues --   -0.43323  -0.43064  -0.42887  -0.42840  -0.42740
 Alpha  occ. eigenvalues --   -0.42697  -0.42477  -0.42054  -0.41898  -0.41741
 Alpha  occ. eigenvalues --   -0.41609  -0.41562  -0.41398  -0.41176  -0.40921
 Alpha  occ. eigenvalues --   -0.40905  -0.40866  -0.40660  -0.40636  -0.40618
 Alpha  occ. eigenvalues --   -0.40415  -0.40255  -0.40176  -0.39503  -0.39344
 Alpha  occ. eigenvalues --   -0.38516  -0.38268  -0.37772  -0.37601  -0.37366
 Alpha  occ. eigenvalues --   -0.37292  -0.37192  -0.37140  -0.36746  -0.36729
 Alpha  occ. eigenvalues --   -0.36230  -0.36149  -0.34324  -0.34188  -0.33824
 Alpha  occ. eigenvalues --   -0.33799  -0.33224  -0.33109  -0.31393  -0.31204
 Alpha  occ. eigenvalues --   -0.31074  -0.30906  -0.30061  -0.29910  -0.29488
 Alpha  occ. eigenvalues --   -0.29359  -0.29263  -0.29151  -0.24119  -0.23969
 Alpha  occ. eigenvalues --   -0.21166  -0.21049
 Alpha virt. eigenvalues --   -0.08812  -0.08727  -0.01791  -0.01613  -0.00097
 Alpha virt. eigenvalues --    0.00035   0.02163   0.02265   0.03075   0.03289
 Alpha virt. eigenvalues --    0.04686   0.04793   0.05071   0.05200   0.06158

 Mulliken charges:
               1
     1  Mg   0.838658
     2  C   -0.002921
     3  C   -0.093923
     4  C   -0.046040
     5  C   -0.064001
     6  N   -0.256794
     7  C   -0.052387
     8  C   -0.014052
     9  C   -0.087016
    10  C    0.046307
    11  C    0.104780
    12  C    0.053416
    13  C   -0.071929
    14  H    0.036315
    15  N   -0.433155
    16  C    0.168387
    17  C   -0.177042
    18  C   -0.004087
    19  C    0.148691
    20  C    0.110104
    21  C    0.012113
    22  O   -0.249935
    23  C    0.062529
    24  N   -0.341150
    25  C    0.041268
    26  C   -0.028157
    27  C   -0.023928
    28  C    0.074746
    29  C    0.076186
    30  C    0.035169
    31  C   -0.004445
    32  N   -0.310487
    33  C    0.080370
    34  C   -0.169726
    35  C    0.008404
    36  C    0.082954
    37  C    0.127319
    38  C    0.046129
    39  O   -0.188332
    40  C   -0.005323
    41  C    0.212903
    42  O   -0.257159
    43  O   -0.304751
    44  C    0.157681
    45  H   -0.017423
    46  H   -0.017029
    47  H   -0.041548
    48  H    0.001018
    49  H   -0.003826
    50  H    0.025490
    51  H    0.016405
    52  H    0.016822
    53  H    0.011303
    54  H    0.044053
    55  H    0.017898
    56  H    0.018168
    57  H    0.006088
    58  H    0.026874
    59  H    0.039713
    60  H    0.037546
    61  H    0.035395
    62  H    0.031548
    63  H    0.016220
    64  H    0.009527
    65  H    0.023043
    66  H    0.012682
    67  H    0.004803
    68  H    0.006169
    69  H    0.004826
    70  H    0.008390
    71  H    0.017883
    72  H    0.029138
    73  H    0.047625
    74  H    0.009040
    75  H    0.046079
    76  H    0.035250
    77  H    0.043001
    78  H    0.046529
    79  H    0.053612
    80  Mg   0.837978
    81  C   -0.016958
    82  C   -0.087818
    83  C   -0.045325
    84  C   -0.064608
    85  N   -0.254579
    86  C   -0.049859
    87  C   -0.015085
    88  C   -0.090537
    89  C    0.045823
    90  C    0.114351
    91  C    0.062535
    92  C   -0.077793
    93  H    0.034632
    94  N   -0.423537
    95  C    0.163016
    96  C   -0.174529
    97  C   -0.007668
    98  C    0.152168
    99  C    0.099327
   100  C    0.015608
   101  O   -0.252955
   102  C    0.061210
   103  N   -0.350033
   104  C    0.037755
   105  C   -0.020018
   106  C   -0.034783
   107  C    0.088913
   108  C    0.073345
   109  C    0.034698
   110  C   -0.007649
   111  N   -0.324071
   112  C    0.078401
   113  C   -0.163174
   114  C    0.002071
   115  C    0.096224
   116  C    0.131516
   117  C    0.042220
   118  O   -0.188382
   119  C    0.000979
   120  C    0.211197
   121  O   -0.251031
   122  O   -0.305702
   123  C    0.152100
   124  H   -0.019613
   125  H   -0.015304
   126  H   -0.040449
   127  H   -0.000863
   128  H   -0.004416
   129  H    0.022294
   130  H    0.014804
   131  H    0.016349
   132  H    0.013932
   133  H    0.037584
   134  H    0.020700
   135  H    0.019611
   136  H    0.008736
   137  H    0.026267
   138  H    0.039681
   139  H    0.038285
   140  H    0.036402
   141  H    0.033750
   142  H    0.014302
   143  H    0.012870
   144  H    0.025320
   145  H    0.012172
   146  H    0.006482
   147  H    0.006459
   148  H    0.003519
   149  H    0.010952
   150  H    0.017719
   151  H    0.029951
   152  H    0.045715
   153  H    0.008551
   154  H    0.046833
   155  H    0.034772
   156  H    0.043624
   157  H    0.049507
   158  H    0.053526
 Sum of Mulliken charges =  -0.00000

 Dipole moment (field-independent basis, Debye):
    X=              3.6146    Y=              4.4951    Z=              1.2147  Tot=              5.8946
 Quadrupole moment (field-independent basis, Debye-Ang):
   XX=           -520.0278   YY=           -522.0833   ZZ=           -476.3443
   XY=             17.2385   XZ=            -58.5123   YZ=             20.5853

 Normal termination of Gaussian 16 at Sun Sep 12 01:09:55 2021.
