 Gaussian 16, Revision A.03,
 Gaussian 16:  ES64L-G16RevA.03 25-Dec-2016

 -----------------------------------
 #p cam-b3lyp/Def2SVP td=(nstates=5)
 -----------------------------------

 --------------------------------
 TDDFT excited states in gaussian
 --------------------------------
 Symbolic Z-matrix:
 Charge =  0 Multiplicity = 1

                         Standard orientation:
 ---------------------------------------------------------------------
 Center     Atomic      Atomic             Coordinates (Angstroms)
 Number     Number       Type             X           Y           Z
 ---------------------------------------------------------------------
      1         12           0       15.791728   -0.687620   -0.358517
      2          6           0       16.002313    2.739708    0.652071
      3          6           0       16.727090   -1.525713    2.814142
      4          6           0       16.054228   -3.689898   -1.345452
      5          6           0       15.989858    0.425774   -3.654993
      6          7           0       16.273513    0.541093    1.418783
      7          6           0       16.258226    1.842163    1.691093
      8          6           0       16.465398    2.159554    3.202290
      9          6           0       17.230269    0.829655    3.636271
     10          6           0       16.685438   -0.118665    2.582813
     11          6           0       18.744890    0.919400    3.480166
     12          6           0       15.108787    2.316121    3.968337
     13          6           0       15.213738    2.943194    5.361577
     14          1           0       14.143571    3.816720    5.818789
     15          7           0       15.835267   -2.374693    0.668489
     16          6           0       16.228465   -2.529319    1.955645
     17          6           0       16.078611   -3.969164    2.257426
     18          6           0       15.747151   -4.668657    0.985051
     19          6           0       15.893284   -3.595713    0.034886
     20          6           0       16.199838   -4.537461    3.638039
     21          6           0       15.370339   -6.082536    0.673457
     22          8           0       15.350595   -6.533336   -0.522772
     23          6           0       15.107263   -6.961760    1.827059
     24          7           0       16.213856   -1.539773   -2.216816
     25          6           0       16.209398   -2.866744   -2.384483
     26          6           0       16.255702   -3.233578   -3.838178
     27          6           0       16.046909   -1.871355   -4.644718
     28          6           0       15.995729   -0.892637   -3.445651
     29          6           0       17.544777   -3.916699   -4.315296
     30          6           0       14.891553   -1.834960   -5.676341
     31          6           0       13.561737   -1.914739   -4.960574
     32          7           0       15.787583    1.235165   -1.365455
     33          6           0       15.902546    1.465216   -2.744053
     34          6           0       15.958922    2.926185   -2.934996
     35          6           0       15.889073    3.447451   -1.644551
     36          6           0       15.821475    2.379111   -0.705204
     37          6           0       16.119712    3.598511   -4.178603
     38          6           0       15.880649    4.657897   -0.839191
     39          8           0       15.823182    5.863385   -1.086152
     40          6           0       16.076463    4.245981    0.686525
     41          6           0       15.041659    4.982675    1.492609
     42          8           0       13.827417    4.725487    1.362849
     43          8           0       15.650806    5.697454    2.451030
     44          6           0       14.678545    6.429673    3.305851
     45          1           0       17.239162   -1.899563    3.702939
     46          1           0       16.038097   -4.708937   -1.737546
     47          1           0       15.966625    0.848721   -4.660990
     48          1           0       17.089969    3.030366    3.402347
     49          1           0       16.937280    0.498304    4.632306
     50          1           0       19.039448    1.838504    2.973803
     51          1           0       19.028324    0.050062    2.886523
     52          1           0       19.241369    0.799249    4.443415
     53          1           0       14.731737    1.329335    4.236942
     54          1           0       14.391818    2.881210    3.371717
     55          1           0       16.184264    3.416343    5.513625
     56          1           0       15.184417    2.141807    6.099899
     57          1           0       16.611182   -3.809430    4.336116
     58          1           0       16.951356   -5.325443    3.593149
     59          1           0       15.256354   -4.949276    3.996614
     60          1           0       15.995385   -7.003042    2.457998
     61          1           0       14.765646   -7.909064    1.411412
     62          1           0       14.318829   -6.518671    2.436151
     63          1           0       15.454075   -3.925762   -4.092546
     64          1           0       16.929528   -1.599784   -5.224293
     65          1           0       17.378993   -4.889203   -4.779469
     66          1           0       18.217578   -4.000120   -3.462260
     67          1           0       18.145035   -3.327289   -5.007903
     68          1           0       14.949927   -2.695810   -6.341530
     69          1           0       14.894805   -0.937228   -6.294659
     70          1           0       13.430848   -2.985560   -4.808775
     71          1           0       12.767173   -1.509353   -5.587902
     72          1           0       13.611157   -1.449674   -3.975811
     73          1           0       15.418825    4.433131   -4.166991
     74          1           0       15.926441    2.930585   -5.017725
     75          1           0       17.166354    3.895481   -4.113758
     76          1           0       17.090702    4.533991    0.961283
     77          1           0       14.955080    7.483653    3.276043
     78          1           0       14.683176    5.932598    4.276057
     79          1           0       13.652741    6.475590    2.938488
     80         12           0      -15.960641   -0.777639    0.222751
     81          6           0      -15.790254    2.508940   -1.208486
     82          6           0      -15.033833    0.628525    3.188953
     83          6           0      -15.663270   -3.707095    1.404813
     84          6           0      -15.748217   -2.047821   -3.015638
     85          7           0      -15.500707    1.309926    0.790905
     86          6           0      -15.529225    2.483432    0.177391
     87          6           0      -15.342277    3.705021    1.116720
     88          6           0      -14.558558    2.971979    2.311428
     89          6           0      -15.085592    1.552077    2.114487
     90          6           0      -13.051166    2.952814    2.119760
     91          6           0      -16.710268    4.297851    1.605765
     92          6           0      -16.614147    5.672077    2.272095
     93          1           0      -17.702516    6.623500    2.065378
     94          7           0      -15.908502   -1.403725    2.105273
     95          6           0      -15.528143   -0.694350    3.188498
     96          6           0      -15.649335   -1.611093    4.332635
     97          6           0      -15.974513   -2.967688    3.814341
     98          6           0      -15.837891   -2.745019    2.388922
     99          6           0      -15.539122   -1.152724    5.757833
    100          6           0      -16.334716   -4.255846    4.490432
    101          8           0      -16.343773   -5.369616    3.856180
    102          6           0      -16.585533   -4.188963    5.937538
    103          7           0      -15.525603   -2.613238   -0.651119
    104          6           0      -15.509215   -3.740911    0.081019
    105          6           0      -15.447188   -4.964021   -0.802464
    106          6           0      -15.670250   -4.429113   -2.293002
    107          6           0      -15.736566   -2.912193   -2.010221
    108          6           0      -14.147120   -5.765364   -0.738835
    109          6           0      -16.820322   -5.079757   -3.109493
    110          6           0      -18.155752   -4.709231   -2.505564
    111          7           0      -15.983864    0.044581   -1.775118
    112          6           0      -15.856091   -0.663219   -2.990338
    113          6           0      -15.814542    0.338517   -4.075341
    114          6           0      -15.898535    1.570367   -3.409025
    115          6           0      -15.965885    1.352508   -2.006338
    116          6           0      -15.663674    0.056710   -5.462398
    117          6           0      -15.934818    3.005852   -3.572634
    118          8           0      -15.996532    3.769110   -4.535632
    119          6           0      -15.738873    3.682011   -2.147574
    120          6           0      -16.786434    4.750200   -1.992298
    121          8           0      -17.991942    4.449828   -1.936207
    122          8           0      -16.183967    5.921696   -1.718448
    123          6           0      -17.182452    7.010141   -1.544821
    124          1           0      -14.529477    0.929198    4.107701
    125          1           0      -15.665843   -4.742842    1.752252
    126          1           0      -15.781749   -2.366998   -4.059517
    127          1           0      -14.734528    4.503427    0.708126
    128          1           0      -14.862298    3.360520    3.280004
    129          1           0      -12.763388    3.332585    1.150691
    130          1           0      -12.754569    1.917306    2.223637
    131          1           0      -12.560484    3.490220    2.936318
    132          1           0      -17.075700    3.703387    2.453004
    133          1           0      -17.418743    4.335124    0.801214
    134          1           0      -15.644715    6.151612    2.089906
    135          1           0      -16.646054    5.535300    3.355738
    136          1           0      -15.132823   -0.135829    5.823043
    137          1           0      -14.779915   -1.779841    6.237615
    138          1           0      -16.478208   -1.252719    6.306274
    139          1           0      -15.702565   -3.800569    6.439513
    140          1           0      -16.915211   -5.189659    6.223544
    141          1           0      -17.392695   -3.470734    6.119868
    142          1           0      -16.240185   -5.659486   -0.556327
    143          1           0      -14.782801   -4.593041   -2.921806
    144          1           0      -14.300985   -6.825605   -0.462651
    145          1           0      -13.482195   -5.281851   -0.035543
    146          1           0      -13.557406   -5.762183   -1.653954
    147          1           0      -16.749539   -6.169181   -3.061507
    148          1           0      -16.815802   -4.802636   -4.158388
    149          1           0      -18.270382   -5.435759   -1.695572
    150          1           0      -18.950472   -4.810391   -3.241917
    151          1           0      -18.119243   -3.712213   -2.051379
    152          1           0      -16.366399    0.690275   -5.987054
    153          1           0      -15.839787   -0.995534   -5.675775
    154          1           0      -14.616003    0.334731   -5.605083
    155          1           0      -14.728563    4.091669   -2.115475
    156          1           0      -16.913731    7.805226   -2.247187
    157          1           0      -17.165221    7.262350   -0.467864
    158          1           0      -18.204765    6.804164   -1.839587
 ---------------------------------------------------------------------

 SCF Done:  E(RCAM-B3LYP) =  -4069.81176814     A.U. after   19 cycles

 Excitation energies and oscillator strengths:

 Excited State   1:      Singlet-A      1.6754 eV  740.02 nm  f=0.2772  <S**2>=0.000
     310 -> 316        0.17039
     311 -> 314       -0.13017
     312 -> 313        0.67359
     310 <- 316        0.10271
 This state for optimization and/or second-order correction.
 Total Energy, E(TD-HF/TD-DFT) =  -4069.75019795
 Copying the excited state density for this state as the 1-particle RhoCI density.

 Excited State   2:      Singlet-A      1.6800 eV  738.00 nm  f=0.4998  <S**2>=0.000
     309 -> 315        0.17241
     311 -> 314        0.67323
     312 -> 313        0.13012
     309 <- 315        0.10324

 Excited State   3:      Singlet-A      2.1861 eV  567.16 nm  f=0.0977  <S**2>=0.000
     310 -> 313        0.64223
     312 -> 316       -0.27296

 Excited State   4:      Singlet-A      2.1926 eV  565.48 nm  f=0.1027  <S**2>=0.000
     309 -> 314        0.64045
     311 -> 315       -0.27821

 Excited State   5:      Singlet-A      3.0659 eV  404.39 nm  f=0.0000  <S**2>=0.000
     311 -> 313        0.70711

 The electronic state is 1-A.
 Alpha  occ. eigenvalues --  -46.87796 -46.87660 -19.26345 -19.26288 -19.19157
 Alpha  occ. eigenvalues --  -19.19023 -19.18814 -19.18716 -19.18170 -19.18049
 Alpha  occ. eigenvalues --  -14.42497 -14.42450 -14.41449 -14.41359 -14.39402
 Alpha  occ. eigenvalues --  -14.39352 -14.38599 -14.38586 -10.39087 -10.39082
 Alpha  occ. eigenvalues --  -10.35448 -10.35393 -10.34390 -10.34226 -10.31750
 Alpha  occ. eigenvalues --  -10.31684 -10.31405 -10.31307 -10.31022 -10.30909
 Alpha  occ. eigenvalues --  -10.30570 -10.30507 -10.30397 -10.30360 -10.30206
 Alpha  occ. eigenvalues --  -10.30141 -10.29920 -10.29894 -10.29630 -10.29437
 Alpha  occ. eigenvalues --  -10.29401 -10.29254 -10.28751 -10.28716 -10.28650
 Alpha  occ. eigenvalues --  -10.28543 -10.28404 -10.28365 -10.28137 -10.28118
 Alpha  occ. eigenvalues --  -10.28000 -10.27793 -10.27727 -10.27668 -10.27584
 Alpha  occ. eigenvalues --  -10.27519 -10.27499 -10.27483 -10.27482 -10.27468
 Alpha  occ. eigenvalues --  -10.27465 -10.27447 -10.27404 -10.27377 -10.27159
 Alpha  occ. eigenvalues --  -10.27048 -10.26708 -10.26689 -10.26418 -10.26410
 Alpha  occ. eigenvalues --  -10.26235 -10.26181 -10.26140 -10.26019 -10.26019
 Alpha  occ. eigenvalues --  -10.25934 -10.25850 -10.25842 -10.25433 -10.25399
 Alpha  occ. eigenvalues --  -10.24872 -10.24833 -10.24787 -10.24733 -10.24690
 Alpha  occ. eigenvalues --  -10.24684  -3.16539  -3.16410  -1.91421  -1.91292
 Alpha  occ. eigenvalues --   -1.91007  -1.90881  -1.90849  -1.90718  -1.16639
 Alpha  occ. eigenvalues --   -1.16636  -1.08656  -1.08628  -1.07215  -1.06968
 Alpha  occ. eigenvalues --   -1.06941  -1.06645  -1.04581  -1.04494  -1.03760
 Alpha  occ. eigenvalues --   -1.03663  -1.03233  -1.03039  -1.02411  -1.02111
 Alpha  occ. eigenvalues --   -0.91986  -0.91972  -0.89518  -0.89495  -0.89189
 Alpha  occ. eigenvalues --   -0.89148  -0.88285  -0.88221  -0.87870  -0.87793
 Alpha  occ. eigenvalues --   -0.87683  -0.87673  -0.87274  -0.87121  -0.84998
 Alpha  occ. eigenvalues --   -0.84983  -0.83935  -0.83877  -0.82966  -0.82933
 Alpha  occ. eigenvalues --   -0.82651  -0.82649  -0.81594  -0.81587  -0.80597
 Alpha  occ. eigenvalues --   -0.80441  -0.78797  -0.78636  -0.77218  -0.77143
 Alpha  occ. eigenvalues --   -0.76935  -0.76897  -0.75924  -0.75836  -0.74897
 Alpha  occ. eigenvalues --   -0.74803  -0.72774  -0.72699  -0.71672  -0.71580
 Alpha  occ. eigenvalues --   -0.69905  -0.69759  -0.68874  -0.68825  -0.67641
 Alpha  occ. eigenvalues --   -0.67601  -0.67221  -0.67198  -0.65288  -0.65269
 Alpha  occ. eigenvalues --   -0.64854  -0.64769  -0.64652  -0.64621  -0.64268
 Alpha  occ. eigenvalues --   -0.64204  -0.62299  -0.62276  -0.60441  -0.60340
 Alpha  occ. eigenvalues --   -0.59805  -0.59794  -0.58992  -0.58987  -0.58504
 Alpha  occ. eigenvalues --   -0.58425  -0.57585  -0.57552  -0.57308  -0.57236
 Alpha  occ. eigenvalues --   -0.56310  -0.56204  -0.55981  -0.55884  -0.55520
 Alpha  occ. eigenvalues --   -0.55451  -0.55339  -0.55247  -0.54524  -0.54487
 Alpha  occ. eigenvalues --   -0.53910  -0.53896  -0.53299  -0.53227  -0.53223
 Alpha  occ. eigenvalues --   -0.53140  -0.52915  -0.52901  -0.52756  -0.52668
 Alpha  occ. eigenvalues --   -0.52436  -0.52402  -0.51914  -0.51884  -0.51657
 Alpha  occ. eigenvalues --   -0.51618  -0.51200  -0.51196  -0.50572  -0.50476
 Alpha  occ. eigenvalues --   -0.50030  -0.49979  -0.49918  -0.49868  -0.49515
 Alpha  occ. eigenvalues --   -0.49487  -0.49215  -0.49201  -0.49102  -0.49097
 Alpha  occ. eigenvalues --   -0.48594  -0.48556  -0.48460  -0.48445  -0.48376
 Alpha  occ. eigenvalues --   -0.48339  -0.47695  -0.47594  -0.47297  -0.47118
 Alpha  occ. eigenvalues --   -0.46797  -0.46708  -0.46557  -0.46552  -0.46359
 Alpha  occ. eigenvalues --   -0.46270  -0.46162  -0.46085  -0.45822  -0.45820
 Alpha  occ. eigenvalues --   -0.45209  -0.45200  -0.44578  -0.44513  -0.44507
 Alpha  occ. eigenvalues --   -0.44475  -0.44144  -0.44126  -0.44089  -0.44078
 Alpha  occ. eigenvalues --   -0.44020  -0.43939  -0.43551  -0.43496  -0.43386
 Alpha  occ. eigenvalues --   -0.43384  -0.43027  -0.42928  -0.42899  -0.42700
 Alpha  occ. eigenvalues --   -0.42654  -0.42554  -0.42009  -0.41964  -0.41704
 Alpha  occ. eigenvalues --   -0.41668  -0.41535  -0.41457  -0.41141  -0.40988
 Alpha  occ. eigenvalues --   -0.40870  -0.40823  -0.40722  -0.40697  -0.40570
 Alpha  occ. eigenvalues --   -0.40493  -0.40236  -0.40225  -0.39439  -0.39427
 Alpha  occ. eigenvalues --   -0.38468  -0.38351  -0.37750  -0.37651  -0.37319
 Alpha  occ. eigenvalues --   -0.37266  -0.37265  -0.37198  -0.36768  -0.36715
 Alpha  occ. eigenvalues --   -0.36216  -0.36193  -0.34286  -0.34253  -0.33859
 Alpha  occ. eigenvalues --   -0.33773  -0.33186  -0.33175  -0.31344  -0.31275
 Alpha  occ. eigenvalues --   -0.31035  -0.30972  -0.30029  -0.29953  -0.29449
 Alpha  occ. eigenvalues --   -0.29327  -0.29321  -0.29211  -0.24080  -0.24036
 Alpha  occ. eigenvalues --   -0.21127  -0.21117
 Alpha virt. eigenvalues --   -0.08792  -0.08774  -0.01749  -0.01684  -0.00058
 Alpha virt. eigenvalues --   -0.00029   0.02200   0.02208   0.03124   0.03228
 Alpha virt. eigenvalues --    0.04718   0.04731   0.05096   0.05168   0.06175

 Mulliken charges:
               1
     1  Mg   0.838783
     2  C   -0.002974
     3  C   -0.094117
     4  C   -0.045864
     5  C   -0.063934
     6  N   -0.256775
     7  C   -0.052481
     8  C   -0.014029
     9  C   -0.086993
    10  C    0.046308
    11  C    0.104811
    12  C    0.053481
    13  C   -0.071787
    14  H    0.036072
    15  N   -0.433143
    16  C    0.168396
    17  C   -0.177153
    18  C   -0.004010
    19  C    0.148725
    20  C    0.110179
    21  C    0.012292
    22  O   -0.249608
    23  C    0.062473
    24  N   -0.341143
    25  C    0.041234
    26  C   -0.028170
    27  C   -0.023991
    28  C    0.074821
    29  C    0.076172
    30  C    0.035136
    31  C   -0.004511
    32  N   -0.310477
    33  C    0.080416
    34  C   -0.169699
    35  C    0.008357
    36  C    0.082973
    37  C    0.127309
    38  C    0.046110
    39  O   -0.188449
    40  C   -0.005320
    41  C    0.212861
    42  O   -0.257114
    43  O   -0.304790
    44  C    0.157710
    45  H   -0.017609
    46  H   -0.016822
    47  H   -0.041472
    48  H    0.000932
    49  H   -0.004048
    50  H    0.025474
    51  H    0.016458
    52  H    0.016650
    53  H    0.011201
    54  H    0.044115
    55  H    0.017875
    56  H    0.017943
    57  H    0.005863
    58  H    0.026831
    59  H    0.039545
    60  H    0.037347
    61  H    0.035665
    62  H    0.031494
    63  H    0.016567
    64  H    0.009472
    65  H    0.023227
    66  H    0.012540
    67  H    0.004763
    68  H    0.006385
    69  H    0.004745
    70  H    0.008785
    71  H    0.018171
    72  H    0.028962
    73  H    0.047575
    74  H    0.009133
    75  H    0.046011
    76  H    0.035149
    77  H    0.042936
    78  H    0.046384
    79  H    0.053665
    80  Mg   0.837887
    81  C   -0.016812
    82  C   -0.087781
    83  C   -0.045517
    84  C   -0.064870
    85  N   -0.254574
    86  C   -0.049815
    87  C   -0.015116
    88  C   -0.090488
    89  C    0.045761
    90  C    0.114365
    91  C    0.062522
    92  C   -0.077907
    93  H    0.034909
    94  N   -0.423484
    95  C    0.162900
    96  C   -0.174610
    97  C   -0.007823
    98  C    0.152110
    99  C    0.099359
   100  C    0.015557
   101  O   -0.253205
   102  C    0.061205
   103  N   -0.350077
   104  C    0.037504
   105  C   -0.019841
   106  C   -0.034820
   107  C    0.088933
   108  C    0.073657
   109  C    0.034742
   110  C   -0.007675
   111  N   -0.324109
   112  C    0.078443
   113  C   -0.163127
   114  C    0.002276
   115  C    0.096190
   116  C    0.131490
   117  C    0.042395
   118  O   -0.187822
   119  C    0.000931
   120  C    0.211251
   121  O   -0.251039
   122  O   -0.305605
   123  C    0.152031
   124  H   -0.019640
   125  H   -0.015582
   126  H   -0.040447
   127  H   -0.000593
   128  H   -0.004318
   129  H    0.022514
   130  H    0.014425
   131  H    0.016332
   132  H    0.013902
   133  H    0.037669
   134  H    0.020835
   135  H    0.019588
   136  H    0.008780
   137  H    0.026135
   138  H    0.039785
   139  H    0.038246
   140  H    0.036375
   141  H    0.033897
   142  H    0.014384
   143  H    0.012441
   144  H    0.025120
   145  H    0.011652
   146  H    0.005697
   147  H    0.006255
   148  H    0.003660
   149  H    0.010921
   150  H    0.017928
   151  H    0.030109
   152  H    0.046013
   153  H    0.008504
   154  H    0.046997
   155  H    0.035096
   156  H    0.043955
   157  H    0.049502
   158  H    0.053565
 Sum of Mulliken charges =  -0.00000

 Dipole moment (field-independent basis, Debye):
    X=              4.1390    Y=             -2.3166    Z=              7.1734  Tot=              8.5998
 Quadrupole moment (field-independent basis, Debye-Ang):
   XX=           -516.3872   YY=           -539.5531   ZZ=           -459.4054
   XY=            -38.3314   XZ=            -11.1055   YZ=             37.4133

 Normal termination of Gaussian 16 at Sat Sep  4 20:10:23 2021.
