 Gaussian 16, Revision A.03,
 Gaussian 16:  ES64L-G16RevA.03 25-Dec-2016

 -----------------------------------
 #p cam-b3lyp/Def2SVP td=(nstates=5)
 -----------------------------------

 --------------------------------
 TDDFT excited states in gaussian
 --------------------------------
 Symbolic Z-matrix:
 Charge =  0 Multiplicity = 1

                         Standard orientation:
 ---------------------------------------------------------------------
 Center     Atomic      Atomic             Coordinates (Angstroms)
 Number     Number       Type             X           Y           Z
 ---------------------------------------------------------------------
      1         12           0       15.600190   -0.826070    0.269391
      2          6           0       15.859676    2.275461   -1.498485
      3          6           0       16.449511    0.885455    3.096474
      4          6           0       15.821845   -3.615793    1.761012
      5          6           0       15.892208   -2.435040   -2.808206
      6          7           0       16.068854    1.307829    0.626424
      7          6           0       16.074569    2.404737   -0.124530
      8          6           0       16.255658    3.715554    0.697870
      9          6           0       16.983387    3.109505    1.980490
     10          6           0       16.441908    1.692094    1.919908
     11          6           0       18.502549    3.060827    1.852901
     12          6           0       14.886387    4.375191    1.074310
     13          6           0       14.974234    5.815029    1.588610
     14          1           0       13.912731    6.748222    1.242621
     15          7           0       15.586764   -1.252095    2.198425
     16          6           0       15.948875   -0.429415    3.212012
     17          6           0       15.762865   -1.208133    4.455266
     18          6           0       15.444511   -2.611120    4.070072
     19          6           0       15.633192   -2.554367    2.642993
     20          6           0       15.842574   -0.604594    5.823891
     21          6           0       15.045387   -3.814944    4.863570
     22          8           0       15.042106   -4.990472    4.360879
     23          6           0       14.739434   -3.590929    6.288088
     24          7           0       16.044556   -2.756723   -0.388451
     25          6           0       16.016316   -3.796037    0.452983
     26          6           0       16.086331   -5.099239   -0.286411
     27          6           0       15.923123   -4.739068   -1.833470
     28          6           0       15.866350   -3.196259   -1.711874
     29          6           0       17.371004   -5.914765   -0.085061
     30          6           0       14.791248   -5.460058   -2.607714
     31          6           0       13.444963   -5.000236   -2.094706
     32          7           0       15.657427   -0.222395   -1.814679
     33          6           0       15.806777   -1.058251   -2.930794
     34          6           0       15.897402   -0.185020   -4.115414
     35          6           0       15.810556    1.107171   -3.601075
     36          6           0       15.700703    1.045893   -2.182459
     37          6           0       16.098781   -0.617313   -5.455938
     38          6           0       15.809781    2.526178   -3.917734
     39          8           0       15.782545    3.182032   -4.960139
     40          6           0       15.964148    3.342777   -2.559366
     41          6           0       14.927654    4.433174   -2.564259
     42          8           0       13.711438    4.159996   -2.504615
     43          8           0       15.530648    5.620448   -2.398971
     44          6           0       14.555528    6.743010   -2.365061
     45          1           0       16.934496    1.269008    3.996261
     46          1           0       15.793127   -4.604044    2.224665
     47          1           0       15.899381   -2.868607   -3.809915
     48          1           0       16.893621    4.463366    0.226485
     49          1           0       16.662239    3.598867    2.899789
     50          1           0       18.826856    3.331685    0.848221
     51          1           0       18.780693    2.031052    2.078054
     52          1           0       18.975583    3.673668    2.620652
     53          1           0       14.483349    3.885758    1.960920
     54          1           0       14.194251    4.334639    0.232509
     55          1           0       15.950822    6.253435    1.381282
     56          1           0       14.912481    5.793414    2.676691
     57          1           0       16.253732    0.403662    5.793648
     58          1           0       16.578455   -1.181341    6.383847
     59          1           0       14.883285   -0.631909    6.340952
     60          1           0       15.612722   -3.162909    6.780751
     61          1           0       14.387363   -4.546952    6.673985
     62          1           0       13.947382   -2.845604    6.366149
     63          1           0       15.276249   -5.762870    0.013234
     64          1           0       16.823437   -4.968417   -2.404004
     65          1           0       17.195213   -6.923035    0.290698
     66          1           0       18.023414   -5.355847    0.585210
     67          1           0       17.998078   -6.006120   -0.971542
     68          1           0       14.846149   -6.535891   -2.444881
     69          1           0       14.826348   -5.285175   -3.683091
     70          1           0       13.288756   -5.631833   -1.220912
     71          1           0       12.672631   -5.173569   -2.844819
     72          1           0       13.482755   -3.967454   -1.747689
     73          1           0       15.415187   -0.032251   -6.071056
     74          1           0       15.909877   -1.685518   -5.560123
     75          1           0       17.149692   -0.363678   -5.594183
     76          1           0       16.977964    3.741705   -2.546920
     77          1           0       14.854340    7.451201   -3.137984
     78          1           0       14.529001    7.099420   -1.335171
     79          1           0       13.539039    6.508297   -2.682864
     80         12           0      -16.149065   -0.508180   -0.215437
     81          6           0      -13.653388    1.959106    0.534974
     82          6           0      -18.421187    1.552989    1.275754
     83          6           0      -18.280219   -2.846391   -0.457034
     84          6           0      -13.560048   -2.809799   -0.596585
     85          7           0      -15.942601    1.474264    0.743472
     86          6           0      -14.956655    2.341953    0.914892
     87          6           0      -15.405083    3.726803    1.454045
     88          6           0      -16.771117    3.276060    2.167958
     89          6           0      -17.091672    2.042887    1.325818
     90          6           0      -16.579456    2.833629    3.609090
     91          6           0      -15.672102    4.758643    0.302513
     92          6           0      -15.812489    6.211868    0.760975
     93          1           0      -15.298691    7.268144   -0.106652
     94          7           0      -18.130745   -0.454262   -0.122837
     95          6           0      -18.891243    0.466734    0.505412
     96          6           0      -20.285770    0.047904    0.295555
     97          6           0      -20.280685   -1.284487   -0.367333
     98          6           0      -18.866188   -1.596242   -0.321638
     99          6           0      -21.457929    0.920557    0.638985
    100          6           0      -21.370325   -2.142513   -0.935368
    101          8           0      -21.167473   -3.368594   -1.249067
    102          6           0      -22.704940   -1.532559   -1.026314
    103          7           0      -15.969614   -2.578466   -0.279206
    104          6           0      -17.050676   -3.361438   -0.441040
    105          6           0      -16.651949   -4.788284   -0.733465
    106          6           0      -15.071416   -4.751866   -0.974681
    107          6           0      -14.804653   -3.259580   -0.679174
    108          6           0      -16.976435   -5.806897    0.359015
    109          6           0      -14.549729   -5.345322   -2.311958
    110          6           0      -15.001924   -4.484784   -3.469715
    111          7           0      -13.990177   -0.429459   -0.247915
    112          6           0      -13.099160   -1.515064   -0.395011
    113          6           0      -11.731176   -0.979847   -0.238201
    114          6           0      -11.923778    0.386806    0.014125
    115          6           0      -13.314412    0.678694    0.034579
    116          6           0      -10.529467   -1.741261   -0.285744
    117          6           0      -11.267239    1.646897    0.278368
    118          8           0      -10.098477    2.030938    0.294210
    119          6           0      -12.361766    2.697266    0.752835
    120          6           0      -12.145420    3.972445   -0.015037
    121          8           0      -12.318486    4.006038   -1.246108
    122          8           0      -11.983106    4.987467    0.853152
    123          6           0      -11.776214    6.275558    0.139129
    124          1           0      -19.169547    2.016715    1.919008
    125          1           0      -18.969064   -3.671178   -0.653766
    126          1           0      -12.695098   -3.445177   -0.798687
    127          1           0      -14.734678    4.170257    2.180444
    128          1           0      -17.545456    4.029713    2.050625
    129          1           0      -15.535207    2.783019    3.879505
    130          1           0      -17.036407    1.855236    3.679689
    131          1           0      -17.149224    3.481591    4.281287
    132          1           0      -16.678602    4.591199   -0.102037
    133          1           0      -14.914618    4.689924   -0.453865
    134          1           0      -15.461419    6.355152    1.790128
    135          1           0      -16.875514    6.461255    0.803237
    136          1           0      -21.157002    1.771192    1.262896
    137          1           0      -22.117710    0.330438    1.284219
    138          1           0      -22.018334    1.239297   -0.242501
    139          1           0      -23.027546   -1.220326   -0.035907
    140          1           0      -23.328071   -2.268043   -1.538801
    141          1           0      -22.633726   -0.624254   -1.635012
    142          1           0      -17.136450   -5.148683   -1.632620
    143          1           0      -14.529048   -5.325693   -0.208918
    144          1           0      -17.609067   -6.641923    0.003229
    145          1           0      -17.456886   -5.287922    1.177776
    146          1           0      -16.111088   -6.254231    0.845091
    147          1           0      -14.976120   -6.337713   -2.477784
    148          1           0      -13.470326   -5.448665   -2.346703
    149          1           0      -16.016751   -4.844972   -3.663293
    150          1           0      -14.357962   -4.635862   -4.333729
    151          1           0      -15.076813   -3.432410   -3.172153
    152          1           0       -9.824693   -1.173941   -0.879003
    153          1           0      -10.701185   -2.729162   -0.708032
    154          1           0      -10.285142   -1.786749    0.778912
    155          1           0      -12.235358    2.839609    1.826774
    156          1           0      -10.836165    6.697713    0.507609
    157          1           0      -12.695843    6.865045    0.313844
    158          1           0      -11.585360    6.232707   -0.926799
 ---------------------------------------------------------------------

 SCF Done:  E(RCAM-B3LYP) =  -4069.81174021     A.U. after   19 cycles

 Excitation energies and oscillator strengths:

 Excited State   1:      Singlet-A      1.6756 eV  739.94 nm  f=0.3936  <S**2>=0.000
     309 -> 315        0.17351
     311 -> 313        0.68563
     309 <- 315        0.10457
 This state for optimization and/or second-order correction.
 Total Energy, E(TD-HF/TD-DFT) =  -4069.75016314
 Copying the excited state density for this state as the 1-particle RhoCI density.

 Excited State   2:      Singlet-A      1.6799 eV  738.06 nm  f=0.3885  <S**2>=0.000
     310 -> 316        0.17543
     312 -> 314        0.68528
     310 <- 316        0.10506

 Excited State   3:      Singlet-A      2.1861 eV  567.14 nm  f=0.0944  <S**2>=0.000
     309 -> 313        0.64200
     311 -> 315       -0.27295

 Excited State   4:      Singlet-A      2.1925 eV  565.50 nm  f=0.1056  <S**2>=0.000
     310 -> 314        0.64024
     312 -> 316       -0.27808

 Excited State   5:      Singlet-A      3.0455 eV  407.10 nm  f=0.0000  <S**2>=0.000
     312 -> 313        0.70708

 The electronic state is 1-A.
 Alpha  occ. eigenvalues --  -46.87728 -46.87660 -19.26344 -19.26210 -19.19155
 Alpha  occ. eigenvalues --  -19.18945 -19.18748 -19.18714 -19.18100 -19.18048
 Alpha  occ. eigenvalues --  -14.42497 -14.42381 -14.41381 -14.41359 -14.39351
 Alpha  occ. eigenvalues --  -14.39334 -14.38599 -14.38518 -10.39086 -10.39005
 Alpha  occ. eigenvalues --  -10.35391 -10.35381 -10.34320 -10.34225 -10.31750
 Alpha  occ. eigenvalues --  -10.31604 -10.31337 -10.31308 -10.31023 -10.30840
 Alpha  occ. eigenvalues --  -10.30501 -10.30439 -10.30397 -10.30359 -10.30141
 Alpha  occ. eigenvalues --  -10.30140 -10.29894 -10.29853 -10.29562 -10.29436
 Alpha  occ. eigenvalues --  -10.29400 -10.29186 -10.28719 -10.28680 -10.28653
 Alpha  occ. eigenvalues --  -10.28465 -10.28404 -10.28296 -10.28141 -10.28049
 Alpha  occ. eigenvalues --  -10.27999 -10.27725 -10.27669 -10.27659 -10.27517
 Alpha  occ. eigenvalues --  -10.27516 -10.27483 -10.27467 -10.27464 -10.27435
 Alpha  occ. eigenvalues --  -10.27415 -10.27384 -10.27376 -10.27335 -10.27088
 Alpha  occ. eigenvalues --  -10.27048 -10.26691 -10.26631 -10.26415 -10.26344
 Alpha  occ. eigenvalues --  -10.26171 -10.26135 -10.26116 -10.26028 -10.25951
 Alpha  occ. eigenvalues --  -10.25933 -10.25845 -10.25776 -10.25399 -10.25374
 Alpha  occ. eigenvalues --  -10.24871 -10.24764 -10.24727 -10.24720 -10.24689
 Alpha  occ. eigenvalues --  -10.24615  -3.16470  -3.16410  -1.91352  -1.91292
 Alpha  occ. eigenvalues --   -1.90939  -1.90880  -1.90781  -1.90717  -1.16638
 Alpha  occ. eigenvalues --   -1.16559  -1.08654  -1.08558  -1.07149  -1.06966
 Alpha  occ. eigenvalues --   -1.06940  -1.06568  -1.04512  -1.04495  -1.03692
 Alpha  occ. eigenvalues --   -1.03662  -1.03165  -1.03038  -1.02343  -1.02111
 Alpha  occ. eigenvalues --   -0.91986  -0.91903  -0.89493  -0.89452  -0.89151
 Alpha  occ. eigenvalues --   -0.89119  -0.88220  -0.88219  -0.87802  -0.87791
 Alpha  occ. eigenvalues --   -0.87683  -0.87604  -0.87206  -0.87120  -0.84999
 Alpha  occ. eigenvalues --   -0.84913  -0.83875  -0.83869  -0.82931  -0.82900
 Alpha  occ. eigenvalues --   -0.82652  -0.82580  -0.81593  -0.81515  -0.80527
 Alpha  occ. eigenvalues --   -0.80441  -0.78729  -0.78635  -0.77150  -0.77144
 Alpha  occ. eigenvalues --   -0.76897  -0.76865  -0.75854  -0.75838  -0.74832
 Alpha  occ. eigenvalues --   -0.74802  -0.72706  -0.72698  -0.71605  -0.71581
 Alpha  occ. eigenvalues --   -0.69839  -0.69756  -0.68827  -0.68804  -0.67600
 Alpha  occ. eigenvalues --   -0.67573  -0.67199  -0.67150  -0.65271  -0.65217
 Alpha  occ. eigenvalues --   -0.64785  -0.64769  -0.64652  -0.64551  -0.64203
 Alpha  occ. eigenvalues --   -0.64202  -0.62275  -0.62227  -0.60375  -0.60339
 Alpha  occ. eigenvalues --   -0.59796  -0.59736  -0.58992  -0.58919  -0.58435
 Alpha  occ. eigenvalues --   -0.58424  -0.57551  -0.57514  -0.57240  -0.57235
 Alpha  occ. eigenvalues --   -0.56242  -0.56203  -0.55907  -0.55884  -0.55452
 Alpha  occ. eigenvalues --   -0.55450  -0.55271  -0.55246  -0.54485  -0.54454
 Alpha  occ. eigenvalues --   -0.53912  -0.53826  -0.53231  -0.53226  -0.53153
 Alpha  occ. eigenvalues --   -0.53140  -0.52900  -0.52844  -0.52688  -0.52668
 Alpha  occ. eigenvalues --   -0.52399  -0.52369  -0.51881  -0.51847  -0.51658
 Alpha  occ. eigenvalues --   -0.51547  -0.51199  -0.51127  -0.50505  -0.50475
 Alpha  occ. eigenvalues --   -0.49980  -0.49964  -0.49867  -0.49851  -0.49487
 Alpha  occ. eigenvalues --   -0.49446  -0.49201  -0.49146  -0.49103  -0.49028
 Alpha  occ. eigenvalues --   -0.48557  -0.48524  -0.48395  -0.48377  -0.48375
 Alpha  occ. eigenvalues --   -0.48338  -0.47626  -0.47594  -0.47229  -0.47118
 Alpha  occ. eigenvalues --   -0.46729  -0.46708  -0.46553  -0.46486  -0.46291
 Alpha  occ. eigenvalues --   -0.46269  -0.46094  -0.46084  -0.45819  -0.45753
 Alpha  occ. eigenvalues --   -0.45208  -0.45135  -0.44512  -0.44509  -0.44475
 Alpha  occ. eigenvalues --   -0.44439  -0.44127  -0.44076  -0.44076  -0.44020
 Alpha  occ. eigenvalues --   -0.43951  -0.43938  -0.43550  -0.43424  -0.43385
 Alpha  occ. eigenvalues --   -0.43318  -0.42959  -0.42927  -0.42899  -0.42628
 Alpha  occ. eigenvalues --   -0.42585  -0.42552  -0.41963  -0.41940  -0.41668
 Alpha  occ. eigenvalues --   -0.41635  -0.41464  -0.41458  -0.41073  -0.40989
 Alpha  occ. eigenvalues --   -0.40800  -0.40755  -0.40722  -0.40698  -0.40504
 Alpha  occ. eigenvalues --   -0.40492  -0.40226  -0.40163  -0.39424  -0.39372
 Alpha  occ. eigenvalues --   -0.38402  -0.38350  -0.37677  -0.37653  -0.37265
 Alpha  occ. eigenvalues --   -0.37253  -0.37199  -0.37194  -0.36767  -0.36641
 Alpha  occ. eigenvalues --   -0.36215  -0.36123  -0.34252  -0.34217  -0.33857
 Alpha  occ. eigenvalues --   -0.33696  -0.33175  -0.33117  -0.31278  -0.31273
 Alpha  occ. eigenvalues --   -0.30972  -0.30967  -0.29960  -0.29952  -0.29381
 Alpha  occ. eigenvalues --   -0.29326  -0.29253  -0.29210  -0.24035  -0.24012
 Alpha  occ. eigenvalues --   -0.21116  -0.21059
 Alpha virt. eigenvalues --   -0.08791  -0.08706  -0.01683  -0.01682  -0.00028
 Alpha virt. eigenvalues --    0.00010   0.02209   0.02269   0.03197   0.03230
 Alpha virt. eigenvalues --    0.04730   0.04787   0.05170   0.05171   0.06183

 Mulliken charges:
               1
     1  Mg   0.838880
     2  C   -0.002912
     3  C   -0.094092
     4  C   -0.045892
     5  C   -0.063964
     6  N   -0.256763
     7  C   -0.052478
     8  C   -0.014010
     9  C   -0.087025
    10  C    0.046345
    11  C    0.104837
    12  C    0.053472
    13  C   -0.071840
    14  H    0.036265
    15  N   -0.433144
    16  C    0.168436
    17  C   -0.177162
    18  C   -0.004006
    19  C    0.148727
    20  C    0.110196
    21  C    0.012306
    22  O   -0.249665
    23  C    0.062460
    24  N   -0.341158
    25  C    0.041251
    26  C   -0.028144
    27  C   -0.023980
    28  C    0.074852
    29  C    0.076192
    30  C    0.035134
    31  C   -0.004507
    32  N   -0.310478
    33  C    0.080442
    34  C   -0.169697
    35  C    0.008359
    36  C    0.083033
    37  C    0.127298
    38  C    0.046146
    39  O   -0.188432
    40  C   -0.005366
    41  C    0.212866
    42  O   -0.256971
    43  O   -0.304851
    44  C    0.157661
    45  H   -0.017660
    46  H   -0.016878
    47  H   -0.041515
    48  H    0.000896
    49  H   -0.004024
    50  H    0.025435
    51  H    0.016401
    52  H    0.016594
    53  H    0.011267
    54  H    0.044217
    55  H    0.017781
    56  H    0.017940
    57  H    0.005851
    58  H    0.026739
    59  H    0.039608
    60  H    0.037279
    61  H    0.035620
    62  H    0.031594
    63  H    0.016569
    64  H    0.009389
    65  H    0.023161
    66  H    0.012501
    67  H    0.004687
    68  H    0.006301
    69  H    0.004715
    70  H    0.008781
    71  H    0.018223
    72  H    0.029051
    73  H    0.047628
    74  H    0.009107
    75  H    0.045930
    76  H    0.035080
    77  H    0.042900
    78  H    0.046394
    79  H    0.053813
    80  Mg   0.837871
    81  C   -0.016812
    82  C   -0.087791
    83  C   -0.045514
    84  C   -0.064889
    85  N   -0.254580
    86  C   -0.049855
    87  C   -0.015062
    88  C   -0.090518
    89  C    0.045764
    90  C    0.114380
    91  C    0.062536
    92  C   -0.077909
    93  H    0.034961
    94  N   -0.423493
    95  C    0.162930
    96  C   -0.174638
    97  C   -0.007802
    98  C    0.152114
    99  C    0.099370
   100  C    0.015561
   101  O   -0.253181
   102  C    0.061193
   103  N   -0.350064
   104  C    0.037514
   105  C   -0.019837
   106  C   -0.034819
   107  C    0.088927
   108  C    0.073663
   109  C    0.034733
   110  C   -0.007690
   111  N   -0.324144
   112  C    0.078472
   113  C   -0.163094
   114  C    0.002264
   115  C    0.096201
   116  C    0.131477
   117  C    0.042414
   118  O   -0.187768
   119  C    0.000898
   120  C    0.211285
   121  O   -0.250964
   122  O   -0.305658
   123  C    0.152001
   124  H   -0.019690
   125  H   -0.015576
   126  H   -0.040406
   127  H   -0.000668
   128  H   -0.004321
   129  H    0.022441
   130  H    0.014408
   131  H    0.016256
   132  H    0.013924
   133  H    0.037715
   134  H    0.020754
   135  H    0.019581
   136  H    0.008750
   137  H    0.026120
   138  H    0.039811
   139  H    0.038237
   140  H    0.036403
   141  H    0.033914
   142  H    0.014420
   143  H    0.012412
   144  H    0.025143
   145  H    0.011606
   146  H    0.005660
   147  H    0.006267
   148  H    0.003700
   149  H    0.010925
   150  H    0.018004
   151  H    0.030104
   152  H    0.046134
   153  H    0.008554
   154  H    0.046923
   155  H    0.034991
   156  H    0.043942
   157  H    0.049459
   158  H    0.053658
 Sum of Mulliken charges =  -0.00000

 Dipole moment (field-independent basis, Debye):
    X=             -1.6290    Y=              1.6351    Z=              6.5372  Tot=              6.9327
 Quadrupole moment (field-independent basis, Debye-Ang):
   XX=           -354.5589   YY=           -479.0993   ZZ=           -509.2163
   XY=            -35.4964   XZ=             21.0326   YZ=             44.9179

 Normal termination of Gaussian 16 at Sun Sep 12 16:29:10 2021.
