 Gaussian 16, Revision A.03,
 Gaussian 16:  ES64L-G16RevA.03 25-Dec-2016

 -----------------------------------
 #p cam-b3lyp/Def2SVP td=(nstates=5)
 -----------------------------------

 --------------------------------
 TDDFT excited states in gaussian
 --------------------------------
 Symbolic Z-matrix:
 Charge =  0 Multiplicity = 1

                         Standard orientation:
 ---------------------------------------------------------------------
 Center     Atomic      Atomic             Coordinates (Angstroms)
 Number     Number       Type             X           Y           Z
 ---------------------------------------------------------------------
      1         12           0        4.071030   -1.574976    0.360639
      2          6           0        5.003979    1.829998   -0.229250
      3          6           0        4.767305   -1.038667    3.657704
      4          6           0        3.691375   -4.687441    0.835030
      5          6           0        4.542285   -2.139691   -3.045925
      6          7           0        4.785996    0.212528    1.453479
      7          6           0        5.048451    1.472348    1.120103
      8          6           0        5.301854    2.396541    2.348528
      9          6           0        5.757000    1.292283    3.404679
     10          6           0        5.032635    0.089609    2.826064
     11          6           0        7.257037    1.016317    3.389454
     12          6           0        4.002218    3.134574    2.815415
     13          6           0        4.223927    4.294038    3.791039
     14          1           0        3.362086    5.462706    3.697258
     15          7           0        3.738058   -2.586069    2.024872
     16          6           0        4.073903   -2.209573    3.282148
     17          6           0        3.613708   -3.298603    4.170357
     18          6           0        3.153834   -4.423887    3.309923
     19          6           0        3.538723   -3.948276    2.005687
     20          6           0        3.593742   -3.189114    5.664132
     21          6           0        2.484656   -5.726492    3.615788
     22          8           0        2.381890   -6.658856    2.747047
     23          6           0        2.025016   -5.919087    5.003116
     24          7           0        4.320770   -3.240308   -0.873028
     25          6           0        4.032254   -4.471461   -0.437134
     26          6           0        4.015030   -5.459996   -1.565159
     27          6           0        4.114084   -4.600805   -2.907445
     28          6           0        4.261381   -3.194060   -2.276856
     29          6           0        5.131893   -6.512794   -1.549534
     30          6           0        3.005639   -4.821687   -3.967152
     31          6           0        1.681786   -4.317366   -3.437838
     32          7           0        4.493054   -0.356823   -1.385512
     33          6           0        4.670694   -0.804183   -2.702701
     34          6           0        5.042902    0.371075   -3.511588
     35          6           0        5.072300    1.424369   -2.599692
     36          6           0        4.765210    0.933169   -1.298650
     37          6           0        5.359092    0.361699   -4.898804
     38          6           0        5.315812    2.846114   -2.417488
     39          8           0        5.522423    3.794683   -3.175790
     40          6           0        5.400727    3.143782   -0.855435
     41          6           0        4.539919    4.345132   -0.574227
     42          8           0        3.300352    4.289225   -0.707323
     43          8           0        5.277823    5.289188    0.029757
     44          6           0        4.476561    6.497085    0.363104
     45          1           0        5.176521   -1.056308    4.669718
     46          1           0        3.460419   -5.750144    0.933823
     47          1           0        4.622307   -2.223935   -4.131260
     48          1           0        6.097145    3.129125    2.209756
     49          1           0        5.388075    1.510914    4.406586
     50          1           0        7.748600    1.531777    2.564477
     51          1           0        7.353164   -0.063564    3.274956
     52          1           0        7.704870    1.256391    4.354123
     53          1           0        3.418240    2.467584    3.449572
     54          1           0        3.430820    3.489828    1.957146
     55          1           0        5.271830    4.593750    3.822363
     56          1           0        4.014067    3.936885    4.799305
     57          1           0        4.144347   -2.314791    6.009008
     58          1           0        4.158167   -4.036384    6.053061
     59          1           0        2.579616   -3.208503    6.063514
     60          1           0        2.876066   -5.834506    5.679215
     61          1           0        1.491986   -6.869143    5.014140
     62          1           0        1.343726   -5.109028    5.265029
     63          1           0        3.085993   -6.028556   -1.572721
     64          1           0        5.041075   -4.792581   -3.448356
     65          1           0        4.765671   -7.539722   -1.551639
     66          1           0        5.761072   -6.323764   -0.680228
     67          1           0        5.853000   -6.426272   -2.361898
     68          1           0        2.884663   -5.884591   -4.173417
     69          1           0        3.209441   -4.321226   -4.913859
     70          1           0        1.321385   -5.156644   -2.844075
     71          1           0        1.000545   -4.100657   -4.261342
     72          1           0        1.819025   -3.474186   -2.760565
     73          1           0        4.854540    1.225008   -5.332500
     74          1           0        5.035991   -0.565119   -5.372320
     75          1           0        6.444332    0.454108   -4.859179
     76          1           0        6.449991    3.329803   -0.628362
     77          1           0        4.974145    7.349875   -0.098840
     78          1           0        4.362805    6.503981    1.447270
     79          1           0        3.489056    6.562019   -0.095106
     80         12           0       -4.726101    0.164870   -0.450091
     81          6           0       -2.712018    3.131746   -0.592148
     82          6           0       -5.259913    0.865031    2.845271
     83          6           0       -6.129012   -2.668001   -0.177849
     84          6           0       -3.133399   -0.888562   -3.365443
     85          7           0       -4.023482    1.814736    0.844724
     86          6           0       -3.313341    2.918363    0.665763
     87          6           0       -3.310108    3.885134    1.880223
     88          6           0       -3.638407    2.820007    3.036340
     89          6           0       -4.385925    1.779483    2.204954
     90          6           0       -2.398171    2.163820    3.619916
     91          6           0       -4.427958    4.981162    1.774689
     92          6           0       -4.287948    6.139901    2.764379
     93          1           0       -4.681545    7.477471    2.330234
     94          7           0       -5.963565   -0.527281    0.938499
     95          6           0       -6.063149   -0.113261    2.219107
     96          6           0       -7.105123   -0.950950    2.832887
     97          6           0       -7.496574   -2.003392    1.856240
     98          6           0       -6.508540   -1.781612    0.819563
     99          6           0       -7.685132   -0.665770    4.187764
    100          6           0       -8.572966   -3.046261    1.861036
    101          8           0       -8.580784   -4.009747    1.015773
    102          6           0       -9.565247   -2.959263    2.942363
    103          7           0       -4.497254   -1.626642   -1.479866
    104          6           0       -5.269245   -2.690432   -1.196473
    105          6           0       -5.116969   -3.769020   -2.242346
    106          6           0       -4.261545   -3.107352   -3.420494
    107          6           0       -3.979037   -1.728545   -2.784517
    108          6           0       -4.433246   -5.054638   -1.777463
    109          6           0       -4.875585   -3.151723   -4.846562
    110          6           0       -6.106703   -2.276395   -4.905848
    111          7           0       -3.337227    1.027670   -1.862407
    112          6           0       -2.778541    0.403471   -2.999215
    113          6           0       -1.802702    1.348711   -3.579464
    114          6           0       -1.844918    2.456852   -2.719963
    115          6           0       -2.766159    2.210832   -1.666264
    116          6           0       -0.989985    1.107869   -4.722970
    117          6           0       -1.311804    3.774476   -2.458501
    118          8           0       -0.561035    4.542602   -3.058558
    119          6           0       -1.756173    4.218859   -0.998552
    120          6           0       -2.287311    5.623642   -1.082115
    121          8           0       -3.326521    5.869575   -1.719437
    122          8           0       -1.607575    6.403623   -0.221908
    123          6           0       -2.105558    7.804465   -0.260295
    124          1           0       -5.305221    0.866791    3.934693
    125          1           0       -6.666111   -3.619204   -0.192708
    126          1           0       -2.667589   -1.102871   -4.329684
    127          1           0       -2.358829    4.365190    2.076156
    128          1           0       -4.293173    3.246392    3.791873
    129          1           0       -1.505088    2.436268    3.077409
    130          1           0       -2.570660    1.097562    3.553582
    131          1           0       -2.318498    2.390409    4.686994
    132          1           0       -5.380060    4.555676    2.117032
    133          1           0       -4.491728    5.365331    0.775197
    134          1           0       -3.296647    6.164162    3.233075
    135          1           0       -4.974219    5.969547    3.597466
    136          1           0       -7.084792    0.071253    4.735302
    137          1           0       -7.589955   -1.584747    4.776221
    138          1           0       -8.738765   -0.381902    4.143642
    139          1           0       -9.058824   -3.018278    3.902835
    140          1           0      -10.302708   -3.734464    2.725325
    141          1           0      -10.044361   -1.974789    2.899169
    142          1           0       -6.081885   -4.067397   -2.633495
    143          1           0       -3.286976   -3.602145   -3.543849
    144          1           0       -5.051846   -5.958691   -1.932679
    145          1           0       -4.175105   -4.945321   -0.732499
    146          1           0       -3.465709   -5.254506   -2.234763
    147          1           0       -5.204127   -4.166057   -5.086036
    148          1           0       -4.184114   -2.845140   -5.624291
    149          1           0       -6.891352   -2.926828   -4.507918
    150          1           0       -6.319486   -1.983562   -5.932009
    151          1           0       -6.013531   -1.419755   -4.228241
    152          1           0       -1.014887    2.010834   -5.318394
    153          1           0       -1.343719    0.248131   -5.288200
    154          1           0       -0.027772    0.914708   -4.241196
    155          1           0       -0.878925    4.150524   -0.354089
    156          1           0       -1.243702    8.444173   -0.473965
    157          1           0       -2.624324    7.963631    0.703708
    158          1           0       -2.775865    8.076163   -1.067348
 ---------------------------------------------------------------------

 SCF Done:  E(RCAM-B3LYP) =  -4069.80994347     A.U. after   19 cycles

 Excitation energies and oscillator strengths:

 Excited State   1:      Singlet-A      1.6455 eV  753.49 nm  f=0.0604  <S**2>=0.000
     309 -> 315       -0.11555
     310 -> 316       -0.11951
     311 -> 313       -0.47658
     312 -> 314        0.49585
 This state for optimization and/or second-order correction.
 Total Energy, E(TD-HF/TD-DFT) =  -4069.74947333
 Copying the excited state density for this state as the 1-particle RhoCI density.

 Excited State   2:      Singlet-A      1.7079 eV  725.95 nm  f=0.6493  <S**2>=0.000
     309 -> 315        0.13173
     310 -> 316       -0.12552
     311 -> 313        0.49304
     312 -> 314        0.47405

 Excited State   3:      Singlet-A      2.1810 eV  568.48 nm  f=0.0060  <S**2>=0.000
     309 -> 313        0.37018
     310 -> 314        0.52792
     311 -> 315       -0.15373
     312 -> 316        0.22094

 Excited State   4:      Singlet-A      2.1975 eV  564.20 nm  f=0.1651  <S**2>=0.000
     309 -> 313        0.52285
     310 -> 314       -0.36513
     311 -> 315       -0.23232
     312 -> 316       -0.16275

 Excited State   5:      Singlet-A      2.3451 eV  528.69 nm  f=0.0000  <S**2>=0.000
     312 -> 313        0.70691

 The electronic state is 1-A.
 Alpha  occ. eigenvalues --  -46.87779 -46.87357 -19.26032 -19.25953 -19.18801
 Alpha  occ. eigenvalues --  -19.18751 -19.18727 -19.18445 -19.18003 -19.17439
 Alpha  occ. eigenvalues --  -14.42440 -14.42216 -14.41438 -14.41055 -14.39383
 Alpha  occ. eigenvalues --  -14.39045 -14.38553 -14.38265 -10.38809 -10.38668
 Alpha  occ. eigenvalues --  -10.35437 -10.35130 -10.34225 -10.33615 -10.31472
 Alpha  occ. eigenvalues --  -10.31429 -10.31377 -10.30987 -10.30892 -10.30737
 Alpha  occ. eigenvalues --  -10.30534 -10.30477 -10.30221 -10.30062 -10.30010
 Alpha  occ. eigenvalues --  -10.29901 -10.29893 -10.29598 -10.29569 -10.29246
 Alpha  occ. eigenvalues --  -10.29158 -10.29063 -10.28755 -10.28612 -10.28501
 Alpha  occ. eigenvalues --  -10.28474 -10.28322 -10.28121 -10.28058 -10.27919
 Alpha  occ. eigenvalues --  -10.27742 -10.27718 -10.27635 -10.27558 -10.27548
 Alpha  occ. eigenvalues --  -10.27501 -10.27476 -10.27391 -10.27364 -10.27293
 Alpha  occ. eigenvalues --  -10.27241 -10.27153 -10.27142 -10.27121 -10.27011
 Alpha  occ. eigenvalues --  -10.26760 -10.26481 -10.26478 -10.26417 -10.26292
 Alpha  occ. eigenvalues --  -10.26230 -10.26209 -10.26019 -10.25957 -10.25867
 Alpha  occ. eigenvalues --  -10.25759 -10.25650 -10.25453 -10.25430 -10.25141
 Alpha  occ. eigenvalues --  -10.24860 -10.24769 -10.24768 -10.24547 -10.24487
 Alpha  occ. eigenvalues --  -10.24372  -3.16522  -3.16108  -1.91403  -1.90991
 Alpha  occ. eigenvalues --   -1.90990  -1.90831  -1.90579  -1.90415  -1.16375
 Alpha  occ. eigenvalues --   -1.16242  -1.08440  -1.08018  -1.07203  -1.06703
 Alpha  occ. eigenvalues --   -1.06525  -1.06353  -1.04563  -1.04197  -1.03748
 Alpha  occ. eigenvalues --   -1.03357  -1.03208  -1.02726  -1.02388  -1.01790
 Alpha  occ. eigenvalues --   -0.91905  -0.91599  -0.89537  -0.89209  -0.89193
 Alpha  occ. eigenvalues --   -0.88915  -0.88304  -0.87951  -0.87816  -0.87668
 Alpha  occ. eigenvalues --   -0.87431  -0.87390  -0.87262  -0.86840  -0.84983
 Alpha  occ. eigenvalues --   -0.84745  -0.83960  -0.83608  -0.82971  -0.82680
 Alpha  occ. eigenvalues --   -0.82627  -0.82387  -0.81478  -0.81254  -0.80537
 Alpha  occ. eigenvalues --   -0.80128  -0.78774  -0.78327  -0.77221  -0.76911
 Alpha  occ. eigenvalues --   -0.76882  -0.76622  -0.75865  -0.75539  -0.74889
 Alpha  occ. eigenvalues --   -0.74516  -0.72750  -0.72380  -0.71646  -0.71285
 Alpha  occ. eigenvalues --   -0.69967  -0.69524  -0.68865  -0.68561  -0.67601
 Alpha  occ. eigenvalues --   -0.67274  -0.67233  -0.66951  -0.65272  -0.64989
 Alpha  occ. eigenvalues --   -0.64814  -0.64579  -0.64470  -0.64353  -0.64274
 Alpha  occ. eigenvalues --   -0.63923  -0.62158  -0.61930  -0.60434  -0.60051
 Alpha  occ. eigenvalues --   -0.59793  -0.59524  -0.58955  -0.58673  -0.58456
 Alpha  occ. eigenvalues --   -0.58085  -0.57464  -0.57245  -0.57105  -0.56898
 Alpha  occ. eigenvalues --   -0.56271  -0.55886  -0.55844  -0.55558  -0.55490
 Alpha  occ. eigenvalues --   -0.55299  -0.55155  -0.54936  -0.54433  -0.54173
 Alpha  occ. eigenvalues --   -0.53893  -0.53667  -0.53276  -0.53198  -0.52935
 Alpha  occ. eigenvalues --   -0.52853  -0.52834  -0.52754  -0.52598  -0.52473
 Alpha  occ. eigenvalues --   -0.52428  -0.52159  -0.51839  -0.51604  -0.51485
 Alpha  occ. eigenvalues --   -0.51401  -0.51140  -0.50836  -0.50585  -0.50239
 Alpha  occ. eigenvalues --   -0.50069  -0.49912  -0.49734  -0.49604  -0.49495
 Alpha  occ. eigenvalues --   -0.49222  -0.49146  -0.49068  -0.48896  -0.48764
 Alpha  occ. eigenvalues --   -0.48525  -0.48437  -0.48366  -0.48235  -0.48093
 Alpha  occ. eigenvalues --   -0.47974  -0.47670  -0.47308  -0.47266  -0.46843
 Alpha  occ. eigenvalues --   -0.46791  -0.46548  -0.46431  -0.46335  -0.46306
 Alpha  occ. eigenvalues --   -0.46100  -0.45977  -0.45754  -0.45722  -0.45461
 Alpha  occ. eigenvalues --   -0.45206  -0.44922  -0.44525  -0.44484  -0.44258
 Alpha  occ. eigenvalues --   -0.44153  -0.44137  -0.44084  -0.43931  -0.43836
 Alpha  occ. eigenvalues --   -0.43795  -0.43567  -0.43411  -0.43368  -0.43247
 Alpha  occ. eigenvalues --   -0.43081  -0.42986  -0.42724  -0.42600  -0.42517
 Alpha  occ. eigenvalues --   -0.42467  -0.42294  -0.42017  -0.41703  -0.41642
 Alpha  occ. eigenvalues --   -0.41535  -0.41252  -0.41205  -0.41114  -0.40890
 Alpha  occ. eigenvalues --   -0.40828  -0.40688  -0.40580  -0.40477  -0.40463
 Alpha  occ. eigenvalues --   -0.40271  -0.40218  -0.40008  -0.39522  -0.39200
 Alpha  occ. eigenvalues --   -0.38497  -0.38101  -0.37767  -0.37423  -0.37332
 Alpha  occ. eigenvalues --   -0.37253  -0.36995  -0.36918  -0.36574  -0.36416
 Alpha  occ. eigenvalues --   -0.36068  -0.35915  -0.34258  -0.33937  -0.33529
 Alpha  occ. eigenvalues --   -0.33465  -0.33126  -0.32858  -0.31331  -0.31006
 Alpha  occ. eigenvalues --   -0.31003  -0.30658  -0.29860  -0.29420  -0.29341
 Alpha  occ. eigenvalues --   -0.29260  -0.29012  -0.28808  -0.24055  -0.23717
 Alpha  occ. eigenvalues --   -0.21109  -0.20808
 Alpha virt. eigenvalues --   -0.08743  -0.08458  -0.01738  -0.01391  -0.00028
 Alpha virt. eigenvalues --    0.00282   0.02285   0.02614   0.02983   0.03572
 Alpha virt. eigenvalues --    0.04713   0.04993   0.05330   0.05594   0.06147

 Mulliken charges:
               1
     1  Mg   0.838262
     2  C   -0.002574
     3  C   -0.094703
     4  C   -0.045941
     5  C   -0.065019
     6  N   -0.256450
     7  C   -0.053106
     8  C   -0.013463
     9  C   -0.086840
    10  C    0.045684
    11  C    0.104847
    12  C    0.053587
    13  C   -0.071188
    14  H    0.035120
    15  N   -0.433081
    16  C    0.167973
    17  C   -0.177649
    18  C   -0.004190
    19  C    0.148660
    20  C    0.110312
    21  C    0.012287
    22  O   -0.249766
    23  C    0.062590
    24  N   -0.341042
    25  C    0.040977
    26  C   -0.028160
    27  C   -0.023846
    28  C    0.074960
    29  C    0.076159
    30  C    0.035298
    31  C   -0.004860
    32  N   -0.310687
    33  C    0.079962
    34  C   -0.170042
    35  C    0.009914
    36  C    0.083086
    37  C    0.126608
    38  C    0.049494
    39  O   -0.185103
    40  C   -0.006511
    41  C    0.213623
    42  O   -0.252390
    43  O   -0.305997
    44  C    0.156113
    45  H   -0.017960
    46  H   -0.017102
    47  H   -0.041754
    48  H    0.001529
    49  H   -0.004843
    50  H    0.025764
    51  H    0.016500
    52  H    0.016362
    53  H    0.009368
    54  H    0.044238
    55  H    0.018633
    56  H    0.016837
    57  H    0.005372
    58  H    0.026755
    59  H    0.038497
    60  H    0.037171
    61  H    0.035736
    62  H    0.030959
    63  H    0.016063
    64  H    0.009748
    65  H    0.023103
    66  H    0.012790
    67  H    0.004741
    68  H    0.006328
    69  H    0.004656
    70  H    0.008742
    71  H    0.015086
    72  H    0.030151
    73  H    0.050055
    74  H    0.008147
    75  H    0.046090
    76  H    0.034694
    77  H    0.042741
    78  H    0.044042
    79  H    0.058383
    80  Mg   0.836323
    81  C   -0.016316
    82  C   -0.088211
    83  C   -0.045866
    84  C   -0.065958
    85  N   -0.254065
    86  C   -0.050102
    87  C   -0.014617
    88  C   -0.090525
    89  C    0.045000
    90  C    0.114088
    91  C    0.062730
    92  C   -0.077055
    93  H    0.034230
    94  N   -0.423252
    95  C    0.162065
    96  C   -0.175698
    97  C   -0.008537
    98  C    0.151543
    99  C    0.099822
   100  C    0.014980
   101  O   -0.253992
   102  C    0.061468
   103  N   -0.350203
   104  C    0.037207
   105  C   -0.019605
   106  C   -0.034880
   107  C    0.089811
   108  C    0.073657
   109  C    0.034881
   110  C   -0.007499
   111  N   -0.324616
   112  C    0.078818
   113  C   -0.163660
   114  C    0.005004
   115  C    0.094754
   116  C    0.130952
   117  C    0.049463
   118  O   -0.179462
   119  C   -0.001267
   120  C    0.210606
   121  O   -0.252601
   122  O   -0.304365
   123  C    0.152667
   124  H   -0.021453
   125  H   -0.016305
   126  H   -0.041373
   127  H   -0.000203
   128  H   -0.005451
   129  H    0.023754
   130  H    0.013653
   131  H    0.013556
   132  H    0.013598
   133  H    0.038087
   134  H    0.019681
   135  H    0.018791
   136  H    0.007617
   137  H    0.024771
   138  H    0.038862
   139  H    0.037615
   140  H    0.035595
   141  H    0.033503
   142  H    0.013734
   143  H    0.011906
   144  H    0.024408
   145  H    0.012456
   146  H    0.005413
   147  H    0.005560
   148  H    0.002739
   149  H    0.010789
   150  H    0.017373
   151  H    0.030648
   152  H    0.046581
   153  H    0.005582
   154  H    0.051645
   155  H    0.045271
   156  H    0.042419
   157  H    0.047735
   158  H    0.053197
 Sum of Mulliken charges =  -0.00000

 Dipole moment (field-independent basis, Debye):
    X=              1.5019    Y=             -1.3401    Z=              7.8986  Tot=              8.1511
 Quadrupole moment (field-independent basis, Debye-Ang):
   XX=           -509.4664   YY=           -530.1281   ZZ=           -463.9678
   XY=            -19.6877   XZ=              1.5130   YZ=             55.3953

 Normal termination of Gaussian 16 at Fri Sep 10 02:59:56 2021.
