 Gaussian 16, Revision A.03,
 Gaussian 16:  ES64L-G16RevA.03 25-Dec-2016

 -----------------------------------
 #p cam-b3lyp/Def2SVP td=(nstates=5)
 -----------------------------------

 --------------------------------
 TDDFT excited states in gaussian
 --------------------------------
 Symbolic Z-matrix:
 Charge =  0 Multiplicity = 1

                         Standard orientation:
 ---------------------------------------------------------------------
 Center     Atomic      Atomic             Coordinates (Angstroms)
 Number     Number       Type             X           Y           Z
 ---------------------------------------------------------------------
      1         12           0       16.044383   -0.635278    0.234233
      2          6           0       16.246041    2.513594   -1.455783
      3          6           0       16.891803    1.015806    3.097599
      4          6           0       16.317212   -3.458562    1.652419
      5          6           0       16.334718   -2.161138   -2.885561
      6          7           0       16.485677    1.495347    0.642086
      7          6           0       16.469958    2.610961   -0.080637
      8          6           0       16.639023    3.902904    0.773572
      9          6           0       17.385369    3.274925    2.034765
     10          6           0       16.863496    1.851905    1.942104
     11          6           0       18.904009    3.251263    1.894503
     12          6           0       15.263596    4.533084    1.177066
     13          6           0       15.335170    5.960491    1.727284
     14          1           0       14.257889    6.886885    1.413264
     15          7           0       16.052245   -1.110356    2.151807
     16          6           0       16.410717   -0.308611    3.183305
     17          6           0       16.245569   -1.121268    4.407639
     18          6           0       15.944020   -2.518423    3.989164
     19          6           0       16.120577   -2.422711    2.562614
     20          6           0       16.327580   -0.551640    5.790588
     21          6           0       15.568230   -3.747623    4.754658
     22          8           0       15.577570   -4.909917    4.222155
     23          6           0       15.270431   -3.564300    6.186702
     24          7           0       16.510746   -2.542021   -0.476029
     25          6           0       16.503847   -3.602690    0.338783
     26          6           0       16.586403   -4.885536   -0.434153
     27          6           0       16.405883   -4.488524   -1.970234
     28          6           0       16.328293   -2.950276   -1.808859
     29          6           0       17.884018   -5.687440   -0.263402
     30          6           0       15.278208   -5.205729   -2.754062
     31          6           0       13.929668   -4.778422   -2.219325
     32          7           0       16.076589    0.021944   -1.834116
     33          6           0       16.228886   -0.783042   -2.972306
     34          6           0       16.297790    0.121231   -4.134894
     35          6           0       16.196779    1.398553   -3.587087
     36          6           0       16.099037    1.299662   -2.169709
     37          6           0       16.494635   -0.273912   -5.487501
     38          6           0       16.173460    2.824996   -3.867396
     39          8           0       16.128714    3.506682   -4.892479
     40          6           0       16.327029    3.608922   -2.489824
     41          6           0       15.275234    4.684138   -2.459044
     42          8           0       14.063507    4.392146   -2.397209
     43          8           0       15.862691    5.875339   -2.268055
     44          6           0       14.872115    6.982598   -2.198128
     45          1           0       17.378433    1.383263    4.003197
     46          1           0       16.306124   -4.458590    2.090892
     47          1           0       16.340083   -2.568951   -3.898040
     48          1           0       17.262610    4.671517    0.316629
     49          1           0       17.064629    3.736108    2.968659
     50          1           0       19.216494    3.552193    0.894645
     51          1           0       19.198441    2.220186    2.091181
     52          1           0       19.374404    3.851098    2.674057
     53          1           0       14.874541    4.015548    2.053909
     54          1           0       14.565460    4.504040    0.339756
     55          1           0       16.303798    6.417965    1.523846
     56          1           0       15.282345    5.910339    2.814893
     57          1           0       16.724207    0.462843    5.782994
     58          1           0       17.075942   -1.131841    6.330060
     59          1           0       15.372896   -0.605825    6.314014
     60          1           0       16.141460   -3.136484    6.683522
     61          1           0       14.934961   -4.534768    6.550711
     62          1           0       14.468575   -2.832619    6.289749
     63          1           0       15.788171   -5.568102   -0.145439
     64          1           0       17.304800   -4.690379   -2.553223
     65          1           0       17.725462   -6.707350    0.087806
     66          1           0       18.533756   -5.136458    0.415973
     67          1           0       18.505282   -5.747239   -1.156639
     68          1           0       15.349583   -6.284458   -2.619172
     69          1           0       15.302320   -5.003079   -3.824858
     70          1           0       13.789318   -5.434202   -1.360788
     71          1           0       13.153946   -4.943670   -2.967764
     72          1           0       13.955618   -3.754362   -1.846346
     73          1           0       15.797998    0.316751   -6.082299
     74          1           0       16.320015   -1.341719   -5.617497
     75          1           0       17.540732   -0.001824   -5.627160
     76          1           0       17.335177    4.021880   -2.474856
     77          1           0       15.154769    7.714417   -2.954951
     78          1           0       14.848712    7.312293   -1.159302
     79          1           0       13.856558    6.741510   -2.514133
     80         12           0      -15.702831   -0.763736    0.011874
     81          6           0      -18.116645    1.891163    0.075687
     82          6           0      -13.283389    1.632364    0.210971
     83          6           0      -13.548665   -3.037639   -0.494473
     84          6           0      -18.194348   -2.810176   -1.311032
     85          7           0      -15.811105    1.442606    0.124069
     86          6           0      -16.784645    2.337206    0.203172
     87          6           0      -16.307327    3.781591    0.512155
     88          6           0      -14.803561    3.660831   -0.038281
     89          6           0      -14.598244    2.157843    0.139280
     90          6           0      -14.675616    3.989021   -1.516546
     91          6           0      -16.332839    4.103946    2.047561
     92          6           0      -16.176618    5.585758    2.396245
     93          1           0      -16.909187    6.111481    3.544907
     94          7           0      -13.749038   -0.782285    0.359648
     95          6           0      -12.924798    0.284034    0.429494
     96          6           0      -11.582461   -0.261096    0.684692
     97          6           0      -11.654083   -1.744906    0.595872
     98          6           0      -13.012008   -1.915212    0.119295
     99          6           0      -10.411083    0.601180    1.055845
    100          6           0      -10.660213   -2.830342    0.879152
    101          8           0      -10.859710   -4.040166    0.505863
    102          6           0       -9.404824   -2.417858    1.523625
    103          7           0      -15.785574   -2.588428   -0.981097
    104          6           0      -14.721397   -3.409858   -1.007767
    105          6           0      -15.097854   -4.773277   -1.536701
    106          6           0      -16.694178   -4.770927   -1.633198
    107          6           0      -16.971176   -3.311833   -1.209282
    108          6           0      -14.506630   -5.145942   -2.896094
    109          6           0      -17.445670   -5.911068   -0.892926
    110          6           0      -17.282623   -5.751345    0.601500
    111          7           0      -17.824437   -0.590408   -0.357946
    112          6           0      -18.670151   -1.558156   -0.943022
    113          6           0      -20.003253   -0.938987   -1.090987
    114          6           0      -19.833435    0.363943   -0.599019
    115          6           0      -18.484383    0.550543   -0.193114
    116          6           0      -21.149096   -1.558390   -1.665000
    117          6           0      -20.486049    1.627278   -0.340616
    118          8           0      -21.645263    2.034861   -0.402490
    119          6           0      -19.373025    2.712642   -0.009610
    120          6           0      -19.805665    3.461115    1.221304
    121          8           0      -19.888230    2.880244    2.317839
    122          8           0      -19.839814    4.777927    0.947054
    123          6           0      -20.252929    5.563379    2.140456
    124          1           0      -12.444622    2.308312    0.042356
    125          1           0      -12.872965   -3.890618   -0.591125
    126          1           0      -19.048732   -3.413975   -1.624310
    127          1           0      -16.837936    4.559695   -0.023380
    128          1           0      -14.108708    4.216930    0.585653
    129          1           0      -15.639183    4.135152   -1.981659
    130          1           0      -14.164520    3.145571   -1.961967
    131          1           0      -14.015008    4.849562   -1.655834
    132          1           0      -15.422297    3.704524    2.512459
    133          1           0      -17.223667    3.717454    2.503259
    134          1           0      -16.318133    6.232170    1.521575
    135          1           0      -15.141310    5.764263    2.696742
    136          1           0      -10.622012    1.663377    0.880747
    137          1           0       -9.604737    0.364941    0.353093
    138          1           0      -10.058456    0.417618    2.073013
    139          1           0       -8.904113   -1.680784    0.900352
    140          1           0       -8.862079   -3.343383    1.725414
    141          1           0       -9.644475   -1.919467    2.469559
    142          1           0      -14.788367   -5.552887   -0.851477
    143          1           0      -17.039656   -4.867039   -2.673022
    144          1           0      -13.917683   -6.082282   -2.874039
    145          1           0      -13.896997   -4.321297   -3.240827
    146          1           0      -15.231200   -5.250242   -3.701898
    147          1           0      -17.011762   -6.880325   -1.150633
    148          1           0      -18.502901   -5.957754   -1.131798
    149          1           0      -16.311252   -6.216233    0.794846
    150          1           0      -18.080117   -6.268420    1.131288
    151          1           0      -17.202677   -4.693565    0.877843
    152          1           0      -21.987709   -1.314150   -1.026584
    153          1           0      -21.016542   -2.634608   -1.754193
    154          1           0      -21.169392   -1.065072   -2.640456
    155          1           0      -19.285727    3.367536   -0.877405
    156          1           0      -21.118815    6.163396    1.843969
    157          1           0      -19.348288    6.110796    2.465613
    158          1           0      -20.653901    5.016793    2.985986
 ---------------------------------------------------------------------

 SCF Done:  E(RCAM-B3LYP) =  -4069.81178422     A.U. after   19 cycles

 Excitation energies and oscillator strengths:

 Excited State   1:      Singlet-A      1.6756 eV  739.94 nm  f=0.3905  <S**2>=0.000
     310 -> 316       -0.17355
     312 -> 314        0.68572
     310 <- 316       -0.10461
 This state for optimization and/or second-order correction.
 Total Energy, E(TD-HF/TD-DFT) =  -4069.75020706
 Copying the excited state density for this state as the 1-particle RhoCI density.

 Excited State   2:      Singlet-A      1.6799 eV  738.06 nm  f=0.3914  <S**2>=0.000
     309 -> 315        0.17549
     311 -> 313        0.68538
     309 <- 315        0.10510

 Excited State   3:      Singlet-A      2.1862 eV  567.13 nm  f=0.0951  <S**2>=0.000
     310 -> 314        0.64209
     312 -> 316        0.27300

 Excited State   4:      Singlet-A      2.1926 eV  565.47 nm  f=0.1049  <S**2>=0.000
     309 -> 313        0.64032
     311 -> 315       -0.27817

 Excited State   5:      Singlet-A      3.0623 eV  404.87 nm  f=0.0000  <S**2>=0.000
     312 -> 313        0.70710

 The electronic state is 1-A.
 Alpha  occ. eigenvalues --  -46.87814 -46.87660 -19.26352 -19.26308 -19.19163
 Alpha  occ. eigenvalues --  -19.19044 -19.18830 -19.18709 -19.18189 -19.18052
 Alpha  occ. eigenvalues --  -14.42497 -14.42468 -14.41466 -14.41359 -14.39420
 Alpha  occ. eigenvalues --  -14.39351 -14.38605 -14.38600 -10.39103 -10.39093
 Alpha  occ. eigenvalues --  -10.35464 -10.35386 -10.34409 -10.34229 -10.31759
 Alpha  occ. eigenvalues --  -10.31705 -10.31423 -10.31309 -10.31022 -10.30927
 Alpha  occ. eigenvalues --  -10.30588 -10.30525 -10.30397 -10.30360 -10.30223
 Alpha  occ. eigenvalues --  -10.30139 -10.29938 -10.29895 -10.29648 -10.29435
 Alpha  occ. eigenvalues --  -10.29400 -10.29271 -10.28769 -10.28718 -10.28655
 Alpha  occ. eigenvalues --  -10.28563 -10.28404 -10.28383 -10.28139 -10.28136
 Alpha  occ. eigenvalues --  -10.28000 -10.27811 -10.27745 -10.27668 -10.27602
 Alpha  occ. eigenvalues --  -10.27518 -10.27516 -10.27498 -10.27483 -10.27465
 Alpha  occ. eigenvalues --  -10.27464 -10.27459 -10.27422 -10.27375 -10.27178
 Alpha  occ. eigenvalues --  -10.27051 -10.26727 -10.26693 -10.26424 -10.26406
 Alpha  occ. eigenvalues --  -10.26252 -10.26198 -10.26138 -10.26036 -10.26022
 Alpha  occ. eigenvalues --  -10.25934 -10.25861 -10.25853 -10.25448 -10.25395
 Alpha  occ. eigenvalues --  -10.24872 -10.24851 -10.24805 -10.24732 -10.24702
 Alpha  occ. eigenvalues --  -10.24689  -3.16557  -3.16410  -1.91439  -1.91292
 Alpha  occ. eigenvalues --   -1.91025  -1.90880  -1.90867  -1.90717  -1.16657
 Alpha  occ. eigenvalues --   -1.16646  -1.08659  -1.08647  -1.07231  -1.06962
 Alpha  occ. eigenvalues --   -1.06948  -1.06666  -1.04599  -1.04494  -1.03778
 Alpha  occ. eigenvalues --   -1.03662  -1.03251  -1.03038  -1.02429  -1.02111
 Alpha  occ. eigenvalues --   -0.91991  -0.91987  -0.89536  -0.89494  -0.89207
 Alpha  occ. eigenvalues --   -0.89150  -0.88303  -0.88220  -0.87888  -0.87794
 Alpha  occ. eigenvalues --   -0.87691  -0.87683  -0.87290  -0.87116  -0.85001
 Alpha  occ. eigenvalues --   -0.84999  -0.83952  -0.83876  -0.82983  -0.82927
 Alpha  occ. eigenvalues --   -0.82667  -0.82651  -0.81606  -0.81597  -0.80615
 Alpha  occ. eigenvalues --   -0.80442  -0.78814  -0.78633  -0.77236  -0.77144
 Alpha  occ. eigenvalues --   -0.76954  -0.76898  -0.75942  -0.75838  -0.74914
 Alpha  occ. eigenvalues --   -0.74802  -0.72792  -0.72699  -0.71690  -0.71580
 Alpha  occ. eigenvalues --   -0.69922  -0.69758  -0.68892  -0.68826  -0.67659
 Alpha  occ. eigenvalues --   -0.67601  -0.67239  -0.67198  -0.65306  -0.65271
 Alpha  occ. eigenvalues --   -0.64872  -0.64770  -0.64654  -0.64639  -0.64286
 Alpha  occ. eigenvalues --   -0.64204  -0.62318  -0.62279  -0.60458  -0.60337
 Alpha  occ. eigenvalues --   -0.59823  -0.59796  -0.59005  -0.58992  -0.58522
 Alpha  occ. eigenvalues --   -0.58425  -0.57605  -0.57555  -0.57326  -0.57236
 Alpha  occ. eigenvalues --   -0.56328  -0.56203  -0.56000  -0.55887  -0.55538
 Alpha  occ. eigenvalues --   -0.55450  -0.55357  -0.55248  -0.54542  -0.54489
 Alpha  occ. eigenvalues --   -0.53914  -0.53912  -0.53316  -0.53240  -0.53226
 Alpha  occ. eigenvalues --   -0.53140  -0.52934  -0.52902  -0.52773  -0.52664
 Alpha  occ. eigenvalues --   -0.52454  -0.52402  -0.51933  -0.51886  -0.51657
 Alpha  occ. eigenvalues --   -0.51636  -0.51214  -0.51201  -0.50588  -0.50470
 Alpha  occ. eigenvalues --   -0.50047  -0.49978  -0.49935  -0.49866  -0.49533
 Alpha  occ. eigenvalues --   -0.49485  -0.49233  -0.49201  -0.49115  -0.49104
 Alpha  occ. eigenvalues --   -0.48612  -0.48558  -0.48477  -0.48463  -0.48376
 Alpha  occ. eigenvalues --   -0.48335  -0.47713  -0.47593  -0.47314  -0.47116
 Alpha  occ. eigenvalues --   -0.46815  -0.46709  -0.46575  -0.46553  -0.46377
 Alpha  occ. eigenvalues --   -0.46270  -0.46180  -0.46086  -0.45841  -0.45823
 Alpha  occ. eigenvalues --   -0.45217  -0.45208  -0.44597  -0.44524  -0.44514
 Alpha  occ. eigenvalues --   -0.44475  -0.44162  -0.44126  -0.44107  -0.44077
 Alpha  occ. eigenvalues --   -0.44038  -0.43937  -0.43554  -0.43515  -0.43403
 Alpha  occ. eigenvalues --   -0.43385  -0.43045  -0.42931  -0.42902  -0.42719
 Alpha  occ. eigenvalues --   -0.42673  -0.42553  -0.42027  -0.41964  -0.41722
 Alpha  occ. eigenvalues --   -0.41669  -0.41553  -0.41458  -0.41159  -0.40988
 Alpha  occ. eigenvalues --   -0.40887  -0.40840  -0.40720  -0.40696  -0.40588
 Alpha  occ. eigenvalues --   -0.40493  -0.40255  -0.40226  -0.39456  -0.39426
 Alpha  occ. eigenvalues --   -0.38485  -0.38350  -0.37769  -0.37654  -0.37337
 Alpha  occ. eigenvalues --   -0.37283  -0.37266  -0.37199  -0.36773  -0.36734
 Alpha  occ. eigenvalues --   -0.36217  -0.36212  -0.34304  -0.34253  -0.33864
 Alpha  occ. eigenvalues --   -0.33793  -0.33204  -0.33175  -0.31360  -0.31269
 Alpha  occ. eigenvalues --   -0.31053  -0.30972  -0.30048  -0.29957  -0.29466
 Alpha  occ. eigenvalues --   -0.29340  -0.29325  -0.29211  -0.24098  -0.24036
 Alpha  occ. eigenvalues --   -0.21145  -0.21116
 Alpha virt. eigenvalues --   -0.08792  -0.08791  -0.01767  -0.01683  -0.00075
 Alpha virt. eigenvalues --   -0.00026   0.02182   0.02207   0.03103   0.03227
 Alpha virt. eigenvalues --    0.04699   0.04730   0.05075   0.05163   0.06156

 Mulliken charges:
               1
     1  Mg   0.838773
     2  C   -0.002983
     3  C   -0.094145
     4  C   -0.045878
     5  C   -0.063933
     6  N   -0.256780
     7  C   -0.052495
     8  C   -0.014008
     9  C   -0.087020
    10  C    0.046332
    11  C    0.104810
    12  C    0.053486
    13  C   -0.071785
    14  H    0.036028
    15  N   -0.433174
    16  C    0.168427
    17  C   -0.177144
    18  C   -0.003985
    19  C    0.148710
    20  C    0.110175
    21  C    0.012291
    22  O   -0.249580
    23  C    0.062472
    24  N   -0.341153
    25  C    0.041278
    26  C   -0.028192
    27  C   -0.023971
    28  C    0.074821
    29  C    0.076153
    30  C    0.035127
    31  C   -0.004510
    32  N   -0.310470
    33  C    0.080398
    34  C   -0.169732
    35  C    0.008346
    36  C    0.082972
    37  C    0.127317
    38  C    0.046096
    39  O   -0.188481
    40  C   -0.005334
    41  C    0.212880
    42  O   -0.257163
    43  O   -0.304773
    44  C    0.157713
    45  H   -0.017586
    46  H   -0.016796
    47  H   -0.041478
    48  H    0.000937
    49  H   -0.004043
    50  H    0.025478
    51  H    0.016473
    52  H    0.016673
    53  H    0.011192
    54  H    0.044079
    55  H    0.017900
    56  H    0.017956
    57  H    0.005871
    58  H    0.026865
    59  H    0.039547
    60  H    0.037365
    61  H    0.035699
    62  H    0.031479
    63  H    0.016579
    64  H    0.009482
    65  H    0.023255
    66  H    0.012553
    67  H    0.004775
    68  H    0.006409
    69  H    0.004730
    70  H    0.008807
    71  H    0.018144
    72  H    0.028941
    73  H    0.047534
    74  H    0.009124
    75  H    0.046023
    76  H    0.035163
    77  H    0.042937
    78  H    0.046397
    79  H    0.053620
    80  Mg   0.837863
    81  C   -0.016827
    82  C   -0.087784
    83  C   -0.045493
    84  C   -0.064880
    85  N   -0.254574
    86  C   -0.049862
    87  C   -0.015094
    88  C   -0.090482
    89  C    0.045739
    90  C    0.114360
    91  C    0.062509
    92  C   -0.077892
    93  H    0.034863
    94  N   -0.423516
    95  C    0.162922
    96  C   -0.174554
    97  C   -0.007766
    98  C    0.152117
    99  C    0.099328
   100  C    0.015594
   101  O   -0.253138
   102  C    0.061188
   103  N   -0.350051
   104  C    0.037536
   105  C   -0.019859
   106  C   -0.034780
   107  C    0.088873
   108  C    0.073644
   109  C    0.034737
   110  C   -0.007678
   111  N   -0.324104
   112  C    0.078437
   113  C   -0.163157
   114  C    0.002233
   115  C    0.096162
   116  C    0.131486
   117  C    0.042355
   118  O   -0.187918
   119  C    0.000939
   120  C    0.211238
   121  O   -0.251027
   122  O   -0.305621
   123  C    0.152034
   124  H   -0.019587
   125  H   -0.015523
   126  H   -0.040477
   127  H   -0.000652
   128  H   -0.004302
   129  H    0.022449
   130  H    0.014462
   131  H    0.016343
   132  H    0.013923
   133  H    0.037656
   134  H    0.020800
   135  H    0.019614
   136  H    0.008800
   137  H    0.026285
   138  H    0.039817
   139  H    0.038352
   140  H    0.036463
   141  H    0.033863
   142  H    0.014412
   143  H    0.012413
   144  H    0.025180
   145  H    0.011684
   146  H    0.005675
   147  H    0.006273
   148  H    0.003629
   149  H    0.010947
   150  H    0.017911
   151  H    0.030099
   152  H    0.045978
   153  H    0.008498
   154  H    0.046929
   155  H    0.035023
   156  H    0.043898
   157  H    0.049503
   158  H    0.053564
 Sum of Mulliken charges =  -0.00000

 Dipole moment (field-independent basis, Debye):
    X=              5.9807    Y=              2.3699    Z=              3.3479  Tot=              7.2521
 Quadrupole moment (field-independent basis, Debye-Ang):
   XX=           -592.9864   YY=           -481.8331   ZZ=           -506.4325
   XY=              7.5002   XZ=             86.0057   YZ=             46.4298

 Normal termination of Gaussian 16 at Sun Sep 12 22:11:20 2021.
