 Gaussian 16, Revision A.03,
 Gaussian 16:  ES64L-G16RevA.03 25-Dec-2016

 -----------------------------------
 #p cam-b3lyp/Def2SVP td=(nstates=5)
 -----------------------------------

 --------------------------------
 TDDFT excited states in gaussian
 --------------------------------
 Symbolic Z-matrix:
 Charge =  0 Multiplicity = 1

                         Standard orientation:
 ---------------------------------------------------------------------
 Center     Atomic      Atomic             Coordinates (Angstroms)
 Number     Number       Type             X           Y           Z
 ---------------------------------------------------------------------
      1         12           0        3.963485    1.159250    0.587673
      2          6           0        4.801773   -1.982349   -0.908937
      3          6           0        4.923095    2.638108   -2.333832
      4          6           0        3.663347    3.964600    2.035620
      5          6           0        4.158627   -0.430674    3.682786
      6          7           0        4.743880    0.326692   -1.309292
      7          6           0        4.962086   -0.898914   -1.775604
      8          6           0        5.304552   -0.929893   -3.295187
      9          6           0        5.859221    0.555923   -3.458564
     10          6           0        5.104634    1.223208   -2.322230
     11          6           0        7.356207    0.679984   -3.193717
     12          6           0        4.038807   -1.169979   -4.185119
     13          6           0        4.325849   -1.537827   -5.643765
     14          1           0        3.444638   -2.481819   -6.314356
     15          7           0        3.781884    2.976679   -0.165204
     16          6           0        4.215746    3.398192   -1.377382
     17          6           0        3.844207    4.826552   -1.469182
     18          6           0        3.328925    5.249188   -0.137282
     19          6           0        3.598721    4.072211    0.648411
     20          6           0        3.946393    5.623734   -2.733227
     21          6           0        2.703681    6.516979    0.352523
     22          8           0        2.541155    6.758474    1.597449
     23          6           0        2.362719    7.520035   -0.672496
     24          7           0        4.131252    1.753155    2.581856
     25          6           0        3.895189    3.017928    2.947381
     26          6           0        3.797180    3.146071    4.438660
     27          6           0        3.774193    1.655130    5.009905
     28          6           0        3.955471    0.888703    3.676489
     29          6           0        4.924611    3.935568    5.118074
     30          6           0        2.584813    1.271166    5.925528
     31          6           0        1.303023    1.257340    5.123082
     32          7           0        4.224465   -0.878386    1.288368
     33          6           0        4.298226   -1.308778    2.621033
     34          6           0        4.587561   -2.754307    2.592763
     35          6           0        4.679028   -3.063137    1.236997
     36          6           0        4.486691   -1.880123    0.467727
     37          6           0        4.788115   -3.586441    3.729322
     38          6           0        4.918941   -4.112672    0.259871
     39          8           0        5.050278   -5.336227    0.316060
     40          6           0        5.128926   -3.432569   -1.164626
     41          6           0        4.279326   -4.180977   -2.155269
     42          8           0        3.033798   -4.141436   -2.088473
     43          8           0        5.052741   -4.626145   -3.157365
     44          6           0        4.266704   -5.352484   -4.190193
     45          1           0        5.414738    3.226982   -3.110657
     46          1           0        3.454674    4.891050    2.574679
     47          1           0        4.149726   -1.009989    4.607863
     48          1           0        6.076415   -1.648018   -3.572581
     49          1           0        5.571652    0.994929   -4.413708
     50          1           0        7.771413   -0.251715   -2.809709
     51          1           0        7.456059    1.474659   -2.454113
     52          1           0        7.879191    1.031374   -4.083542
     53          1           0        3.517637   -0.223922   -4.331472
     54          1           0        3.394027   -1.929677   -3.741898
     55          1           0        5.368920   -1.822250   -5.785242
     56          1           0        4.204526   -0.641594   -6.252244
     57          1           0        4.512624    5.092370   -3.497151
     58          1           0        4.551598    6.501624   -2.507962
     59          1           0        2.969067    5.935697   -3.101797
     60          1           0        3.265608    7.801787   -1.214674
     61          1           0        1.844363    8.321864   -0.147874
     62          1           0        1.695314    7.064146   -1.404401
     63          1           0        2.877890    3.653650    4.727963
     64          1           0        4.655638    1.434325    5.612379
     65          1           0        4.572359    4.781553    5.708779
     66          1           0        5.621065    4.260824    4.345771
     67          1           0        5.574973    3.342574    5.760574
     68          1           0        2.460526    2.010735    6.715804
     69          1           0        2.703393    0.296516    6.399077
     70          1           0        1.003466    2.304763    5.124761
     71          1           0        0.553392    0.636095    5.614325
     72          1           0        1.485195    0.972190    4.086747
     73          1           0        4.238673   -4.507262    3.533950
     74          1           0        4.438619   -3.102470    4.641039
     75          1           0        5.871675   -3.701510    3.706660
     76          1           0        6.190956   -3.509831   -1.395378
     77          1           0        4.713689   -6.340878   -4.297507
     78          1           0        4.242861   -4.709684   -5.070332
     79          1           0        3.243973   -5.617409   -3.919685
     80         12           0       -4.878972   -0.193500   -0.317887
     81          6           0       -2.045758   -2.264566    0.432193
     82          6           0       -2.705390    2.420083   -0.599593
     83          6           0       -7.386084    1.738906   -0.536126
     84          6           0       -6.883650   -2.654613    1.120822
     85          7           0       -2.682577   -0.064601   -0.090947
     86          6           0       -1.704456   -0.928817    0.134320
     87          6           0       -0.277048   -0.345566   -0.044253
     88          6           0       -0.617350    1.203813    0.205716
     89          6           0       -2.084248    1.203574   -0.219597
     90          6           0       -0.544366    1.607533    1.668945
     91          6           0        0.289584   -0.583548   -1.487973
     92          6           0        1.788554   -0.317132   -1.642501
     93          1           0        2.555221   -1.161681   -2.554326
     94          7           0       -5.013775    1.662384   -1.007896
     95          6           0       -4.027201    2.581135   -1.069935
     96          6           0       -4.640505    3.792435   -1.636279
     97          6           0       -6.107013    3.566390   -1.750093
     98          6           0       -6.231260    2.293719   -1.068211
     99          6           0       -3.836581    4.978905   -2.082878
    100          6           0       -7.216098    4.369622   -2.359149
    101          8           0       -8.447859    4.096020   -2.133886
    102          6           0       -6.817678    5.542267   -3.151389
    103          7           0       -6.825335   -0.322372    0.401438
    104          6           0       -7.731089    0.630520    0.119449
    105          6           0       -9.123274    0.191226    0.505742
    106          6           0       -8.995466   -1.357126    0.885026
    107          6           0       -7.468430   -1.530104    0.731345
    108          6           0       -9.760975    0.949136    1.669913
    109          6           0       -9.930439   -2.344960    0.134890
    110          6           0       -9.546935   -2.410162   -1.325946
    111          7           0       -4.580750   -2.192474    0.445784
    112          6           0       -5.551596   -3.037076    1.027332
    113          6           0       -4.849039   -4.248288    1.498275
    114          6           0       -3.504023   -4.012407    1.176158
    115          6           0       -3.374370   -2.735061    0.566993
    116          6           0       -5.449184   -5.348817    2.172658
    117          6           0       -2.162888   -4.548989    1.222562
    118          8           0       -1.669798   -5.628116    1.548284
    119          6           0       -1.141007   -3.387588    0.857484
    120          6           0       -0.168631   -3.926036   -0.155962
    121          8           0       -0.555532   -4.252159   -1.291988
    122          8           0        1.084537   -3.763700    0.306171
    123          6           0        2.085502   -4.272670   -0.668946
    124          1           0       -2.142253    3.347083   -0.488148
    125          1           0       -8.299813    2.318882   -0.685162
    126          1           0       -7.452170   -3.510172    1.491602
    127          1           0        0.448340   -0.689042    0.683500
    128          1           0       -0.031551    1.846986   -0.445827
    129          1           0       -0.390574    0.755779    2.314702
    130          1           0       -1.490417    2.084095    1.890153
    131          1           0        0.220678    2.376361    1.810149
    132          1           0       -0.108531    0.187200   -2.160424
    133          1           0        0.061858   -1.575087   -1.827995
    134          1           0        2.295454   -0.239195   -0.673006
    135          1           0        1.920984    0.668996   -2.094212
    136          1           0       -2.802084    4.922634   -1.722254
    137          1           0       -4.253331    5.856380   -1.576711
    138          1           0       -3.884203    5.137784   -3.162306
    139          1           0       -6.237885    6.219030   -2.528252
    140          1           0       -7.742845    5.935044   -3.577604
    141          1           0       -6.154110    5.210624   -3.957810
    142          1           0       -9.806477    0.293459   -0.328453
    143          1           0       -9.227050   -1.537430    1.945070
    144          1           0      -10.729844    1.415204    1.408839
    145          1           0       -9.059826    1.697339    2.015037
    146          1           0       -9.929370    0.358308    2.568664
    147          1           0      -10.963064   -1.989055    0.169095
    148          1           0       -9.921432   -3.347476    0.549470
    149          1           0      -10.058559   -1.543090   -1.754334
    150          1           0       -9.899329   -3.337273   -1.773507
    151          1           0       -8.469703   -2.255371   -1.457329
    152          1           0       -5.032090   -6.246526    1.736022
    153          1           0       -6.533155   -5.327937    2.081266
    154          1           0       -5.119736   -5.153263    3.196617
    155          1           0       -0.644893   -3.085577    1.780653
    156          1           0        2.703996   -5.004048   -0.139580
    157          1           0        2.596066   -3.376264   -1.068354
    158          1           0        1.719959   -4.866009   -1.498869
 ---------------------------------------------------------------------

 SCF Done:  E(RCAM-B3LYP) =  -4069.61507377     A.U. after   19 cycles

 Excitation energies and oscillator strengths:

 Excited State   1:      Singlet-A      1.6099 eV  770.16 nm  f=0.0626  <S**2>=0.000
     309 -> 315       -0.11114
     311 -> 313        0.61510
     312 -> 314       -0.30943
 This state for optimization and/or second-order correction.
 Total Energy, E(TD-HF/TD-DFT) =  -4069.55591262
 Copying the excited state density for this state as the 1-particle RhoCI density.

 Excited State   2:      Singlet-A      1.6961 eV  731.01 nm  f=0.5980  <S**2>=0.000
     310 -> 317        0.15182
     311 -> 313        0.30584
     312 -> 314        0.61158

 Excited State   3:      Singlet-A      1.9545 eV  634.37 nm  f=0.0001  <S**2>=0.000
     312 -> 313        0.70520

 Excited State   4:      Singlet-A      2.1093 eV  587.80 nm  f=0.0767  <S**2>=0.000
     308 -> 313       -0.19437
     309 -> 313        0.61761
     310 -> 313        0.10056
     311 -> 315        0.23782

 Excited State   5:      Singlet-A      2.1690 eV  571.61 nm  f=0.1241  <S**2>=0.000
     310 -> 314        0.64118
     312 -> 317       -0.25707

 The electronic state is 1-A.
 Alpha  occ. eigenvalues --  -46.88398 -46.86823 -19.28818 -19.20705 -19.20239
 Alpha  occ. eigenvalues --  -19.19457 -19.19274 -19.18036 -19.16754 -19.15534
 Alpha  occ. eigenvalues --  -14.42904 -14.42126 -14.41685 -14.40502 -14.40064
 Alpha  occ. eigenvalues --  -14.39240 -14.38524 -14.37718 -10.42045 -10.36080
 Alpha  occ. eigenvalues --  -10.35767 -10.35417 -10.34733 -10.33337 -10.32808
 Alpha  occ. eigenvalues --  -10.32152 -10.31787 -10.31299 -10.31162 -10.30804
 Alpha  occ. eigenvalues --  -10.30544 -10.30397 -10.30275 -10.30083 -10.29873
 Alpha  occ. eigenvalues --  -10.29832 -10.29551 -10.29544 -10.29441 -10.29428
 Alpha  occ. eigenvalues --  -10.29177 -10.29060 -10.29045 -10.28977 -10.28679
 Alpha  occ. eigenvalues --  -10.28557 -10.28537 -10.28373 -10.28292 -10.28276
 Alpha  occ. eigenvalues --  -10.28094 -10.28070 -10.27959 -10.27932 -10.27731
 Alpha  occ. eigenvalues --  -10.27421 -10.27416 -10.27319 -10.27121 -10.27004
 Alpha  occ. eigenvalues --  -10.26957 -10.26900 -10.26897 -10.26880 -10.26734
 Alpha  occ. eigenvalues --  -10.26658 -10.26635 -10.26519 -10.26406 -10.26206
 Alpha  occ. eigenvalues --  -10.25911 -10.25859 -10.25604 -10.25528 -10.25507
 Alpha  occ. eigenvalues --  -10.25489 -10.25325 -10.25133 -10.25125 -10.24992
 Alpha  occ. eigenvalues --  -10.24952 -10.24873 -10.24835 -10.24216 -10.23926
 Alpha  occ. eigenvalues --  -10.23831  -3.17133  -3.15575  -1.92015  -1.91602
 Alpha  occ. eigenvalues --   -1.91445  -1.90458  -1.90046  -1.89882  -1.19950
 Alpha  occ. eigenvalues --   -1.12925  -1.11589  -1.09841  -1.07853  -1.07209
 Alpha  occ. eigenvalues --   -1.06304  -1.05294  -1.04423  -1.03902  -1.03632
 Alpha  occ. eigenvalues --   -1.03080  -1.03023  -1.02812  -1.02202  -1.01247
 Alpha  occ. eigenvalues --   -0.93186  -0.90784  -0.90258  -0.90090  -0.88888
 Alpha  occ. eigenvalues --   -0.88674  -0.88532  -0.88389  -0.88264  -0.87920
 Alpha  occ. eigenvalues --   -0.87463  -0.86965  -0.86826  -0.86404  -0.86007
 Alpha  occ. eigenvalues --   -0.84868  -0.84098  -0.83780  -0.83530  -0.83102
 Alpha  occ. eigenvalues --   -0.82855  -0.82282  -0.81693  -0.81480  -0.80218
 Alpha  occ. eigenvalues --   -0.79496  -0.79385  -0.78042  -0.77955  -0.77864
 Alpha  occ. eigenvalues --   -0.76866  -0.76518  -0.76275  -0.75548  -0.75335
 Alpha  occ. eigenvalues --   -0.74215  -0.73451  -0.72471  -0.71881  -0.70909
 Alpha  occ. eigenvalues --   -0.70405  -0.69877  -0.69179  -0.68613  -0.68284
 Alpha  occ. eigenvalues --   -0.68045  -0.67127  -0.66592  -0.66173  -0.65964
 Alpha  occ. eigenvalues --   -0.65449  -0.64943  -0.64653  -0.64250  -0.63927
 Alpha  occ. eigenvalues --   -0.63494  -0.63371  -0.61869  -0.61098  -0.60731
 Alpha  occ. eigenvalues --   -0.60582  -0.59964  -0.59591  -0.59222  -0.58946
 Alpha  occ. eigenvalues --   -0.58239  -0.58039  -0.57959  -0.57406  -0.56906
 Alpha  occ. eigenvalues --   -0.56515  -0.56274  -0.56234  -0.55721  -0.55412
 Alpha  occ. eigenvalues --   -0.55010  -0.54970  -0.54733  -0.54660  -0.54356
 Alpha  occ. eigenvalues --   -0.54087  -0.54015  -0.53538  -0.53387  -0.52969
 Alpha  occ. eigenvalues --   -0.52920  -0.52813  -0.52639  -0.52575  -0.52305
 Alpha  occ. eigenvalues --   -0.52172  -0.52056  -0.52033  -0.51839  -0.51190
 Alpha  occ. eigenvalues --   -0.51117  -0.50993  -0.50901  -0.50795  -0.50493
 Alpha  occ. eigenvalues --   -0.50384  -0.50217  -0.49875  -0.49849  -0.49739
 Alpha  occ. eigenvalues --   -0.49302  -0.49273  -0.49171  -0.49065  -0.48758
 Alpha  occ. eigenvalues --   -0.48667  -0.48514  -0.48435  -0.48164  -0.48079
 Alpha  occ. eigenvalues --   -0.47748  -0.47697  -0.47563  -0.47401  -0.47254
 Alpha  occ. eigenvalues --   -0.46994  -0.46878  -0.46779  -0.46457  -0.46227
 Alpha  occ. eigenvalues --   -0.46036  -0.45853  -0.45604  -0.45579  -0.45468
 Alpha  occ. eigenvalues --   -0.45391  -0.45205  -0.45183  -0.44951  -0.44840
 Alpha  occ. eigenvalues --   -0.44714  -0.44464  -0.44359  -0.44319  -0.44044
 Alpha  occ. eigenvalues --   -0.43840  -0.43678  -0.43513  -0.43386  -0.43282
 Alpha  occ. eigenvalues --   -0.43112  -0.43003  -0.42792  -0.42602  -0.42565
 Alpha  occ. eigenvalues --   -0.42306  -0.42179  -0.41909  -0.41878  -0.41778
 Alpha  occ. eigenvalues --   -0.41655  -0.41444  -0.41325  -0.41122  -0.41060
 Alpha  occ. eigenvalues --   -0.40707  -0.40602  -0.40276  -0.40028  -0.39921
 Alpha  occ. eigenvalues --   -0.39859  -0.39513  -0.39473  -0.39069  -0.38907
 Alpha  occ. eigenvalues --   -0.38800  -0.38723  -0.38060  -0.37847  -0.37552
 Alpha  occ. eigenvalues --   -0.37143  -0.36522  -0.36439  -0.35647  -0.35482
 Alpha  occ. eigenvalues --   -0.35045  -0.34586  -0.34038  -0.33541  -0.33367
 Alpha  occ. eigenvalues --   -0.32404  -0.31984  -0.31715  -0.31263  -0.30846
 Alpha  occ. eigenvalues --   -0.30572  -0.30148  -0.30043  -0.29669  -0.28600
 Alpha  occ. eigenvalues --   -0.28505  -0.28274  -0.25516  -0.24278  -0.23064
 Alpha  occ. eigenvalues --   -0.21710  -0.20299
 Alpha virt. eigenvalues --   -0.09519  -0.07919  -0.02441  -0.00887  -0.00880
 Alpha virt. eigenvalues --    0.00737   0.00949   0.01298   0.03241   0.03353
 Alpha virt. eigenvalues --    0.04000   0.04083   0.05277   0.05718   0.05918

 Mulliken charges:
               1
     1  Mg   0.735724
     2  C    0.004233
     3  C   -0.096041
     4  C   -0.048611
     5  C   -0.061333
     6  N   -0.242962
     7  C   -0.090427
     8  C   -0.012434
     9  C   -0.081116
    10  C    0.050743
    11  C    0.105049
    12  C    0.010815
    13  C   -0.058715
    14  H    0.043821
    15  N   -0.429338
    16  C    0.169472
    17  C   -0.178654
    18  C   -0.004336
    19  C    0.148460
    20  C    0.110487
    21  C    0.010692
    22  O   -0.247845
    23  C    0.062918
    24  N   -0.328168
    25  C    0.040799
    26  C   -0.027096
    27  C   -0.024689
    28  C    0.074169
    29  C    0.075820
    30  C    0.037673
    31  C   -0.013610
    32  N   -0.309038
    33  C    0.080325
    34  C   -0.171617
    35  C    0.056382
    36  C    0.089641
    37  C    0.125394
    38  C    0.001155
    39  O   -0.188175
    40  C   -0.017115
    41  C    0.260085
    42  O   -0.244739
    43  O   -0.284835
    44  C    0.149350
    45  H   -0.017585
    46  H   -0.016196
    47  H   -0.039058
    48  H   -0.002957
    49  H   -0.003444
    50  H    0.025483
    51  H    0.019579
    52  H    0.018439
    53  H    0.025137
    54  H    0.072264
    55  H    0.018721
    56  H    0.022180
    57  H    0.006617
    58  H    0.028268
    59  H    0.039452
    60  H    0.038880
    61  H    0.037199
    62  H    0.029686
    63  H    0.017248
    64  H    0.010686
    65  H    0.024467
    66  H    0.012870
    67  H    0.006091
    68  H    0.007508
    69  H    0.006322
    70  H    0.009622
    71  H    0.021692
    72  H    0.030810
    73  H    0.054844
    74  H    0.011531
    75  H    0.046193
    76  H    0.044957
    77  H    0.053146
    78  H    0.054451
    79  H    0.062709
    80  Mg   0.834134
    81  C   -0.013447
    82  C   -0.089323
    83  C   -0.047616
    84  C   -0.068429
    85  N   -0.253158
    86  C   -0.050311
    87  C   -0.021102
    88  C   -0.102500
    89  C    0.044802
    90  C    0.099082
    91  C    0.113516
    92  C   -0.151649
    93  H    0.065878
    94  N   -0.423134
    95  C    0.161072
    96  C   -0.176095
    97  C   -0.010113
    98  C    0.151573
    99  C    0.100361
   100  C    0.014011
   101  O   -0.255485
   102  C    0.061915
   103  N   -0.350958
   104  C    0.036847
   105  C   -0.019041
   106  C   -0.034765
   107  C    0.090301
   108  C    0.074458
   109  C    0.035272
   110  C   -0.007306
   111  N   -0.324173
   112  C    0.079813
   113  C   -0.165708
   114  C    0.004369
   115  C    0.093534
   116  C    0.131827
   117  C    0.037295
   118  O   -0.186090
   119  C    0.015183
   120  C    0.217371
   121  O   -0.277833
   122  O   -0.312745
   123  C    0.135478
   124  H   -0.020547
   125  H   -0.018166
   126  H   -0.042702
   127  H    0.006334
   128  H    0.001445
   129  H    0.031147
   130  H    0.012692
   131  H    0.026243
   132  H    0.000622
   133  H    0.036865
   134  H    0.071880
   135  H    0.037939
   136  H    0.005761
   137  H    0.024297
   138  H    0.035636
   139  H    0.037155
   140  H    0.034115
   141  H    0.032076
   142  H    0.012788
   143  H    0.011021
   144  H    0.023274
   145  H    0.011307
   146  H    0.004021
   147  H    0.004598
   148  H    0.002785
   149  H    0.010085
   150  H    0.016366
   151  H    0.031220
   152  H    0.045735
   153  H    0.006440
   154  H    0.045286
   155  H    0.026526
   156  H    0.035119
   157  H    0.056509
   158  H    0.026892
 Sum of Mulliken charges =  -0.00000

 Dipole moment (field-independent basis, Debye):
    X=              6.9811    Y=              6.0848    Z=             -3.2953  Tot=              9.8296
 Quadrupole moment (field-independent basis, Debye-Ang):
   XX=           -491.8979   YY=           -547.6357   ZZ=           -465.4268
   XY=             23.7739   XZ=            -33.9421   YZ=             -6.5352

 Normal termination of Gaussian 16 at Fri Sep 10 00:00:54 2021.
