 Gaussian 16, Revision A.03,
 Gaussian 16:  ES64L-G16RevA.03 25-Dec-2016

 -----------------------------------
 #p cam-b3lyp/Def2SVP td=(nstates=5)
 -----------------------------------

 --------------------------------
 TDDFT excited states in gaussian
 --------------------------------
 Symbolic Z-matrix:
 Charge =  0 Multiplicity = 1

                         Standard orientation:
 ---------------------------------------------------------------------
 Center     Atomic      Atomic             Coordinates (Angstroms)
 Number     Number       Type             X           Y           Z
 ---------------------------------------------------------------------
      1         12           0       -5.050614   -1.265162    0.242424
      2          6           0       -6.125728    2.108786   -0.279897
      3          6           0       -5.856864   -1.869437   -3.017619
      4          6           0       -4.538643   -4.344716    0.799966
      5          6           0       -5.406048   -0.693077    3.661788
      6          7           0       -5.876450    0.036263   -1.346580
      7          6           0       -6.188622    1.325446   -1.434482
      8          6           0       -6.516807    1.784015   -2.886853
      9          6           0       -6.947309    0.378162   -3.503492
     10          6           0       -6.152780   -0.540417   -2.591976
     11          6           0       -8.431929    0.069539   -3.338700
     12          6           0       -5.265635    2.372802   -3.621448
     13          6           0       -5.566559    3.137730   -4.913611
     14          1           0       -4.758035    4.301920   -5.242701
     15          7           0       -4.714323   -2.755354   -1.010208
     16          6           0       -5.100029   -2.826000   -2.306945
     17          6           0       -4.612831   -4.129698   -2.806636
     18          6           0       -4.078680   -4.891849   -1.643922
     19          6           0       -4.451213   -4.027299   -0.553441
     20          6           0       -4.636940   -4.517525   -4.253273
     21          6           0       -3.357652   -6.197907   -1.532278
     22          8           0       -3.188885   -6.787965   -0.410706
     23          6           0       -2.925847   -6.820117   -2.796968
     24          7           0       -5.190136   -2.439181    1.962845
     25          6           0       -4.855949   -3.734145    1.943541
     26          6           0       -4.763221   -4.294867    3.331681
     27          6           0       -4.867234   -3.045709    4.320891
     28          6           0       -5.096396   -1.931204    3.270350
     29          6           0       -5.829773   -5.333043    3.706741
     30          6           0       -3.722444   -2.865859    5.349252
     31          6           0       -2.437812   -2.517291    4.631393
     32          7           0       -5.483357    0.444218    1.508046
     33          6           0       -5.605534    0.449500    2.905086
     34          6           0       -6.010961    1.811565    3.298119
     35          6           0       -6.113234    2.504124    2.093234
     36          6           0       -5.817578    1.623155    1.013987
     37          6           0       -6.290102    2.248256    4.623191
     38          6           0       -6.427486    3.777004    1.464840
     39          8           0       -6.658294    4.914394    1.877834
     40          6           0       -6.566886    3.540532   -0.103750
     41          6           0       -5.770693    4.612053   -0.797458
     42          8           0       -4.526820    4.647122   -0.703034
     43          8           0       -6.567336    5.277774   -1.647586
     44          6           0       -5.832268    6.336190   -2.390273
     45          1           0       -6.291052   -2.233827   -3.950700
     46          1           0       -4.261007   -5.371782    1.045915
     47          1           0       -5.453733   -0.418045    4.717030
     48          1           0       -7.341525    2.492725   -2.964281
     49          1           0       -6.615229    0.267658   -4.535594
     50          1           0       -8.925336    0.810101   -2.709383
     51          1           0       -8.474547   -0.915116   -2.872728
     52          1           0       -8.915469   -0.037460   -4.310048
     53          1           0       -4.667901    1.555372   -4.024665
     54          1           0       -4.689257    3.010888   -2.950657
     55          1           0       -6.627765    3.373021   -4.999569
     56          1           0       -5.366617    2.476194   -5.756577
     57          1           0       -5.236544   -3.825639   -4.843455
     58          1           0       -5.171164   -5.465079   -4.320027
     59          1           0       -3.633771   -4.631327   -4.664407
     60          1           0       -3.797251   -6.993132   -3.428846
     61          1           0       -2.349537   -7.701272   -2.517179
     62          1           0       -2.290155   -6.117827   -3.336998
     63          1           0       -3.808787   -4.795878    3.488107
     64          1           0       -5.769852   -3.081463    4.931364
     65          1           0       -5.416104   -6.288330    4.030791
     66          1           0       -6.489532   -5.463243    2.849387
     67          1           0       -6.532710   -5.009516    4.473961
     68          1           0       -3.546669   -3.796574    5.887600
     69          1           0       -3.924627   -2.089156    6.086887
     70          1           0       -2.054243   -3.491922    4.331725
     71          1           0       -1.746190   -2.017481    5.310406
     72          1           0       -2.631852   -1.949565    3.721162
     73          1           0       -5.815246    3.223559    4.729334
     74          1           0       -5.911874    1.541118    5.361096
     75          1           0       -7.379135    2.283884    4.598858
     76          1           0       -7.629250    3.604045   -0.337141
     77          1           0       -6.356891    7.275298   -2.213975
     78          1           0       -5.747257    5.989757   -3.420401
     79          1           0       -4.837261    6.583383   -2.018529
     80         12           0        5.213845    1.337890    0.070609
     81          6           0        5.850245   -2.068565   -0.862184
     82          6           0        4.650760    0.208212    3.239415
     83          6           0        4.211003    4.252142    0.824836
     84          6           0        4.705459    2.022446   -3.308542
     85          7           0        5.273992   -0.690320    0.950938
     86          6           0        5.588111   -1.900403    0.513476
     87          6           0        5.701837   -2.977048    1.625894
     88          6           0        4.761079   -2.284549    2.727846
     89          6           0        4.927569   -0.825230    2.309108
     90          6           0        3.294618   -2.657460    2.587286
     91          6           0        7.171934   -3.143569    2.148490
     92          6           0        7.411399   -4.385449    3.009980
     93          1           0        8.698789   -5.066866    2.906185
     94          7           0        5.007360    2.206354    1.843092
     95          6           0        4.808688    1.595868    3.030156
     96          6           0        4.701161    2.674790    4.024408
     97          6           0        4.687877    3.976920    3.304007
     98          6           0        4.612290    3.518071    1.931481
     99          6           0        4.702847    2.421009    5.503942
    100          6           0        4.722818    5.399840    3.773369
    101          8           0        4.462145    6.375717    2.984369
    102          6           0        4.979506    5.611679    5.205404
    103          7           0        4.347411    2.863523   -1.044779
    104          6           0        4.055972    4.050231   -0.483793
    105          6           0        3.700255    5.076751   -1.532663
    106          6           0        4.049584    4.395281   -2.936631
    107          6           0        4.482065    2.998489   -2.439294
    108          6           0        2.244269    5.541966   -1.541329
    109          6           0        5.008635    5.174400   -3.877843
    110          6           0        6.392872    5.230373   -3.272751
    111          7           0        5.440177    0.257166   -1.786509
    112          6           0        5.146592    0.724194   -3.086427
    113          6           0        5.351926   -0.408254   -4.012611
    114          6           0        5.731503   -1.470233   -3.177968
    115          6           0        5.741111   -1.036057   -1.824864
    116          6           0        5.139820   -0.380974   -5.419873
    117          6           0        6.115940   -2.862661   -3.132828
    118          8           0        6.363221   -3.723368   -3.976495
    119          6           0        6.087404   -3.345975   -1.618894
    120          6           0        7.362879   -4.095257   -1.346398
    121          8           0        8.459103   -3.508729   -1.375882
    122          8           0        7.062688   -5.323022   -0.885039
    123          6           0        8.295445   -6.100812   -0.589778
    124          1           0        4.232790   -0.064633    4.208822
    125          1           0        3.961063    5.297925    1.018098
    126          1           0        4.662465    2.181095   -4.388197
    127          1           0        5.307189   -3.949947    1.358511
    128          1           0        5.148240   -2.439782    3.731527
    129          1           0        3.109701   -3.235363    1.693988
    130          1           0        2.755010   -1.720198    2.550010
    131          1           0        2.947664   -3.169294    3.489497
    132          1           0        7.380233   -2.359225    2.887524
    133          1           0        7.869811   -3.128724    1.334015
    134          1           0        6.587962   -5.105793    2.932633
    135          1           0        7.406956   -4.085095    4.060593
    136          1           0        4.555779    1.357650    5.729842
    137          1           0        3.813034    2.911285    5.913481
    138          1           0        5.588376    2.824632    5.999525
    139          1           0        4.216437    5.101496    5.788408
    140          1           0        5.055509    6.693403    5.331787
    141          1           0        5.936682    5.144225    5.462164
    142          1           0        4.299934    5.971276   -1.417347
    143          1           0        3.150155    4.245254   -3.551734
    144          1           0        2.135271    6.637031   -1.427265
    145          1           0        1.715424    5.023019   -0.752939
    146          1           0        1.674823    5.260643   -2.425522
    147          1           0        4.675084    6.209398   -3.985944
    148          1           0        5.073677    4.751229   -4.874676
    149          1           0        6.325869    6.075481   -2.581097
    150          1           0        7.140637    5.408915   -4.042840
    151          1           0        6.598908    4.333030   -2.677802
    152          1           0        5.976513   -0.897710   -5.870910
    153          1           0        5.055316    0.638827   -5.789507
    154          1           0        4.191435   -0.921000   -5.484680
    155          1           0        5.206903   -3.977212   -1.493071
    156          1           0        8.229440   -7.032712   -1.159771
    157          1           0        8.337903   -6.186375    0.512326
    158          1           0        9.237615   -5.701174   -0.946212
 ---------------------------------------------------------------------

 SCF Done:  E(RCAM-B3LYP) =  -4069.81175748     A.U. after   19 cycles

 Excitation energies and oscillator strengths:

 Excited State   1:      Singlet-A      1.6585 eV  747.56 nm  f=0.0300  <S**2>=0.000
     309 -> 315       -0.11052
     310 -> 316       -0.12898
     311 -> 313       -0.44682
     312 -> 314        0.52194
 This state for optimization and/or second-order correction.
 Total Energy, E(TD-HF/TD-DFT) =  -4069.75080776
 Copying the excited state density for this state as the 1-particle RhoCI density.

 Excited State   2:      Singlet-A      1.6953 eV  731.36 nm  f=0.6888  <S**2>=0.000
     309 -> 315        0.13628
     310 -> 316       -0.11624
     311 -> 313        0.52013
     312 -> 314        0.44530

 Excited State   3:      Singlet-A      2.1834 eV  567.84 nm  f=0.0304  <S**2>=0.000
     309 -> 313        0.26455
     310 -> 314        0.58725
     311 -> 315       -0.11052
     312 -> 316        0.24655

 Excited State   4:      Singlet-A      2.1954 eV  564.75 nm  f=0.1525  <S**2>=0.000
     309 -> 313        0.58335
     310 -> 314       -0.26164
     311 -> 315       -0.25593
     312 -> 316       -0.11578

 Excited State   5:      Singlet-A      2.4872 eV  498.49 nm  f=0.0000  <S**2>=0.000
     312 -> 313        0.70709

 The electronic state is 1-A.
 Alpha  occ. eigenvalues --  -46.87880 -46.87493 -19.26343 -19.26247 -19.19081
 Alpha  occ. eigenvalues --  -19.19054 -19.18866 -19.18527 -19.18231 -19.17931
 Alpha  occ. eigenvalues --  -14.42530 -14.42332 -14.41543 -14.41183 -14.39481
 Alpha  occ. eigenvalues --  -14.39184 -14.38668 -14.38443 -10.39142 -10.38981
 Alpha  occ. eigenvalues --  -10.35495 -10.35203 -10.34452 -10.34109 -10.31737
 Alpha  occ. eigenvalues --  -10.31667 -10.31484 -10.31163 -10.30979 -10.30854
 Alpha  occ. eigenvalues --  -10.30649 -10.30593 -10.30304 -10.30236 -10.30218
 Alpha  occ. eigenvalues --  -10.30024 -10.29953 -10.29713 -10.29705 -10.29330
 Alpha  occ. eigenvalues --  -10.29264 -10.29252 -10.28818 -10.28613 -10.28569
 Alpha  occ. eigenvalues --  -10.28540 -10.28436 -10.28243 -10.28183 -10.27987
 Alpha  occ. eigenvalues --  -10.27864 -10.27850 -10.27804 -10.27652 -10.27651
 Alpha  occ. eigenvalues --  -10.27589 -10.27509 -10.27507 -10.27481 -10.27322
 Alpha  occ. eigenvalues --  -10.27317 -10.27317 -10.27309 -10.27223 -10.27130
 Alpha  occ. eigenvalues --  -10.26923 -10.26779 -10.26564 -10.26405 -10.26401
 Alpha  occ. eigenvalues --  -10.26292 -10.26231 -10.26117 -10.25983 -10.25930
 Alpha  occ. eigenvalues --  -10.25848 -10.25781 -10.25771 -10.25559 -10.25022
 Alpha  occ. eigenvalues --  -10.24966 -10.24904 -10.24878 -10.24726 -10.24590
 Alpha  occ. eigenvalues --  -10.24503  -3.16623  -3.16243  -1.91505  -1.91125
 Alpha  occ. eigenvalues --   -1.91092  -1.90933  -1.90714  -1.90551  -1.16692
 Alpha  occ. eigenvalues --   -1.16540  -1.08688  -1.08544  -1.07267  -1.06839
 Alpha  occ. eigenvalues --   -1.06775  -1.06703  -1.04659  -1.04333  -1.03850
 Alpha  occ. eigenvalues --   -1.03495  -1.03316  -1.02868  -1.02495  -1.01944
 Alpha  occ. eigenvalues --   -0.92048  -0.91837  -0.89650  -0.89324  -0.89260
 Alpha  occ. eigenvalues --   -0.88999  -0.88414  -0.88022  -0.87949  -0.87754
 Alpha  occ. eigenvalues --   -0.87667  -0.87521  -0.87326  -0.86957  -0.85057
 Alpha  occ. eigenvalues --   -0.84845  -0.84081  -0.83679  -0.83029  -0.82750
 Alpha  occ. eigenvalues --   -0.82717  -0.82494  -0.81660  -0.81466  -0.80670
 Alpha  occ. eigenvalues --   -0.80295  -0.78860  -0.78484  -0.77316  -0.77021
 Alpha  occ. eigenvalues --   -0.76991  -0.76739  -0.75996  -0.75694  -0.75010
 Alpha  occ. eigenvalues --   -0.74583  -0.72861  -0.72545  -0.71757  -0.71396
 Alpha  occ. eigenvalues --   -0.70076  -0.69574  -0.68946  -0.68675  -0.67717
 Alpha  occ. eigenvalues --   -0.67441  -0.67285  -0.67051  -0.65365  -0.65124
 Alpha  occ. eigenvalues --   -0.64941  -0.64713  -0.64616  -0.64502  -0.64387
 Alpha  occ. eigenvalues --   -0.64024  -0.62376  -0.62144  -0.60514  -0.60165
 Alpha  occ. eigenvalues --   -0.59876  -0.59645  -0.59076  -0.58827  -0.58588
 Alpha  occ. eigenvalues --   -0.58268  -0.57655  -0.57429  -0.57401  -0.57066
 Alpha  occ. eigenvalues --   -0.56381  -0.56063  -0.56046  -0.55756  -0.55586
 Alpha  occ. eigenvalues --   -0.55455  -0.55304  -0.55077  -0.54629  -0.54323
 Alpha  occ. eigenvalues --   -0.53966  -0.53761  -0.53381  -0.53282  -0.53070
 Alpha  occ. eigenvalues --   -0.53001  -0.52991  -0.52809  -0.52757  -0.52608
 Alpha  occ. eigenvalues --   -0.52502  -0.52242  -0.51996  -0.51783  -0.51678
 Alpha  occ. eigenvalues --   -0.51511  -0.51288  -0.51060  -0.50613  -0.50303
 Alpha  occ. eigenvalues --   -0.50160  -0.49976  -0.49814  -0.49660  -0.49577
 Alpha  occ. eigenvalues --   -0.49328  -0.49281  -0.49165  -0.49058  -0.48957
 Alpha  occ. eigenvalues --   -0.48672  -0.48560  -0.48501  -0.48418  -0.48190
 Alpha  occ. eigenvalues --   -0.48155  -0.47774  -0.47434  -0.47370  -0.46941
 Alpha  occ. eigenvalues --   -0.46898  -0.46625  -0.46549  -0.46448  -0.46398
 Alpha  occ. eigenvalues --   -0.46255  -0.46111  -0.45916  -0.45900  -0.45690
 Alpha  occ. eigenvalues --   -0.45318  -0.44974  -0.44659  -0.44583  -0.44372
 Alpha  occ. eigenvalues --   -0.44322  -0.44252  -0.44160  -0.44079  -0.43976
 Alpha  occ. eigenvalues --   -0.43912  -0.43787  -0.43574  -0.43474  -0.43420
 Alpha  occ. eigenvalues --   -0.43220  -0.43115  -0.42827  -0.42804  -0.42748
 Alpha  occ. eigenvalues --   -0.42744  -0.42372  -0.42133  -0.41807  -0.41785
 Alpha  occ. eigenvalues --   -0.41614  -0.41516  -0.41303  -0.41223  -0.40972
 Alpha  occ. eigenvalues --   -0.40878  -0.40812  -0.40690  -0.40561  -0.40531
 Alpha  occ. eigenvalues --   -0.40304  -0.40304  -0.40079  -0.39627  -0.39249
 Alpha  occ. eigenvalues --   -0.38594  -0.38149  -0.37827  -0.37511  -0.37434
 Alpha  occ. eigenvalues --   -0.37337  -0.37093  -0.37046  -0.36796  -0.36642
 Alpha  occ. eigenvalues --   -0.36285  -0.36043  -0.34370  -0.34092  -0.33835
 Alpha  occ. eigenvalues --   -0.33744  -0.33269  -0.33013  -0.31399  -0.31117
 Alpha  occ. eigenvalues --   -0.31084  -0.30804  -0.30091  -0.29838  -0.29517
 Alpha  occ. eigenvalues --   -0.29395  -0.29167  -0.29065  -0.24164  -0.23871
 Alpha  occ. eigenvalues --   -0.21210  -0.20952
 Alpha virt. eigenvalues --   -0.08849  -0.08631  -0.01835  -0.01508  -0.00118
 Alpha virt. eigenvalues --    0.00137   0.02125   0.02348   0.03015   0.03384
 Alpha virt. eigenvalues --    0.04635   0.04891   0.05036   0.05278   0.06100

 Mulliken charges:
               1
     1  Mg   0.838648
     2  C   -0.002801
     3  C   -0.093761
     4  C   -0.046181
     5  C   -0.064286
     6  N   -0.256739
     7  C   -0.052537
     8  C   -0.013984
     9  C   -0.087059
    10  C    0.046293
    11  C    0.104737
    12  C    0.053439
    13  C   -0.071693
    14  H    0.035546
    15  N   -0.433222
    16  C    0.168468
    17  C   -0.176676
    18  C   -0.003768
    19  C    0.148658
    20  C    0.110014
    21  C    0.012299
    22  O   -0.250102
    23  C    0.062315
    24  N   -0.341001
    25  C    0.041170
    26  C   -0.028188
    27  C   -0.023758
    28  C    0.074398
    29  C    0.076126
    30  C    0.035385
    31  C   -0.004376
    32  N   -0.310439
    33  C    0.080178
    34  C   -0.169926
    35  C    0.008560
    36  C    0.082853
    37  C    0.127342
    38  C    0.046247
    39  O   -0.188143
    40  C   -0.005411
    41  C    0.213025
    42  O   -0.257131
    43  O   -0.304750
    44  C    0.157622
    45  H   -0.017194
    46  H   -0.017054
    47  H   -0.042012
    48  H    0.001084
    49  H   -0.003802
    50  H    0.025545
    51  H    0.016492
    52  H    0.016939
    53  H    0.011243
    54  H    0.043865
    55  H    0.018139
    56  H    0.018150
    57  H    0.006002
    58  H    0.027125
    59  H    0.040633
    60  H    0.037484
    61  H    0.036164
    62  H    0.032600
    63  H    0.015760
    64  H    0.009655
    65  H    0.023063
    66  H    0.013044
    67  H    0.004829
    68  H    0.005959
    69  H    0.004631
    70  H    0.008011
    71  H    0.015610
    72  H    0.029923
    73  H    0.047660
    74  H    0.008469
    75  H    0.046143
    76  H    0.035302
    77  H    0.043237
    78  H    0.046257
    79  H    0.053659
    80  Mg   0.838063
    81  C   -0.017088
    82  C   -0.087852
    83  C   -0.044297
    84  C   -0.064893
    85  N   -0.254664
    86  C   -0.049986
    87  C   -0.015120
    88  C   -0.090578
    89  C    0.046074
    90  C    0.114318
    91  C    0.062564
    92  C   -0.077729
    93  H    0.034324
    94  N   -0.423766
    95  C    0.163461
    96  C   -0.174158
    97  C   -0.006957
    98  C    0.152274
    99  C    0.099205
   100  C    0.016109
   101  O   -0.252209
   102  C    0.061153
   103  N   -0.349992
   104  C    0.038333
   105  C   -0.020410
   106  C   -0.034223
   107  C    0.088881
   108  C    0.072726
   109  C    0.034765
   110  C   -0.007540
   111  N   -0.323894
   112  C    0.078228
   113  C   -0.163841
   114  C    0.001749
   115  C    0.096073
   116  C    0.131656
   117  C    0.041668
   118  O   -0.189161
   119  C    0.001126
   120  C    0.211071
   121  O   -0.251198
   122  O   -0.305524
   123  C    0.152213
   124  H   -0.019924
   125  H   -0.014406
   126  H   -0.041318
   127  H   -0.000485
   128  H   -0.004795
   129  H    0.023196
   130  H    0.014873
   131  H    0.016042
   132  H    0.013745
   133  H    0.037457
   134  H    0.021012
   135  H    0.019360
   136  H    0.008307
   137  H    0.026752
   138  H    0.039541
   139  H    0.038626
   140  H    0.036535
   141  H    0.033281
   142  H    0.013912
   143  H    0.012118
   144  H    0.025151
   145  H    0.016284
   146  H    0.006264
   147  H    0.006120
   148  H    0.002709
   149  H    0.011057
   150  H    0.017230
   151  H    0.030046
   152  H    0.045463
   153  H    0.008159
   154  H    0.045463
   155  H    0.034837
   156  H    0.043551
   157  H    0.049584
   158  H    0.053296
 Sum of Mulliken charges =  -0.00000

 Dipole moment (field-independent basis, Debye):
    X=             -3.6480    Y=             -2.4630    Z=              0.4954  Tot=              4.4294
 Quadrupole moment (field-independent basis, Debye-Ang):
   XX=           -524.7912   YY=           -542.6614   ZZ=           -452.4464
   XY=             19.6224   XZ=             55.1360   YZ=            -37.5310

 Normal termination of Gaussian 16 at Fri Sep 10 14:48:58 2021.
