 Gaussian 16, Revision A.03,
 Gaussian 16:  ES64L-G16RevA.03 25-Dec-2016

 -----------------------------------
 #p cam-b3lyp/Def2SVP td=(nstates=5)
 -----------------------------------

 --------------------------------
 TDDFT excited states in gaussian
 --------------------------------
 Symbolic Z-matrix:
 Charge =  0 Multiplicity = 1

                         Standard orientation:
 ---------------------------------------------------------------------
 Center     Atomic      Atomic             Coordinates (Angstroms)
 Number     Number       Type             X           Y           Z
 ---------------------------------------------------------------------
      1         12           0        4.778689    0.214530    0.519962
      2          6           0        4.875123   -2.921709   -1.202512
      3          6           0        5.932032    1.656640   -2.349390
      4          6           0        5.134183    2.912785    2.147742
      5          6           0        4.734945   -1.591458    3.500257
      6          7           0        5.298200   -0.630326   -1.459172
      7          6           0        5.233570   -1.839038   -2.008727
      8          6           0        5.509587   -1.836119   -3.542082
      9          6           0        6.362944   -0.493041   -3.641687
     10          6           0        5.807436    0.237958   -2.432152
     11          6           0        7.860007   -0.706166   -3.441977
     12          6           0        4.192231   -1.741558   -4.383130
     13          6           0        4.344254   -2.059637   -5.873455
     14          1           0        3.259435   -2.747723   -6.556868
     15          7           0        4.963974    2.077102   -0.111976
     16          6           0        5.436344    2.480631   -1.315852
     17          6           0        5.375583    3.958070   -1.303115
     18          6           0        5.008112    4.386495    0.075113
     19          6           0        5.046855    3.127517    0.774290
     20          6           0        5.602607    4.801442   -2.520051
     21          6           0        4.685151    5.720558    0.670180
     22          8           0        4.620432    5.903993    1.933800
     23          6           0        4.531630    6.841559   -0.274718
     24          7           0        5.137224    0.619973    2.536073
     25          6           0        5.189355    1.877628    2.988369
     26          6           0        5.171799    1.919853    4.487651
     27          6           0        4.850326    0.431364    4.968076
     28          6           0        4.818212   -0.261723    3.583566
     29          6           0        6.464309    2.404758    5.158693
     30          6           0        3.638252    0.244352    5.914818
     31          6           0        2.356539    0.556846    5.175456
     32          7           0        4.622088   -1.875877    1.082740
     33          6           0        4.647530   -2.403479    2.381841
     34          6           0        4.620279   -3.871997    2.252299
     35          6           0        4.597465   -4.098415    0.877505
     36          6           0        4.636195   -2.851025    0.191349
     37          6           0        4.677022   -4.804460    3.325484
     38          6           0        4.574250   -5.104613   -0.171725
     39          8           0        4.443032   -6.329229   -0.196045
     40          6           0        4.876052   -4.387010   -1.560893
     41          6           0        3.852980   -4.868871   -2.553084
     42          8           0        2.647657   -4.572254   -2.424311
     43          8           0        4.478885   -5.396574   -3.616246
     44          6           0        3.521150   -5.867398   -4.652211
     45          1           0        6.511382    2.180984   -3.111859
     46          1           0        5.146694    3.822752    2.751266
     47          1           0        4.633997   -2.218574    4.387943
     48          1           0        6.100339   -2.679884   -3.899150
     49          1           0        6.143446    0.061881   -4.553611
     50          1           0        8.079437   -1.728807   -3.135423
     51          1           0        8.152417   -0.003659   -2.661289
     52          1           0        8.415381   -0.412155   -4.332984
     53          1           0        3.880501   -0.699045   -4.446784
     54          1           0        3.415525   -2.377035   -3.956254
     55          1           0        5.297061   -2.547146   -6.081785
     56          1           0        4.396532   -1.117996   -6.420062
     57          1           0        6.015927    4.216879   -3.341025
     58          1           0        6.388675    5.514163   -2.271387
     59          1           0        4.702509    5.337300   -2.821734
     60          1           0        5.454873    6.963442   -0.841564
     61          1           0        4.214678    7.696331    0.321736
     62          1           0        3.757731    6.588552   -0.999988
     63          1           0        4.392542    2.588594    4.850927
     64          1           0        5.684245   -0.011605    5.513081
     65          1           0        6.321210    3.262970    5.815732
     66          1           0        7.187463    2.628553    4.374950
     67          1           0        6.994476    1.644852    5.732175
     68          1           0        3.701783    0.936887    6.753451
     69          1           0        3.561951   -0.763815    6.322285
     70          1           0        2.287867    1.641192    5.254888
     71          1           0        1.508673    0.075150    5.663621
     72          1           0        2.438213    0.312240    4.116219
     73          1           0        3.937244   -5.572874    3.101349
     74          1           0        4.470212   -4.322065    4.280538
     75          1           0        5.709580   -5.143619    3.243918
     76          1           0        5.888581   -4.670337   -1.846606
     77          1           0        3.742773   -6.917958   -4.840467
     78          1           0        3.605219   -5.174590   -5.489680
     79          1           0        2.475248   -5.928763   -4.349453
     80         12           0       -4.186910    0.828645   -0.026186
     81          6           0       -6.930034   -1.471970    0.221734
     82          6           0       -6.267654    2.888973   -1.775524
     83          6           0       -1.678377    2.668664   -0.649934
     84          6           0       -2.066021   -1.836506    0.711714
     85          7           0       -6.303809    0.624408   -0.633879
     86          6           0       -7.262760   -0.266214   -0.430106
     87          6           0       -8.674465    0.193618   -0.883119
     88          6           0       -8.232934    1.281460   -1.978794
     89          6           0       -6.862961    1.653640   -1.415451
     90          6           0       -8.035157    0.692689   -3.365714
     91          6           0       -9.491514    0.852190    0.283393
     92          6           0      -10.982434    1.043186   -0.003693
     93          1           0      -11.929170    0.883434    1.096600
     94          7           0       -4.097649    2.719751   -0.621442
     95          6           0       -5.041647    3.404466   -1.300636
     96          6           0       -4.486490    4.749772   -1.515412
     97          6           0       -3.072267    4.753079   -1.052092
     98          6           0       -2.884134    3.344223   -0.769572
     99          6           0       -5.306305    5.894936   -2.034963
    100          6           0       -2.053307    5.841820   -0.901868
    101          8           0       -0.813399    5.581509   -0.707741
    102          6           0       -2.534428    7.219380   -1.081769
    103          7           0       -2.152395    0.431930   -0.186613
    104          6           0       -1.270836    1.421585   -0.413244
    105          6           0        0.148015    0.944286   -0.214701
    106          6           0        0.024484   -0.513809    0.430515
    107          6           0       -1.511903   -0.670288    0.409974
    108          6           0        1.007935    0.871077   -1.476275
    109          6           0        0.774405   -0.757031    1.768845
    110          6           0        0.141667    0.061499    2.871143
    111          7           0       -4.430096   -1.232414    0.574605
    112          6           0       -3.408687   -2.179696    0.805807
    113          6           0       -4.068168   -3.472977    1.079532
    114          6           0       -5.437843   -3.191237    0.965004
    115          6           0       -5.618520   -1.823848    0.622800
    116          6           0       -3.405977   -4.706204    1.337944
    117          6           0       -6.771541   -3.742115    1.045345
    118          8           0       -7.244607   -4.826577    1.382807
    119          6           0       -7.792776   -2.683215    0.443506
    120          6           0       -8.946987   -2.555749    1.399577
    121          8           0       -8.776082   -2.083648    2.537350
    122          8           0      -10.093632   -2.807233    0.742058
    123          6           0      -11.268135   -2.682366    1.645809
    124          1           0       -6.764616    3.505412   -2.525125
    125          1           0       -0.781249    3.284478   -0.746928
    126          1           0       -1.477435   -2.693115    1.047067
    127          1           0       -9.276481   -0.578366   -1.347215
    128          1           0       -8.895779    2.142803   -1.969630
    129          1           0       -8.109667   -0.384605   -3.360454
    130          1           0       -7.046411    1.002017   -3.678361
    131          1           0       -8.732134    1.151440   -4.072894
    132          1           0       -9.184489    1.900777    0.388063
    133          1           0       -9.366793    0.300398    1.194763
    134          1           0      -11.310394    0.469690   -0.879198
    135          1           0      -11.150531    2.084952   -0.287381
    136          1           0       -6.264262    5.550853   -2.444015
    137          1           0       -4.772727    6.303649   -2.899896
    138          1           0       -5.439629    6.687221   -1.295257
    139          1           0       -2.969516    7.323402   -2.072905
    140          1           0       -1.681630    7.859637   -0.847947
    141          1           0       -3.340478    7.405086   -0.363153
    142          1           0        0.680247    1.589233    0.473679
    143          1           0        0.428349   -1.289917   -0.236120
    144          1           0        1.935292    1.470578   -1.407781
    145          1           0        0.408258    1.193028   -2.317265
    146          1           0        1.304922   -0.132761   -1.775126
    147          1           0        1.811077   -0.420816    1.688597
    148          1           0        0.796219   -1.799495    2.068474
    149          1           0        0.606541    1.044110    2.746781
    150          1           0        0.373108   -0.364180    3.845448
    151          1           0       -0.934801    0.182482    2.703147
    152          1           0       -3.928692   -5.173599    2.161840
    153          1           0       -2.354220   -4.551778    1.569744
    154          1           0       -3.545078   -5.207500    0.376368
    155          1           0       -8.108968   -3.051530   -0.533189
    156          1           0      -11.815161   -3.628667    1.591404
    157          1           0      -11.802977   -1.771722    1.316543
    158          1           0      -11.076246   -2.609885    2.709948
 ---------------------------------------------------------------------

 SCF Done:  E(RCAM-B3LYP) =  -4069.81084285     A.U. after   19 cycles

 Excitation energies and oscillator strengths:

 Excited State   1:      Singlet-A      1.6401 eV  755.95 nm  f=0.0014  <S**2>=0.000
     309 -> 315       -0.11444
     310 -> 316        0.11770
     311 -> 313       -0.47729
     312 -> 314        0.49533
 This state for optimization and/or second-order correction.
 Total Energy, E(TD-HF/TD-DFT) =  -4069.75056989
 Copying the excited state density for this state as the 1-particle RhoCI density.

 Excited State   2:      Singlet-A      1.7050 eV  727.17 nm  f=0.6838  <S**2>=0.000
     309 -> 315        0.13136
     310 -> 316        0.12440
     311 -> 313        0.49255
     312 -> 314        0.47450

 Excited State   3:      Singlet-A      2.1823 eV  568.14 nm  f=0.1143  <S**2>=0.000
     310 -> 314        0.64213
     312 -> 316       -0.26882

 Excited State   4:      Singlet-A      2.1982 eV  564.03 nm  f=0.0893  <S**2>=0.000
     309 -> 313        0.63837
     311 -> 315       -0.27875

 Excited State   5:      Singlet-A      2.3251 eV  533.24 nm  f=0.0002  <S**2>=0.000
     312 -> 313        0.70461

 The electronic state is 1-A.
 Alpha  occ. eigenvalues --  -46.87926 -46.87421 -19.26424 -19.26188 -19.19204
 Alpha  occ. eigenvalues --  -19.18989 -19.18645 -19.18579 -19.18257 -19.17834
 Alpha  occ. eigenvalues --  -14.42551 -14.42263 -14.41557 -14.41106 -14.39506
 Alpha  occ. eigenvalues --  -14.39124 -14.38712 -14.38350 -10.39248 -10.38914
 Alpha  occ. eigenvalues --  -10.35268 -10.35262 -10.34486 -10.34011 -10.31787
 Alpha  occ. eigenvalues --  -10.31616 -10.31531 -10.31065 -10.30982 -10.30830
 Alpha  occ. eigenvalues --  -10.30697 -10.30600 -10.30271 -10.30143 -10.30101
 Alpha  occ. eigenvalues --  -10.30032 -10.29877 -10.29683 -10.29634 -10.29315
 Alpha  occ. eigenvalues --  -10.29198 -10.29154 -10.28845 -10.28630 -10.28544
 Alpha  occ. eigenvalues --  -10.28523 -10.28448 -10.28206 -10.28192 -10.27955
 Alpha  occ. eigenvalues --  -10.27860 -10.27823 -10.27764 -10.27605 -10.27549
 Alpha  occ. eigenvalues --  -10.27507 -10.27495 -10.27436 -10.27388 -10.27312
 Alpha  occ. eigenvalues --  -10.27270 -10.27252 -10.27242 -10.27159 -10.27118
 Alpha  occ. eigenvalues --  -10.26845 -10.26831 -10.26538 -10.26338 -10.26306
 Alpha  occ. eigenvalues --  -10.26167 -10.26122 -10.26031 -10.25936 -10.25904
 Alpha  occ. eigenvalues --  -10.25857 -10.25607 -10.25456 -10.25430 -10.25211
 Alpha  occ. eigenvalues --  -10.24916 -10.24862 -10.24692 -10.24632 -10.24462
 Alpha  occ. eigenvalues --  -10.24207  -3.16650  -3.16171  -1.91535  -1.91117
 Alpha  occ. eigenvalues --   -1.91054  -1.90960  -1.90642  -1.90479  -1.16777
 Alpha  occ. eigenvalues --   -1.16479  -1.08726  -1.08443  -1.07032  -1.06838
 Alpha  occ. eigenvalues --   -1.06814  -1.06773  -1.04677  -1.04269  -1.03852
 Alpha  occ. eigenvalues --   -1.03423  -1.03327  -1.02787  -1.02505  -1.01868
 Alpha  occ. eigenvalues --   -0.92073  -0.91756  -0.89596  -0.89283  -0.89217
 Alpha  occ. eigenvalues --   -0.88958  -0.88354  -0.87981  -0.87954  -0.87761
 Alpha  occ. eigenvalues --   -0.87509  -0.87440  -0.87217  -0.86934  -0.85056
 Alpha  occ. eigenvalues --   -0.84803  -0.84030  -0.83631  -0.82907  -0.82762
 Alpha  occ. eigenvalues --   -0.82617  -0.82463  -0.81680  -0.81382  -0.80650
 Alpha  occ. eigenvalues --   -0.80232  -0.78802  -0.78411  -0.77296  -0.77044
 Alpha  occ. eigenvalues --   -0.76907  -0.76675  -0.76006  -0.75632  -0.74977
 Alpha  occ. eigenvalues --   -0.74570  -0.72855  -0.72441  -0.71750  -0.71361
 Alpha  occ. eigenvalues --   -0.70093  -0.69398  -0.68919  -0.68625  -0.67695
 Alpha  occ. eigenvalues --   -0.67382  -0.67242  -0.67029  -0.65382  -0.65075
 Alpha  occ. eigenvalues --   -0.64951  -0.64708  -0.64528  -0.64440  -0.64346
 Alpha  occ. eigenvalues --   -0.63938  -0.62408  -0.62065  -0.60436  -0.60138
 Alpha  occ. eigenvalues --   -0.59889  -0.59589  -0.59071  -0.58758  -0.58581
 Alpha  occ. eigenvalues --   -0.58200  -0.57697  -0.57359  -0.57337  -0.57015
 Alpha  occ. eigenvalues --   -0.56367  -0.56078  -0.55964  -0.55699  -0.55498
 Alpha  occ. eigenvalues --   -0.55433  -0.55262  -0.55036  -0.54633  -0.54332
 Alpha  occ. eigenvalues --   -0.53986  -0.53725  -0.53363  -0.53202  -0.53054
 Alpha  occ. eigenvalues --   -0.52992  -0.52929  -0.52712  -0.52664  -0.52531
 Alpha  occ. eigenvalues --   -0.52490  -0.52203  -0.52010  -0.51640  -0.51562
 Alpha  occ. eigenvalues --   -0.51476  -0.51300  -0.50962  -0.50427  -0.50320
 Alpha  occ. eigenvalues --   -0.50063  -0.49928  -0.49787  -0.49666  -0.49496
 Alpha  occ. eigenvalues --   -0.49314  -0.49250  -0.49155  -0.49001  -0.48887
 Alpha  occ. eigenvalues --   -0.48670  -0.48512  -0.48382  -0.48344  -0.48178
 Alpha  occ. eigenvalues --   -0.48139  -0.47702  -0.47384  -0.47317  -0.46923
 Alpha  occ. eigenvalues --   -0.46885  -0.46641  -0.46470  -0.46457  -0.46343
 Alpha  occ. eigenvalues --   -0.46301  -0.45988  -0.45933  -0.45815  -0.45571
 Alpha  occ. eigenvalues --   -0.45273  -0.45050  -0.44668  -0.44492  -0.44333
 Alpha  occ. eigenvalues --   -0.44259  -0.44167  -0.44137  -0.43983  -0.43949
 Alpha  occ. eigenvalues --   -0.43910  -0.43751  -0.43587  -0.43463  -0.43364
 Alpha  occ. eigenvalues --   -0.43175  -0.43071  -0.42814  -0.42797  -0.42698
 Alpha  occ. eigenvalues --   -0.42591  -0.42293  -0.41971  -0.41798  -0.41680
 Alpha  occ. eigenvalues --   -0.41556  -0.41435  -0.41283  -0.41180  -0.40924
 Alpha  occ. eigenvalues --   -0.40792  -0.40699  -0.40642  -0.40576  -0.40471
 Alpha  occ. eigenvalues --   -0.40273  -0.40192  -0.40069  -0.39540  -0.38891
 Alpha  occ. eigenvalues --   -0.38534  -0.38098  -0.37836  -0.37472  -0.37391
 Alpha  occ. eigenvalues --   -0.37354  -0.37005  -0.36975  -0.36838  -0.36579
 Alpha  occ. eigenvalues --   -0.36282  -0.35942  -0.34378  -0.34014  -0.33937
 Alpha  occ. eigenvalues --   -0.33678  -0.33279  -0.32927  -0.31232  -0.31138
 Alpha  occ. eigenvalues --   -0.31070  -0.30739  -0.30125  -0.29736  -0.29489
 Alpha  occ. eigenvalues --   -0.29387  -0.29113  -0.28963  -0.24187  -0.23786
 Alpha  occ. eigenvalues --   -0.21213  -0.20874
 Alpha virt. eigenvalues --   -0.08834  -0.08556  -0.01835  -0.01466  -0.00025
 Alpha virt. eigenvalues --    0.00154   0.02121   0.02437   0.03187   0.03574
 Alpha virt. eigenvalues --    0.04604   0.04917   0.04949   0.05348   0.05972

 Mulliken charges:
               1
     1  Mg   0.806443
     2  C   -0.001465
     3  C   -0.090575
     4  C   -0.044435
     5  C   -0.063597
     6  N   -0.253827
     7  C   -0.056588
     8  C   -0.013119
     9  C   -0.086994
    10  C    0.045366
    11  C    0.104612
    12  C    0.050751
    13  C   -0.071919
    14  H    0.036329
    15  N   -0.436358
    16  C    0.167093
    17  C   -0.175899
    18  C   -0.001687
    19  C    0.150493
    20  C    0.110210
    21  C    0.018561
    22  O   -0.248942
    23  C    0.059854
    24  N   -0.335396
    25  C    0.036852
    26  C   -0.027942
    27  C   -0.024890
    28  C    0.071687
    29  C    0.076709
    30  C    0.050266
    31  C   -0.030529
    32  N   -0.309492
    33  C    0.077780
    34  C   -0.172840
    35  C    0.008487
    36  C    0.077429
    37  C    0.127871
    38  C    0.044770
    39  O   -0.188346
    40  C   -0.006538
    41  C    0.213390
    42  O   -0.259821
    43  O   -0.304280
    44  C    0.157411
    45  H   -0.017636
    46  H   -0.016180
    47  H   -0.042727
    48  H    0.001015
    49  H   -0.003504
    50  H    0.025698
    51  H    0.017198
    52  H    0.017035
    53  H    0.012488
    54  H    0.043560
    55  H    0.018252
    56  H    0.018517
    57  H    0.005182
    58  H    0.026960
    59  H    0.043775
    60  H    0.034594
    61  H    0.036460
    62  H    0.040615
    63  H    0.017518
    64  H    0.009807
    65  H    0.023793
    66  H    0.012832
    67  H    0.004939
    68  H    0.004757
    69  H    0.002985
    70  H    0.011401
    71  H    0.029520
    72  H    0.031587
    73  H    0.046501
    74  H    0.008951
    75  H    0.046526
    76  H    0.035822
    77  H    0.043623
    78  H    0.046728
    79  H    0.053558
    80  Mg   0.837889
    81  C   -0.017487
    82  C   -0.088451
    83  C   -0.045298
    84  C   -0.062597
    85  N   -0.254654
    86  C   -0.049600
    87  C   -0.015087
    88  C   -0.090437
    89  C    0.045622
    90  C    0.114598
    91  C    0.062603
    92  C   -0.077581
    93  H    0.034379
    94  N   -0.423200
    95  C    0.162467
    96  C   -0.175623
    97  C   -0.008932
    98  C    0.151882
    99  C    0.099774
   100  C    0.015228
   101  O   -0.255328
   102  C    0.061356
   103  N   -0.350242
   104  C    0.036901
   105  C   -0.027579
   106  C   -0.036822
   107  C    0.088524
   108  C    0.049912
   109  C    0.011654
   110  C   -0.004989
   111  N   -0.324332
   112  C    0.077759
   113  C   -0.161905
   114  C    0.001978
   115  C    0.096640
   116  C    0.131937
   117  C    0.042669
   118  O   -0.187834
   119  C    0.000902
   120  C    0.211177
   121  O   -0.251271
   122  O   -0.305630
   123  C    0.152169
   124  H   -0.020746
   125  H   -0.016646
   126  H   -0.033698
   127  H   -0.000917
   128  H   -0.004912
   129  H    0.022393
   130  H    0.014282
   131  H    0.015471
   132  H    0.013865
   133  H    0.037606
   134  H    0.020610
   135  H    0.019295
   136  H    0.008326
   137  H    0.024604
   138  H    0.039067
   139  H    0.037337
   140  H    0.034805
   141  H    0.034531
   142  H    0.017345
   143  H    0.028518
   144  H    0.045255
   145  H    0.008081
   146  H    0.021874
   147  H    0.023093
   148  H    0.012241
   149  H    0.013200
   150  H    0.021267
   151  H    0.024404
   152  H    0.044865
   153  H    0.012245
   154  H    0.049059
   155  H    0.034827
   156  H    0.043674
   157  H    0.049229
   158  H    0.053375
 Sum of Mulliken charges =  -0.00000

 Dipole moment (field-independent basis, Debye):
    X=              1.4474    Y=              6.0942    Z=             -5.5801  Tot=              8.3888
 Quadrupole moment (field-independent basis, Debye-Ang):
   XX=           -461.7272   YY=           -545.5799   ZZ=           -474.8157
   XY=            -30.5569   XZ=             10.6375   YZ=            -11.8573

 Normal termination of Gaussian 16 at Fri Sep 10 08:16:42 2021.
