 Gaussian 16, Revision A.03,
 Gaussian 16:  ES64L-G16RevA.03 25-Dec-2016

 -----------------------------------
 #p cam-b3lyp/Def2SVP td=(nstates=5)
 -----------------------------------

 --------------------------------
 TDDFT excited states in gaussian
 --------------------------------
 Symbolic Z-matrix:
 Charge =  0 Multiplicity = 1

                         Standard orientation:
 ---------------------------------------------------------------------
 Center     Atomic      Atomic             Coordinates (Angstroms)
 Number     Number       Type             X           Y           Z
 ---------------------------------------------------------------------
      1         12           0       15.636078    0.637975    0.292804
      2          6           0       15.918661   -2.528216   -1.352674
      3          6           0       16.565998    2.084883   -2.654190
      4          6           0       15.835049    3.400501    1.837305
      5          6           0       15.844462   -1.081367    3.317056
      6          7           0       16.148708   -0.218826   -1.682987
      7          6           0       16.160369   -1.443855   -2.199068
      8          6           0       16.379297   -1.462402   -3.741502
      9          6           0       17.119044   -0.059843   -3.907638
     10          6           0       16.551594    0.659035   -2.696383
     11          6           0       18.634581   -0.149153   -3.760414
     12          6           0       15.028860   -1.495176   -4.533321
     13          6           0       15.151339   -1.842123   -6.019921
     14          1           0       14.100475   -2.632145   -6.643538
     15          7           0       15.649659    2.490836   -0.392449
     16          6           0       16.044346    2.896175   -1.623388
     17          6           0       15.866885    4.364065   -1.645487
     18          6           0       15.516934    4.800918   -0.265346
     19          6           0       15.681010    3.569018    0.463267
     20          6           0       15.981741    5.188099   -2.891090
     21          6           0       15.110861    6.121731    0.307968
     22          8           0       15.077801    6.334978    1.568130
     23          6           0       14.834468    7.200220   -0.658215
     24          7           0       16.034396    1.126824    2.282780
     25          6           0       16.002855    2.396910    2.700956
     26          6           0       16.036573    2.479764    4.198266
     27          6           0       15.852087    0.984739    4.727999
     28          6           0       15.824783    0.252617    3.363623
     29          6           0       17.310027    3.083259    4.806640
     30          6           0       14.693964    0.729898    5.725108
     31          6           0       13.365418    0.919954    5.028013
     32          7           0       15.666658   -1.441622    0.913596
     33          6           0       15.781202   -1.928867    2.223614
     34          6           0       15.866028   -3.398056    2.132196
     35          6           0       15.811261   -3.664130    0.765430
     36          6           0       15.725757   -2.437333    0.047133
     37          6           0       16.035702   -4.292649    3.225516
     38          6           0       15.829903   -4.698149   -0.256487
     39          8           0       15.795608   -5.929483   -0.244927
     40          6           0       16.022976   -3.998421   -1.673855
     41          6           0       15.005999   -4.586772   -2.613487
     42          8           0       13.786406   -4.382136   -2.445908
     43          8           0       15.632749   -5.093423   -3.686349
     44          6           0       14.678389   -5.666879   -4.672502
     45          1           0       17.073720    2.631420   -3.451346
     46          1           0       15.797171    4.325253    2.416820
     47          1           0       15.826035   -1.689263    4.223463
     48          1           0       17.021839   -2.266920   -4.099711
     49          1           0       16.823106    0.450286   -4.824104
     50          1           0       18.945586   -1.142401   -3.436910
     51          1           0       18.898463    0.595802   -3.009480
     52          1           0       19.132043    0.162358   -4.679255
     53          1           0       14.633169   -0.482538   -4.611129
     54          1           0       14.321155   -2.177381   -4.061010
     55          1           0       16.131657   -2.259037   -6.252451
     56          1           0       15.108704   -0.915026   -6.591648
     57          1           0       16.410051    4.614916   -3.712404
     58          1           0       16.717218    5.967006   -2.690879
     59          1           0       15.031530    5.642989   -3.171278
     60          1           0       15.723866    7.378178   -1.263072
     61          1           0       14.472516    8.043920   -0.071691
     62          1           0       14.057240    6.866981   -1.346559
     63          1           0       15.220380    3.095253    4.574337
     64          1           0       16.737847    0.624063    5.251465
     65          1           0       17.123194    3.945731    5.446906
     66          1           0       17.984111    3.340978    3.990255
     67          1           0       17.919417    2.383717    5.378219
     68          1           0       14.732744    1.448588    6.542988
     69          1           0       14.712892   -0.269291    6.160440
     70          1           0       13.213739    1.997373    5.082730
     71          1           0       12.576838    0.387136    5.560420
     72          1           0       13.427669    0.652826    3.972904
     73          1           0       15.351655   -5.122734    3.049426
     74          1           0       15.826109   -3.801306    4.175387
     75          1           0       17.088290   -4.551907    3.112814
     76          1           0       17.043746   -4.209353   -1.991120
     77          1           0       14.975789   -6.701689   -4.842667
     78          1           0       14.676610   -4.993433   -5.529749
     79          1           0       13.652383   -5.801580   -4.328255
     80         12           0      -16.092481    0.245222   -0.488185
     81          6           0      -14.576469   -1.453317    2.285932
     82          6           0      -15.244330    3.176621    1.035657
     83          6           0      -17.807778    1.766560   -2.681517
     84          6           0      -17.789800   -2.715527   -1.194426
     85          7           0      -15.046578    0.676269    1.412481
     86          6           0      -14.461600   -0.049166    2.353709
     87          6           0      -13.643021    0.773798    3.384346
     88          6           0      -14.398581    2.181569    3.222506
     89          6           0      -14.902042    2.025385    1.789046
     90          6           0      -15.602449    2.327249    4.138361
     91          6           0      -12.128115    0.886441    2.991452
     92          6           0      -11.213012    1.408582    4.101272
     93          1           0       -9.859334    0.869533    4.198436
     94          7           0      -16.063630    2.148958   -1.048108
     95          6           0      -15.667463    3.207946   -0.311303
     96          6           0      -15.857521    4.388232   -1.168594
     97          6           0      -16.552579    3.957750   -2.412100
     98          6           0      -16.860259    2.581337   -2.079107
     99          6           0      -15.326312    5.746409   -0.812802
    100          6           0      -16.896229    4.671006   -3.684654
    101          8           0      -17.712619    4.171485   -4.537187
    102          6           0      -16.321614    6.012878   -3.859823
    103          7           0      -17.739626   -0.313345   -1.627163
    104          6           0      -18.259530    0.519646   -2.545717
    105          6           0      -19.255194   -0.194539   -3.428314
    106          6           0      -19.116068   -1.745766   -3.065096
    107          6           0      -18.082214   -1.646285   -1.922013
    108          6           0      -20.713237    0.236136   -3.270172
    109          6           0      -18.827877   -2.720492   -4.239627
    110          6           0      -17.444762   -2.465789   -4.794156
    111          7           0      -16.052230   -1.784823    0.250290
    112          6           0      -16.865360   -2.860918   -0.167957
    113          6           0      -16.549319   -4.010241    0.704749
    114          6           0      -15.583206   -3.512444    1.592048
    115          6           0      -15.330708   -2.143453    1.306353
    116          6           0      -17.163473   -5.293003    0.645987
    117          6           0      -14.727309   -3.830825    2.712222
    118          8           0      -14.447827   -4.859164    3.327159
    119          6           0      -14.129791   -2.477050    3.292441
    120          6           0      -12.650717   -2.668372    3.488072
    121          8           0      -11.901706   -2.845792    2.511285
    122          8           0      -12.336444   -2.394831    4.767435
    123          6           0      -10.878128   -2.559759    5.008102
    124          1           0      -15.228413    4.146357    1.533903
    125          1           0      -18.349022    2.212513   -3.519170
    126          1           0      -18.204796   -3.701749   -1.413130
    127          1           0      -13.720077    0.425929    4.407491
    128          1           0      -13.702960    3.013676    3.293781
    129          1           0      -15.821945    1.409970    4.664249
    130          1           0      -16.428960    2.602321    3.496287
    131          1           0      -15.457375    3.169830    4.820519
    132          1           0      -12.008147    1.691258    2.254824
    133          1           0      -11.757515   -0.052860    2.629534
    134          1           0      -11.704132    1.393114    5.081848
    135          1           0      -11.014220    2.467271    3.917766
    136          1           0      -15.005684    5.791010    0.235348
    137          1           0      -16.168873    6.444108   -0.869032
    138          1           0      -14.542116    6.083682   -1.493945
    139          1           0      -16.639647    6.651833   -3.039418
    140          1           0      -16.607397    6.324018   -4.866501
    141          1           0      -15.230415    5.937364   -3.795136
    142          1           0      -19.013582   -0.055641   -4.474946
    143          1           0      -20.039479   -2.144391   -2.619824
    144          1           0      -21.171086    0.582486   -4.215951
    145          1           0      -20.760155    1.012649   -2.518267
    146          1           0      -21.377118   -0.522987   -2.860046
    147          1           0      -19.528401   -2.543315   -5.059396
    148          1           0      -18.912810   -3.766287   -3.963790
    149          1           0      -17.604205   -1.628300   -5.479939
    150          1           0      -17.075972   -3.343160   -5.321658
    151          1           0      -16.762506   -2.122605   -4.007770
    152          1           0      -16.370625   -6.022568    0.744136
    153          1           0      -17.715731   -5.427280   -0.281778
    154          1           0      -17.826453   -5.231739    1.513153
    155          1           0      -14.643357   -2.268322    4.231726
    156          1           0      -10.768954   -3.266391    5.836620
    157          1           0      -10.483332   -1.537933    5.162233
    158          1           0      -10.294717   -3.047448    4.235930
 ---------------------------------------------------------------------

 SCF Done:  E(RCAM-B3LYP) =  -4069.81175603     A.U. after   19 cycles

 Excitation energies and oscillator strengths:

 Excited State   1:      Singlet-A      1.6753 eV  740.06 nm  f=0.2099  <S**2>=0.000
     310 -> 316        0.16837
     311 -> 313        0.66571
     312 -> 314       -0.16585
     310 <- 316        0.10150
 This state for optimization and/or second-order correction.
 Total Energy, E(TD-HF/TD-DFT) =  -4069.75018882
 Copying the excited state density for this state as the 1-particle RhoCI density.

 Excited State   2:      Singlet-A      1.6801 eV  737.95 nm  f=0.5675  <S**2>=0.000
     309 -> 315        0.17037
     311 -> 313        0.16579
     312 -> 314        0.66534
     309 <- 315        0.10200

 Excited State   3:      Singlet-A      2.1861 eV  567.16 nm  f=0.0983  <S**2>=0.000
     310 -> 313        0.64223
     311 -> 316       -0.27298

 Excited State   4:      Singlet-A      2.1925 eV  565.50 nm  f=0.1024  <S**2>=0.000
     309 -> 314        0.64045
     312 -> 315       -0.27815

 Excited State   5:      Singlet-A      3.0631 eV  404.77 nm  f=0.0000  <S**2>=0.000
     312 -> 313        0.70711

 The electronic state is 1-A.
 Alpha  occ. eigenvalues --  -46.87775 -46.87660 -19.26337 -19.26254 -19.19150
 Alpha  occ. eigenvalues --  -19.18990 -19.18798 -19.18715 -19.18145 -19.18048
 Alpha  occ. eigenvalues --  -14.42496 -14.42428 -14.41429 -14.41359 -14.39382
 Alpha  occ. eigenvalues --  -14.39351 -14.38599 -14.38565 -10.39080 -10.39050
 Alpha  occ. eigenvalues --  -10.35431 -10.35393 -10.34365 -10.34225 -10.31739
 Alpha  occ. eigenvalues --  -10.31646 -10.31382 -10.31307 -10.31021 -10.30887
 Alpha  occ. eigenvalues --  -10.30548 -10.30486 -10.30397 -10.30359 -10.30188
 Alpha  occ. eigenvalues --  -10.30142 -10.29900 -10.29894 -10.29610 -10.29437
 Alpha  occ. eigenvalues --  -10.29400 -10.29234 -10.28724 -10.28714 -10.28642
 Alpha  occ. eigenvalues --  -10.28509 -10.28403 -10.28343 -10.28137 -10.28093
 Alpha  occ. eigenvalues --  -10.28000 -10.27771 -10.27706 -10.27668 -10.27564
 Alpha  occ. eigenvalues --  -10.27520 -10.27483 -10.27482 -10.27467 -10.27464
 Alpha  occ. eigenvalues --  -10.27462 -10.27432 -10.27381 -10.27378 -10.27133
 Alpha  occ. eigenvalues --  -10.27045 -10.26684 -10.26677 -10.26417 -10.26395
 Alpha  occ. eigenvalues --  -10.26212 -10.26167 -10.26140 -10.26023 -10.25999
 Alpha  occ. eigenvalues --  -10.25934 -10.25850 -10.25821 -10.25420 -10.25402
 Alpha  occ. eigenvalues --  -10.24871 -10.24811 -10.24767 -10.24732 -10.24690
 Alpha  occ. eigenvalues --  -10.24670  -3.16518  -3.16409  -1.91400  -1.91292
 Alpha  occ. eigenvalues --   -1.90986  -1.90880  -1.90828  -1.90717  -1.16631
 Alpha  occ. eigenvalues --   -1.16602  -1.08654  -1.08602  -1.07199  -1.06968
 Alpha  occ. eigenvalues --   -1.06934  -1.06613  -1.04559  -1.04494  -1.03740
 Alpha  occ. eigenvalues --   -1.03662  -1.03213  -1.03038  -1.02390  -1.02111
 Alpha  occ. eigenvalues --   -0.91985  -0.91949  -0.89500  -0.89495  -0.89164
 Alpha  occ. eigenvalues --   -0.89147  -0.88268  -0.88221  -0.87848  -0.87793
 Alpha  occ. eigenvalues --   -0.87682  -0.87651  -0.87254  -0.87120  -0.84996
 Alpha  occ. eigenvalues --   -0.84959  -0.83917  -0.83877  -0.82949  -0.82932
 Alpha  occ. eigenvalues --   -0.82650  -0.82626  -0.81590  -0.81560  -0.80573
 Alpha  occ. eigenvalues --   -0.80439  -0.78777  -0.78635  -0.77197  -0.77142
 Alpha  occ. eigenvalues --   -0.76910  -0.76894  -0.75899  -0.75834  -0.74878
 Alpha  occ. eigenvalues --   -0.74803  -0.72753  -0.72698  -0.71651  -0.71580
 Alpha  occ. eigenvalues --   -0.69889  -0.69759  -0.68850  -0.68824  -0.67620
 Alpha  occ. eigenvalues --   -0.67600  -0.67196  -0.67195  -0.65267  -0.65263
 Alpha  occ. eigenvalues --   -0.64831  -0.64768  -0.64650  -0.64598  -0.64250
 Alpha  occ. eigenvalues --   -0.64204  -0.62272  -0.62272  -0.60423  -0.60340
 Alpha  occ. eigenvalues --   -0.59794  -0.59781  -0.58991  -0.58966  -0.58482
 Alpha  occ. eigenvalues --   -0.58423  -0.57559  -0.57549  -0.57288  -0.57236
 Alpha  occ. eigenvalues --   -0.56288  -0.56203  -0.55951  -0.55879  -0.55499
 Alpha  occ. eigenvalues --   -0.55449  -0.55318  -0.55246  -0.54500  -0.54484
 Alpha  occ. eigenvalues --   -0.53908  -0.53871  -0.53278  -0.53227  -0.53199
 Alpha  occ. eigenvalues --   -0.53138  -0.52898  -0.52891  -0.52736  -0.52667
 Alpha  occ. eigenvalues --   -0.52420  -0.52402  -0.51892  -0.51884  -0.51655
 Alpha  occ. eigenvalues --   -0.51593  -0.51198  -0.51173  -0.50554  -0.50476
 Alpha  occ. eigenvalues --   -0.50013  -0.49978  -0.49898  -0.49868  -0.49493
 Alpha  occ. eigenvalues --   -0.49486  -0.49199  -0.49192  -0.49101  -0.49072
 Alpha  occ. eigenvalues --   -0.48569  -0.48554  -0.48442  -0.48424  -0.48376
 Alpha  occ. eigenvalues --   -0.48338  -0.47673  -0.47592  -0.47276  -0.47117
 Alpha  occ. eigenvalues --   -0.46776  -0.46707  -0.46550  -0.46531  -0.46338
 Alpha  occ. eigenvalues --   -0.46269  -0.46140  -0.46084  -0.45818  -0.45797
 Alpha  occ. eigenvalues --   -0.45209  -0.45182  -0.44554  -0.44511  -0.44486
 Alpha  occ. eigenvalues --   -0.44473  -0.44125  -0.44124  -0.44077  -0.44065
 Alpha  occ. eigenvalues --   -0.43997  -0.43937  -0.43547  -0.43470  -0.43383
 Alpha  occ. eigenvalues --   -0.43364  -0.43005  -0.42924  -0.42897  -0.42674
 Alpha  occ. eigenvalues --   -0.42632  -0.42554  -0.41988  -0.41962  -0.41682
 Alpha  occ. eigenvalues --   -0.41667  -0.41510  -0.41455  -0.41119  -0.40988
 Alpha  occ. eigenvalues --   -0.40847  -0.40804  -0.40720  -0.40696  -0.40551
 Alpha  occ. eigenvalues --   -0.40493  -0.40221  -0.40209  -0.39427  -0.39423
 Alpha  occ. eigenvalues --   -0.38449  -0.38350  -0.37723  -0.37648  -0.37300
 Alpha  occ. eigenvalues --   -0.37265  -0.37240  -0.37196  -0.36763  -0.36687
 Alpha  occ. eigenvalues --   -0.36214  -0.36169  -0.34264  -0.34252  -0.33853
 Alpha  occ. eigenvalues --   -0.33742  -0.33174  -0.33164  -0.31328  -0.31274
 Alpha  occ. eigenvalues --   -0.31014  -0.30972  -0.30004  -0.29952  -0.29428
 Alpha  occ. eigenvalues --   -0.29327  -0.29300  -0.29210  -0.24059  -0.24035
 Alpha  occ. eigenvalues --   -0.21116  -0.21106
 Alpha virt. eigenvalues --   -0.08791  -0.08753  -0.01729  -0.01683  -0.00038
 Alpha virt. eigenvalues --   -0.00028   0.02209   0.02223   0.03144   0.03231
 Alpha virt. eigenvalues --    0.04733   0.04741   0.05127   0.05175   0.06191

 Mulliken charges:
               1
     1  Mg   0.838761
     2  C   -0.002935
     3  C   -0.094106
     4  C   -0.045934
     5  C   -0.063965
     6  N   -0.256781
     7  C   -0.052462
     8  C   -0.013995
     9  C   -0.087016
    10  C    0.046342
    11  C    0.104818
    12  C    0.053469
    13  C   -0.071853
    14  H    0.036251
    15  N   -0.433147
    16  C    0.168417
    17  C   -0.177157
    18  C   -0.004033
    19  C    0.148734
    20  C    0.110180
    21  C    0.012257
    22  O   -0.249692
    23  C    0.062487
    24  N   -0.341156
    25  C    0.041268
    26  C   -0.028151
    27  C   -0.023975
    28  C    0.074834
    29  C    0.076186
    30  C    0.035147
    31  C   -0.004500
    32  N   -0.310476
    33  C    0.080424
    34  C   -0.169701
    35  C    0.008383
    36  C    0.083016
    37  C    0.127303
    38  C    0.046152
    39  O   -0.188363
    40  C   -0.005355
    41  C    0.212890
    42  O   -0.257047
    43  O   -0.304817
    44  C    0.157652
    45  H   -0.017614
    46  H   -0.016895
    47  H   -0.041500
    48  H    0.000953
    49  H   -0.004016
    50  H    0.025473
    51  H    0.016416
    52  H    0.016653
    53  H    0.011208
    54  H    0.044168
    55  H    0.017856
    56  H    0.017947
    57  H    0.005889
    58  H    0.026781
    59  H    0.039543
    60  H    0.037339
    61  H    0.035572
    62  H    0.031513
    63  H    0.016506
    64  H    0.009444
    65  H    0.023151
    66  H    0.012544
    67  H    0.004733
    68  H    0.006302
    69  H    0.004742
    70  H    0.008728
    71  H    0.018147
    72  H    0.029031
    73  H    0.047630
    74  H    0.009100
    75  H    0.046001
    76  H    0.035148
    77  H    0.042977
    78  H    0.046409
    79  H    0.053769
    80  Mg   0.837895
    81  C   -0.016816
    82  C   -0.087779
    83  C   -0.045513
    84  C   -0.064916
    85  N   -0.254556
    86  C   -0.049840
    87  C   -0.015066
    88  C   -0.090506
    89  C    0.045741
    90  C    0.114386
    91  C    0.062511
    92  C   -0.077953
    93  H    0.035083
    94  N   -0.423497
    95  C    0.162928
    96  C   -0.174631
    97  C   -0.007826
    98  C    0.152111
    99  C    0.099369
   100  C    0.015568
   101  O   -0.253209
   102  C    0.061200
   103  N   -0.350067
   104  C    0.037494
   105  C   -0.019833
   106  C   -0.034782
   107  C    0.088918
   108  C    0.073659
   109  C    0.034727
   110  C   -0.007686
   111  N   -0.324126
   112  C    0.078480
   113  C   -0.163127
   114  C    0.002274
   115  C    0.096208
   116  C    0.131477
   117  C    0.042405
   118  O   -0.187791
   119  C    0.000916
   120  C    0.211265
   121  O   -0.250955
   122  O   -0.305651
   123  C    0.151971
   124  H   -0.019659
   125  H   -0.015597
   126  H   -0.040457
   127  H   -0.000630
   128  H   -0.004291
   129  H    0.022452
   130  H    0.014387
   131  H    0.016290
   132  H    0.013922
   133  H    0.037729
   134  H    0.020771
   135  H    0.019590
   136  H    0.008779
   137  H    0.026117
   138  H    0.039805
   139  H    0.038245
   140  H    0.036372
   141  H    0.033911
   142  H    0.014397
   143  H    0.012398
   144  H    0.025122
   145  H    0.011625
   146  H    0.005655
   147  H    0.006241
   148  H    0.003659
   149  H    0.010922
   150  H    0.017961
   151  H    0.030130
   152  H    0.046069
   153  H    0.008508
   154  H    0.046924
   155  H    0.035019
   156  H    0.043969
   157  H    0.049518
   158  H    0.053686
 Sum of Mulliken charges =  -0.00000

 Dipole moment (field-independent basis, Debye):
    X=              1.6013    Y=              7.4059    Z=             -1.4278  Tot=              7.7103
 Quadrupole moment (field-independent basis, Debye-Ang):
   XX=           -429.0712   YY=           -537.4395   ZZ=           -470.3577
   XY=              4.6295   XZ=            -57.5082   YZ=             14.5111

 Normal termination of Gaussian 16 at Sun Sep 12 14:32:43 2021.
