 Gaussian 16, Revision A.03,
 Gaussian 16:  ES64L-G16RevA.03 25-Dec-2016

 -----------------------------------
 #p cam-b3lyp/Def2SVP td=(nstates=5)
 -----------------------------------

 --------------------------------
 TDDFT excited states in gaussian
 --------------------------------
 Symbolic Z-matrix:
 Charge =  0 Multiplicity = 1

                         Standard orientation:
 ---------------------------------------------------------------------
 Center     Atomic      Atomic             Coordinates (Angstroms)
 Number     Number       Type             X           Y           Z
 ---------------------------------------------------------------------
      1         12           0        3.771701   -0.611042    0.660091
      2          6           0        4.499606    2.238609   -1.379973
      3          6           0        4.768054    1.243269    3.345586
      4          6           0        3.570328   -3.244392    2.415522
      5          6           0        3.926477   -2.540582   -2.237939
      6          7           0        4.516548    1.466417    0.833337
      7          6           0        4.692220    2.473259   -0.016710
      8          6           0        5.027408    3.823160    0.685279
      9          6           0        5.630278    3.255480    2.047734
     10          6           0        4.902723    1.923578    2.098960
     11          6           0        7.131594    2.993049    1.987048
     12          6           0        3.750872    4.692786    0.942062
     13          6           0        4.019764    6.151884    1.321643
     14          1           0        3.105133    7.179050    0.846535
     15          7           0        3.647331   -0.838873    2.618528
     16          6           0        4.090063    0.024462    3.564006
     17          6           0        3.765625   -0.596003    4.866482
     18          6           0        3.269926   -1.975384    4.602503
     19          6           0        3.503764   -2.085434    3.185257
     20          6           0        3.889087    0.123799    6.174301
     21          6           0        2.688932   -3.031201    5.488973
     22          8           0        2.539453   -4.239724    5.099483
     23          6           0        2.377258   -2.628930    6.872476
     24          7           0        3.966982   -2.639065    0.205535
     25          6           0        3.774356   -3.577179    1.139249
     26          6           0        3.686591   -4.944731    0.529300
     27          6           0        3.616565   -4.720652   -1.050142
     28          6           0        3.767064   -3.179578   -1.076759
     29          6           0        4.842229   -5.899788    0.858508
     30          6           0        2.418794   -5.357796   -1.798348
     31          6           0        1.134057   -4.674793   -1.385970
     32          7           0        3.967912   -0.229145   -1.467513
     33          6           0        4.032708   -1.183548   -2.492984
     34          6           0        4.273941   -0.451411   -3.749904
     35          6           0        4.349731    0.885290   -3.363470
     36          6           0        4.193573    0.979570   -1.951019
     37          6           0        4.451385   -1.036896   -5.034488
     38          6           0        4.550885    2.253545   -3.812104
     39          8           0        4.641890    2.801009   -4.911874
     40          6           0        4.777573    3.172535   -2.531520
     41          6           0        3.899730    4.385103   -2.681116
     42          8           0        2.656468    4.283160   -2.645417
     43          8           0        4.653988    5.492213   -2.604023
     44          6           0        3.840235    6.732181   -2.715559
     45          1           0        5.275808    1.645971    4.224197
     46          1           0        3.394575   -4.169396    2.968618
     47          1           0        3.902104   -3.068059   -3.193254
     48          1           0        5.773975    4.429342    0.171853
     49          1           0        5.353584    3.871554    2.903079
     50          1           0        7.517275    3.117853    0.975319
     51          1           0        7.260635    1.962770    2.319262
     52          1           0        7.662364    3.610423    2.712243
     53          1           0        3.260709    4.351221    1.853728
     54          1           0        3.083082    4.661599    0.080430
     55          1           0        5.052280    6.434023    1.113757
     56          1           0        3.925734    6.246243    2.403519
     57          1           0        4.434374    1.060534    6.065966
     58          1           0        4.523901   -0.487445    6.815472
     59          1           0        2.921155    0.275373    6.652282
     60          1           0        3.286804   -2.274172    7.357677
     61          1           0        1.887813   -3.486873    7.332070
     62          1           0        1.692219   -1.780954    6.847806
     63          1           0        2.785760   -5.461990    0.856980
     64          1           0        4.492617   -5.122796   -1.559540
     65          1           0        4.520520   -6.833678    1.320090
     66          1           0        5.545976   -5.369051    1.499093
     67          1           0        5.475172   -6.160748    0.010746
     68          1           0        2.322199   -6.409996   -1.532847
     69          1           0        2.506949   -5.296205   -2.883100
     70          1           0        0.869329   -5.190619   -0.463650
     71          1           0        0.366248   -4.817220   -2.147150
     72          1           0        1.302559   -3.627008   -1.136493
     73          1           0        3.871001   -0.429846   -5.729192
     74          1           0        4.121734   -2.075558   -5.045209
     75          1           0        5.530445   -0.940030   -5.153241
     76          1           0        5.835536    3.432502   -2.515562
     77          1           0        4.253840    7.314561   -3.538965
     78          1           0        3.834162    7.188920   -1.725732
     79          1           0        2.810385    6.604358   -3.050835
     80         12           0       -4.065625    0.502090    0.214936
     81          6           0       -3.519465   -1.664670   -2.593249
     82          6           0       -4.588639   -2.301394    2.086179
     83          6           0       -4.991953    2.384204    2.595480
     84          6           0       -4.627170    3.080982   -2.060955
     85          7           0       -4.030308   -1.648632   -0.300259
     86          6           0       -3.750415   -2.355038   -1.385147
     87          6           0       -3.636970   -3.884466   -1.145283
     88          6           0       -4.540768   -3.988007    0.178092
     89          6           0       -4.352198   -2.570430    0.714389
     90          6           0       -6.017237   -4.194889   -0.116148
     91          6           0       -2.160510   -4.338348   -0.869480
     92          6           0       -1.929873   -5.849814   -0.932957
     93          1           0       -0.659355   -6.338424   -1.461672
     94          7           0       -4.218339    0.133158    2.158935
     95          6           0       -4.405925   -1.066877    2.747168
     96          6           0       -4.470909   -0.800676    4.192531
     97          6           0       -4.471375    0.673196    4.398489
     98          6           0       -4.584026    1.130814    3.028103
     99          6           0       -4.444893   -1.892046    5.222909
    100          6           0       -4.397261    1.528985    5.626639
    101          8           0       -4.653210    2.784337    5.589026
    102          6           0       -4.107562    0.837262    6.891180
    103          7           0       -4.922123    2.395859    0.263666
    104          6           0       -5.177369    3.009294    1.432636
    105          6           0       -5.532465    4.461616    1.220404
    106          6           0       -5.225664    4.758113   -0.320880
    107          6           0       -4.812637    3.340532   -0.773941
    108          6           0       -6.978274    4.845672    1.534280
    109          6           0       -4.269579    5.941784   -0.633102
    110          6           0       -2.872618    5.616697   -0.155388
    111          7           0       -3.899211    0.752011   -1.924662
    112          6           0       -4.208945    1.907416   -2.675125
    113          6           0       -4.045947    1.557065   -4.101003
    114          6           0       -3.672033    0.204915   -4.081980
    115          6           0       -3.626236   -0.260468   -2.740042
    116          6           0       -4.285579    2.424914   -5.203515
    117          6           0       -3.315990   -0.937416   -4.892536
    118          8           0       -3.103722   -1.120217   -6.090558
    119          6           0       -3.324293   -2.232835   -3.971548
    120          6           0       -2.059581   -3.001618   -4.239857
    121          8           0       -0.952124   -2.520067   -3.942757
    122          8           0       -2.376086   -4.258992   -4.599290
    123          6           0       -1.154207   -5.064031   -4.865277
    124          1           0       -4.992711   -3.099715    2.709309
    125          1           0       -5.216043    3.105561    3.384718
    126          1           0       -4.688458    3.856352   -2.827573
    127          1           0       -4.057177   -4.499996   -1.931611
    128          1           0       -4.136912   -4.716647    0.876196
    129          1           0       -6.232064   -4.119713   -1.171769
    130          1           0       -6.537748   -3.420507    0.431966
    131          1           0       -6.356671   -5.144294    0.307810
    132          1           0       -1.921085   -4.155919    0.186048
    133          1           0       -1.478939   -3.840684   -1.531607
    134          1           0       -2.769588   -6.375510   -1.403563
    135          1           0       -1.906979   -6.240503    0.087260
    136          1           0       -4.609627   -2.877291    4.769535
    137          1           0       -5.315867   -1.741737    5.869957
    138          1           0       -3.541361   -1.871052    5.835978
    139          1           0       -4.869309    0.082810    7.072866
    140          1           0       -4.006425    1.625982    7.639213
    141          1           0       -3.155423    0.304792    6.788528
    142          1           0       -4.912006    5.104842    1.832271
    143          1           0       -6.140182    5.011737   -0.876903
    144          1           0       -7.062036    5.653340    2.285765
    145          1           0       -7.501969    3.959790    1.868190
    146          1           0       -7.571079    5.154343    0.674913
    147          1           0       -4.583493    6.835883   -0.088856
    148          1           0       -4.233378    6.201679   -1.685790
    149          1           0       -2.908052    5.877446    0.906615
    150          1           0       -2.136867    6.218357   -0.685208
    151          1           0       -2.673529    4.540919   -0.224205
    152          1           0       -3.469092    2.278628   -5.898095
    153          1           0       -4.356121    3.462738   -4.884562
    154          1           0       -5.246172    2.036480   -5.552296
    155          1           0       -4.215117   -2.809011   -4.224626
    156          1           0       -1.251113   -5.466626   -5.878310
    157          1           0       -1.091478   -5.794444   -4.036839
    158          1           0       -0.211211   -4.534865   -4.937302
 ---------------------------------------------------------------------

 SCF Done:  E(RCAM-B3LYP) =  -4069.80539849     A.U. after   19 cycles

 Excitation energies and oscillator strengths:

 Excited State   1:      Singlet-A      1.6356 eV  758.03 nm  f=0.0041  <S**2>=0.000
     311 -> 313        0.49888
     312 -> 314        0.47279
 This state for optimization and/or second-order correction.
 Total Energy, E(TD-HF/TD-DFT) =  -4069.74529091
 Copying the excited state density for this state as the 1-particle RhoCI density.

 Excited State   2:      Singlet-A      1.7089 eV  725.51 nm  f=0.6798  <S**2>=0.000
     309 -> 315        0.10146
     310 -> 316        0.10740
     311 -> 313       -0.46991
     312 -> 314        0.49570

 Excited State   3:      Singlet-A      2.1781 eV  569.22 nm  f=0.0143  <S**2>=0.000
     309 -> 313        0.51353
     310 -> 314        0.39151
     311 -> 315        0.16687
     311 -> 316       -0.12980
     312 -> 315       -0.10294
     312 -> 316       -0.12434

 Excited State   4:      Singlet-A      2.1948 eV  564.91 nm  f=0.1593  <S**2>=0.000
     309 -> 313       -0.38679
     310 -> 314        0.50759
     311 -> 315       -0.14485
     312 -> 315       -0.12421
     312 -> 316       -0.18726

 Excited State   5:      Singlet-A      2.3618 eV  524.96 nm  f=0.0000  <S**2>=0.000
     312 -> 313        0.70610

 The electronic state is 1-A.
 Alpha  occ. eigenvalues --  -46.87527 -46.87472 -19.26494 -19.26079 -19.19263
 Alpha  occ. eigenvalues --  -19.18782 -19.18698 -19.18620 -19.17896 -19.17884
 Alpha  occ. eigenvalues --  -14.42309 -14.42186 -14.41200 -14.41174 -14.39175
 Alpha  occ. eigenvalues --  -14.39150 -14.38397 -14.38279 -10.39153 -10.38842
 Alpha  occ. eigenvalues --  -10.35342 -10.35305 -10.34103 -10.34082 -10.32063
 Alpha  occ. eigenvalues --  -10.31523 -10.31110 -10.31106 -10.30864 -10.30691
 Alpha  occ. eigenvalues --  -10.30260 -10.30227 -10.30210 -10.30156 -10.29989
 Alpha  occ. eigenvalues --  -10.29963 -10.29701 -10.29654 -10.29344 -10.29253
 Alpha  occ. eigenvalues --  -10.29212 -10.28997 -10.28555 -10.28534 -10.28364
 Alpha  occ. eigenvalues --  -10.28235 -10.28142 -10.28108 -10.27942 -10.27885
 Alpha  occ. eigenvalues --  -10.27812 -10.27514 -10.27470 -10.27458 -10.27347
 Alpha  occ. eigenvalues --  -10.27332 -10.27329 -10.27319 -10.27309 -10.27303
 Alpha  occ. eigenvalues --  -10.27296 -10.27294 -10.27209 -10.27143 -10.26969
 Alpha  occ. eigenvalues --  -10.26904 -10.26502 -10.26473 -10.26408 -10.26403
 Alpha  occ. eigenvalues --  -10.26064 -10.26023 -10.25906 -10.25857 -10.25728
 Alpha  occ. eigenvalues --  -10.25725 -10.25567 -10.25404 -10.25326 -10.25265
 Alpha  occ. eigenvalues --  -10.24680 -10.24553 -10.24534 -10.24517 -10.24428
 Alpha  occ. eigenvalues --  -10.24271  -3.16268  -3.16222  -1.91150  -1.91104
 Alpha  occ. eigenvalues --   -1.90737  -1.90693  -1.90578  -1.90529  -1.16777
 Alpha  occ. eigenvalues --   -1.16421  -1.08520  -1.08338  -1.07112  -1.07027
 Alpha  occ. eigenvalues --   -1.06879  -1.06406  -1.04322  -1.04312  -1.03510
 Alpha  occ. eigenvalues --   -1.03480  -1.02960  -1.02850  -1.02142  -1.01921
 Alpha  occ. eigenvalues --   -0.91833  -0.91704  -0.89315  -0.89304  -0.88966
 Alpha  occ. eigenvalues --   -0.88952  -0.88097  -0.88032  -0.87571  -0.87535
 Alpha  occ. eigenvalues --   -0.87490  -0.87416  -0.87073  -0.86976  -0.84848
 Alpha  occ. eigenvalues --   -0.84755  -0.83760  -0.83703  -0.82851  -0.82821
 Alpha  occ. eigenvalues --   -0.82533  -0.82439  -0.81563  -0.81349  -0.80373
 Alpha  occ. eigenvalues --   -0.80334  -0.78555  -0.78461  -0.77082  -0.76927
 Alpha  occ. eigenvalues --   -0.76800  -0.76662  -0.75733  -0.75680  -0.74716
 Alpha  occ. eigenvalues --   -0.74649  -0.72519  -0.72487  -0.71441  -0.71425
 Alpha  occ. eigenvalues --   -0.69770  -0.69546  -0.68655  -0.68654  -0.67450
 Alpha  occ. eigenvalues --   -0.67407  -0.67031  -0.67014  -0.65140  -0.65048
 Alpha  occ. eigenvalues --   -0.64666  -0.64600  -0.64515  -0.64408  -0.64068
 Alpha  occ. eigenvalues --   -0.64021  -0.62263  -0.62079  -0.60241  -0.60186
 Alpha  occ. eigenvalues --   -0.59616  -0.59559  -0.58834  -0.58740  -0.58291
 Alpha  occ. eigenvalues --   -0.58261  -0.57487  -0.57326  -0.57104  -0.57083
 Alpha  occ. eigenvalues --   -0.56151  -0.56060  -0.55926  -0.55770  -0.55403
 Alpha  occ. eigenvalues --   -0.55312  -0.55190  -0.55123  -0.54418  -0.54396
 Alpha  occ. eigenvalues --   -0.53746  -0.53671  -0.53128  -0.53097  -0.53038
 Alpha  occ. eigenvalues --   -0.52975  -0.52825  -0.52693  -0.52594  -0.52553
 Alpha  occ. eigenvalues --   -0.52272  -0.52176  -0.51653  -0.51587  -0.51529
 Alpha  occ. eigenvalues --   -0.51391  -0.51132  -0.50945  -0.50451  -0.50358
 Alpha  occ. eigenvalues --   -0.50139  -0.49755  -0.49694  -0.49633  -0.49363
 Alpha  occ. eigenvalues --   -0.49251  -0.49071  -0.48983  -0.48929  -0.48863
 Alpha  occ. eigenvalues --   -0.48491  -0.48342  -0.48294  -0.48265  -0.48219
 Alpha  occ. eigenvalues --   -0.48191  -0.47498  -0.47457  -0.47086  -0.46989
 Alpha  occ. eigenvalues --   -0.46600  -0.46499  -0.46408  -0.46327  -0.46150
 Alpha  occ. eigenvalues --   -0.46110  -0.45939  -0.45915  -0.45740  -0.45521
 Alpha  occ. eigenvalues --   -0.45141  -0.45021  -0.44405  -0.44376  -0.44309
 Alpha  occ. eigenvalues --   -0.44191  -0.44043  -0.43964  -0.43895  -0.43854
 Alpha  occ. eigenvalues --   -0.43787  -0.43723  -0.43525  -0.43273  -0.43205
 Alpha  occ. eigenvalues --   -0.43171  -0.42918  -0.42780  -0.42744  -0.42490
 Alpha  occ. eigenvalues --   -0.42452  -0.42343  -0.41801  -0.41747  -0.41506
 Alpha  occ. eigenvalues --   -0.41475  -0.41342  -0.41268  -0.40920  -0.40829
 Alpha  occ. eigenvalues --   -0.40733  -0.40709  -0.40587  -0.40552  -0.40373
 Alpha  occ. eigenvalues --   -0.40309  -0.40035  -0.39979  -0.39250  -0.39027
 Alpha  occ. eigenvalues --   -0.38295  -0.38070  -0.37537  -0.37262  -0.37117
 Alpha  occ. eigenvalues --   -0.37052  -0.37020  -0.36909  -0.36687  -0.36419
 Alpha  occ. eigenvalues --   -0.36076  -0.35914  -0.34083  -0.34014  -0.33883
 Alpha  occ. eigenvalues --   -0.33526  -0.32996  -0.32910  -0.31231  -0.31179
 Alpha  occ. eigenvalues --   -0.30808  -0.30787  -0.29805  -0.29739  -0.29208
 Alpha  occ. eigenvalues --   -0.29160  -0.29008  -0.29004  -0.23855  -0.23809
 Alpha  occ. eigenvalues --   -0.20925  -0.20853
 Alpha virt. eigenvalues --   -0.08611  -0.08509  -0.01509  -0.01504   0.00115
 Alpha virt. eigenvalues --    0.00144   0.02330   0.02453   0.02562   0.04443
 Alpha virt. eigenvalues --    0.04785   0.05004   0.05146   0.05335   0.06193

 Mulliken charges:
               1
     1  Mg   0.839979
     2  C   -0.003252
     3  C   -0.094140
     4  C   -0.047041
     5  C   -0.057425
     6  N   -0.256692
     7  C   -0.052289
     8  C   -0.014068
     9  C   -0.086864
    10  C    0.045722
    11  C    0.104992
    12  C    0.053369
    13  C   -0.071263
    14  H    0.034947
    15  N   -0.432802
    16  C    0.167615
    17  C   -0.178044
    18  C   -0.005292
    19  C    0.148201
    20  C    0.110442
    21  C    0.010605
    22  O   -0.251942
    23  C    0.063199
    24  N   -0.341210
    25  C    0.041130
    26  C   -0.028816
    27  C   -0.024405
    28  C    0.074901
    29  C    0.077047
    30  C    0.056181
    31  C   -0.037842
    32  N   -0.312026
    33  C    0.085031
    34  C   -0.162741
    35  C    0.008024
    36  C    0.085545
    37  C    0.127425
    38  C    0.047680
    39  O   -0.187875
    40  C   -0.006121
    41  C    0.212831
    42  O   -0.256297
    43  O   -0.304898
    44  C    0.158150
    45  H   -0.018485
    46  H   -0.018833
    47  H   -0.040986
    48  H    0.000599
    49  H   -0.004354
    50  H    0.025113
    51  H    0.016261
    52  H    0.016016
    53  H    0.011712
    54  H    0.044050
    55  H    0.017602
    56  H    0.018139
    57  H    0.005888
    58  H    0.025691
    59  H    0.037987
    60  H    0.038027
    61  H    0.033211
    62  H    0.029425
    63  H    0.015556
    64  H    0.008413
    65  H    0.021421
    66  H    0.012693
    67  H    0.004331
    68  H   -0.001522
    69  H    0.001436
    70  H    0.013317
    71  H    0.028416
    72  H    0.038098
    73  H    0.051614
    74  H    0.010459
    75  H    0.044052
    76  H    0.034526
    77  H    0.042574
    78  H    0.045959
    79  H    0.052762
    80  Mg   0.838363
    81  C   -0.017101
    82  C   -0.086695
    83  C   -0.045740
    84  C   -0.063270
    85  N   -0.254593
    86  C   -0.050841
    87  C   -0.007942
    88  C   -0.088430
    89  C    0.044943
    90  C    0.114811
    91  C    0.047150
    92  C   -0.085310
    93  H    0.034428
    94  N   -0.423386
    95  C    0.162600
    96  C   -0.175052
    97  C   -0.008741
    98  C    0.151909
    99  C    0.099787
   100  C    0.014531
   101  O   -0.254103
   102  C    0.061931
   103  N   -0.350119
   104  C    0.037465
   105  C   -0.019504
   106  C   -0.035004
   107  C    0.089203
   108  C    0.073912
   109  C    0.034629
   110  C   -0.007286
   111  N   -0.324932
   112  C    0.080562
   113  C   -0.159613
   114  C    0.002555
   115  C    0.097742
   116  C    0.131056
   117  C    0.044016
   118  O   -0.187817
   119  C   -0.000957
   120  C    0.210198
   121  O   -0.249582
   122  O   -0.304937
   123  C    0.149685
   124  H   -0.019839
   125  H   -0.016406
   126  H   -0.039580
   127  H   -0.002302
   128  H   -0.003619
   129  H    0.021863
   130  H    0.014155
   131  H    0.016055
   132  H    0.015580
   133  H    0.047785
   134  H    0.016904
   135  H    0.018677
   136  H    0.009776
   137  H    0.025279
   138  H    0.038981
   139  H    0.038746
   140  H    0.034949
   141  H    0.031890
   142  H    0.013746
   143  H    0.011982
   144  H    0.024302
   145  H    0.011361
   146  H    0.005404
   147  H    0.004723
   148  H    0.004393
   149  H    0.008274
   150  H    0.019967
   151  H    0.033042
   152  H    0.048684
   153  H    0.009481
   154  H    0.045827
   155  H    0.034910
   156  H    0.044844
   157  H    0.054305
   158  H    0.054504
 Sum of Mulliken charges =  -0.00000

 Dipole moment (field-independent basis, Debye):
    X=              0.1367    Y=             -1.3699    Z=              6.1634  Tot=              6.3153
 Quadrupole moment (field-independent basis, Debye-Ang):
   XX=           -489.9401   YY=           -466.2537   ZZ=           -536.3129
   XY=             12.7767   XZ=             15.9316   YZ=             13.2909

 Normal termination of Gaussian 16 at Wed Sep  8 19:46:47 2021.
