 Gaussian 16, Revision A.03,
 Gaussian 16:  ES64L-G16RevA.03 25-Dec-2016

 -----------------------------------
 #p cam-b3lyp/Def2SVP td=(nstates=5)
 -----------------------------------

 --------------------------------
 TDDFT excited states in gaussian
 --------------------------------
 Symbolic Z-matrix:
 Charge =  0 Multiplicity = 1

                         Standard orientation:
 ---------------------------------------------------------------------
 Center     Atomic      Atomic             Coordinates (Angstroms)
 Number     Number       Type             X           Y           Z
 ---------------------------------------------------------------------
      1         12           0        4.002512   -1.502769    0.570950
      2          6           0        4.985472    1.699127   -0.691534
      3          6           0        4.733371   -0.331065    3.691209
      4          6           0        3.576554   -4.450757    1.659319
      5          6           0        4.437673   -2.744431   -2.656212
      6          7           0        4.754781    0.454272    1.281389
      7          6           0        5.034843    1.617404    0.701854
      8          6           0        5.312796    2.763738    1.719712
      9          6           0        5.758437    1.884882    2.973114
     10          6           0        5.010250    0.603647    2.649728
     11          6           0        7.253669    1.585443    3.006537
     12          6           0        4.028942    3.602578    2.035618
     13          6           0        4.276995    4.929480    2.758913
     14          1           0        3.433369    6.070663    2.437444
     15          7           0        3.666468   -2.155249    2.405124
     16          6           0        4.018259   -1.541167    3.560300
     17          6           0        3.547624   -2.422752    4.650250
     18          6           0        3.062904   -3.689032    4.034071
     19          6           0        3.445080   -3.490184    2.659379
     20          6           0        3.541231   -2.016859    6.092110
     21          6           0        2.375278   -4.892514    4.597040
     22          8           0        2.250651   -5.977646    3.932562
     23          6           0        1.923578   -4.796200    5.996944
     24          7           0        4.215647   -3.384981   -0.306253
     25          6           0        3.910800   -4.499104    0.368123
     26          6           0        3.868746   -5.692525   -0.539575
     27          6           0        3.971009   -5.120518   -2.026889
     28          6           0        4.145916   -3.618959   -1.690735
     29          6           0        4.968602   -6.740222   -0.318989
     30          6           0        2.850809   -5.529284   -3.016072
     31          6           0        1.539474   -4.906527   -2.592196
     32          7           0        4.430280   -0.665333   -1.385261
     33          6           0        4.590277   -1.369717   -2.587309
     34          6           0        4.974954   -0.386287   -3.616366
     35          6           0        5.028514    0.827210   -2.933432
     36          6           0        4.723849    0.611101   -1.559107
     37          6           0        5.279978   -0.677962   -4.975160
     38          6           0        5.296319    2.252261   -3.040050
     39          8           0        5.512176    3.026577   -3.973503
     40          6           0        5.398359    2.854328   -1.569360
     41          6           0        4.559255    4.102391   -1.529940
     42          8           0        3.317936    4.042554   -1.643568
     43          8           0        5.317015    5.135087   -1.130090
     44          6           0        4.537965    6.398941   -1.041160
     45          1           0        5.150236   -0.153370    4.684481
     46          1           0        3.329306   -5.468159    1.969479
     47          1           0        4.507747   -3.045075   -3.703187
     48          1           0        6.118657    3.439943    1.433777
     49          1           0        5.401011    2.305542    3.912802
     50          1           0        7.746932    1.917179    2.092992
     51          1           0        7.331488    0.502944    3.109659
     52          1           0        7.712920    2.005500    3.901756
     53          1           0        3.439332    3.085888    2.792884
     54          1           0        3.456572    3.789159    1.126274
     55          1           0        5.329803    5.211177    2.724982
     56          1           0        4.069389    4.784548    3.819146
     57          1           0        4.108550   -1.100969    6.252859
     58          1           0        4.094997   -2.779070    6.639911
     59          1           0        2.530113   -1.938505    6.491902
     60          1           0        2.781197   -4.593102    6.638653
     61          1           0        1.375423   -5.715524    6.199967
     62          1           0        1.257510   -3.938457    6.094821
     63          1           0        2.930645   -6.234933   -0.429186
     64          1           0        4.890487   -5.432501   -2.522773
     65          1           0        4.585888   -7.740376   -0.114226
     66          1           0        5.607594   -6.392363    0.492168
     67          1           0        5.684566   -6.830185   -1.135518
     68          1           0        2.711108   -6.609706   -3.005274
     69          1           0        3.055153   -5.231556   -4.044591
     70          1           0        1.170310   -5.603955   -1.841101
     71          1           0        0.855322   -4.846831   -3.439299
     72          1           0        1.695620   -3.947600   -2.097661
     73          1           0        4.785978    0.089984   -5.570300
     74          1           0        4.938263   -1.674917   -5.252495
     75          1           0        6.366844   -0.598351   -4.959711
     76          1           0        6.452245    3.063705   -1.388783
     77          1           0        5.045549    7.133549   -1.666415
     78          1           0        4.432907    6.624159    0.020275
     79          1           0        3.548043    6.388200   -1.498628
     80         12           0       -4.770053    0.193607   -0.534230
     81          6           0       -2.122304    2.614769   -0.453802
     82          6           0       -6.186153    1.876186    2.073106
     83          6           0       -6.874756   -2.167456   -0.283111
     84          6           0       -2.619527   -1.893992   -2.312686
     85          7           0       -4.140795    1.998744    0.578320
     86          6           0       -3.148354    2.870333    0.479667
     87          6           0       -3.303184    4.125873    1.379230
     88          6           0       -4.272217    3.502310    2.497710
     89          6           0       -4.938956    2.411090    1.662628
     90          6           0       -3.522801    2.838149    3.640779
     91          6           0       -3.988571    5.319778    0.626328
     92          6           0       -3.893098    6.669956    1.340216
     93          1           0       -3.749337    7.876743    0.530595
     94          7           0       -6.540933    0.141474    0.360105
     95          6           0       -6.956492    0.911131    1.387829
     96          6           0       -8.326192    0.469586    1.692982
     97          6           0       -8.625210   -0.734080    0.870490
     98          6           0       -7.322767   -0.984514    0.286513
     99          6           0       -9.234720    1.219725    2.623179
    100          6           0       -9.873319   -1.535659    0.656267
    101          8           0       -9.847058   -2.682986    0.085496
    102          6           0      -11.113520   -0.980333    1.217514
    103          7           0       -4.685278   -1.827704   -1.013250
    104          6           0       -5.758528   -2.621716   -0.853192
    105          6           0       -5.549879   -3.961463   -1.517968
    106          6           0       -4.203471   -3.814114   -2.368286
    107          6           0       -3.801369   -2.380159   -1.959043
    108          6           0       -5.428383   -5.159505   -0.576525
    109          6           0       -4.285786   -4.155321   -3.881391
    110          6           0       -5.147230   -3.137609   -4.593832
    111          7           0       -2.809487    0.374605   -1.423868
    112          6           0       -2.083393   -0.630425   -2.099736
    113          6           0       -0.756502   -0.066677   -2.422192
    114          6           0       -0.794737    1.229712   -1.887024
    115          6           0       -2.049009    1.450786   -1.256614
    116          6           0        0.302140   -0.754519   -3.079657
    117          6           0       -0.055330    2.457731   -1.702770
    118          8           0        1.028420    2.886647   -2.096791
    119          6           0       -0.835136    3.364978   -0.656262
    120          6           0       -0.916873    4.757538   -1.218939
    121          8           0       -1.574439    4.985165   -2.249673
    122          8           0       -0.389674    5.622330   -0.333184
    123          6           0       -0.457822    7.018339   -0.841464
    124          1           0       -6.596281    2.193367    3.032305
    125          1           0       -7.605033   -2.979110   -0.320211
    126          1           0       -1.928030   -2.447538   -2.951507
    127          1           0       -2.384245    4.473875    1.835536
    128          1           0       -5.007746    4.229021    2.832723
    129          1           0       -2.460462    2.791267    3.452671
    130          1           0       -3.936591    1.841725    3.724198
    131          1           0       -3.753320    3.340217    4.584777
    132          1           0       -5.076557    5.175558    0.641839
    133          1           0       -3.605934    5.410826   -0.371642
    134          1           0       -3.150494    6.657905    2.147268
    135          1           0       -4.840392    6.860447    1.850483
    136          1           0       -8.684436    1.969005    3.205557
    137          1           0       -9.590226    0.502202    3.370610
    138          1           0      -10.096630    1.653252    2.111479
    139          1           0      -10.997597   -0.850150    2.290858
    140          1           0      -11.909843   -1.649092    0.885082
    141          1           0      -11.272553    0.017976    0.794776
    142          1           0       -6.367102   -4.190778   -2.190778
    143          1           0       -3.411618   -4.480785   -1.996312
    144          1           0       -6.172246   -5.952546   -0.781051
    145          1           0       -5.521077   -4.804569    0.441306
    146          1           0       -4.451980   -5.640880   -0.565303
    147          1           0       -4.768110   -5.125286   -4.025190
    148          1           0       -3.316727   -4.202398   -4.366887
    149          1           0       -6.162019   -3.506808   -4.417826
    150          1           0       -4.914144   -3.115170   -5.656464
    151          1           0       -5.067644   -2.152971   -4.118637
    152          1           0        0.719270   -0.065955   -3.802422
    153          1           0       -0.051720   -1.666327   -3.556272
    154          1           0        0.956838   -0.963267   -2.229329
    155          1           0       -0.279528    3.334425    0.281799
    156          1           0        0.561348    7.416440   -0.819553
    157          1           0       -1.211570    7.528681   -0.212852
    158          1           0       -0.717849    7.160020   -1.883953
 ---------------------------------------------------------------------

 SCF Done:  E(RCAM-B3LYP) =  -4069.80402611     A.U. after   19 cycles

 Excitation energies and oscillator strengths:

 Excited State   1:      Singlet-A      1.6435 eV  754.38 nm  f=0.2006  <S**2>=0.000
     309 -> 315       -0.11409
     310 -> 316        0.11990
     311 -> 313       -0.47471
     312 -> 314        0.49672
 This state for optimization and/or second-order correction.
 Total Energy, E(TD-HF/TD-DFT) =  -4069.74362778
 Copying the excited state density for this state as the 1-particle RhoCI density.

 Excited State   2:      Singlet-A      1.7070 eV  726.31 nm  f=0.5532  <S**2>=0.000
     309 -> 315        0.13132
     310 -> 316        0.12439
     311 -> 313        0.49371
     312 -> 314        0.47227

 Excited State   3:      Singlet-A      2.1797 eV  568.82 nm  f=0.0008  <S**2>=0.000
     309 -> 313        0.47671
     310 -> 314       -0.43453
     311 -> 315       -0.19773
     312 -> 316        0.18085

 Excited State   4:      Singlet-A      2.1989 eV  563.86 nm  f=0.1655  <S**2>=0.000
     309 -> 313        0.42839
     310 -> 314        0.47094
     311 -> 315       -0.19318
     312 -> 316       -0.20926

 Excited State   5:      Singlet-A      2.3638 eV  524.52 nm  f=0.0000  <S**2>=0.000
     312 -> 313        0.70538

 The electronic state is 1-A.
 Alpha  occ. eigenvalues --  -46.87559 -46.87312 -19.25921 -19.25440 -19.18649
 Alpha  occ. eigenvalues --  -19.18617 -19.18392 -19.17708 -19.17672 -19.16973
 Alpha  occ. eigenvalues --  -14.42210 -14.42184 -14.41232 -14.41006 -14.39161
 Alpha  occ. eigenvalues --  -14.38993 -14.38338 -14.38212 -10.38599 -10.37894
 Alpha  occ. eigenvalues --  -10.35257 -10.35077 -10.33879 -10.33183 -10.31542
 Alpha  occ. eigenvalues --  -10.31181 -10.31112 -10.30936 -10.30712 -10.30624
 Alpha  occ. eigenvalues --  -10.30275 -10.30244 -10.30056 -10.30002 -10.29943
 Alpha  occ. eigenvalues --  -10.29860 -10.29689 -10.29514 -10.29357 -10.29128
 Alpha  occ. eigenvalues --  -10.29058 -10.28997 -10.28505 -10.28480 -10.28467
 Alpha  occ. eigenvalues --  -10.28331 -10.28054 -10.28008 -10.27906 -10.27865
 Alpha  occ. eigenvalues --  -10.27552 -10.27502 -10.27493 -10.27443 -10.27351
 Alpha  occ. eigenvalues --  -10.27346 -10.27323 -10.27307 -10.27250 -10.27180
 Alpha  occ. eigenvalues --  -10.27122 -10.27082 -10.27081 -10.27078 -10.26570
 Alpha  occ. eigenvalues --  -10.26472 -10.26455 -10.26408 -10.26268 -10.26262
 Alpha  occ. eigenvalues --  -10.26160 -10.26009 -10.25932 -10.25877 -10.25831
 Alpha  occ. eigenvalues --  -10.25604 -10.25583 -10.25426 -10.25335 -10.25110
 Alpha  occ. eigenvalues --  -10.24922 -10.24545 -10.24522 -10.24503 -10.24427
 Alpha  occ. eigenvalues --  -10.24319  -3.16308  -3.16063  -1.91191  -1.90945
 Alpha  occ. eigenvalues --   -1.90775  -1.90617  -1.90534  -1.90369  -1.16185
 Alpha  occ. eigenvalues --   -1.15744  -1.08083  -1.07651  -1.07024  -1.06651
 Alpha  occ. eigenvalues --   -1.06406  -1.05473  -1.04315  -1.04158  -1.03533
 Alpha  occ. eigenvalues --   -1.03309  -1.02980  -1.02675  -1.02159  -1.01739
 Alpha  occ. eigenvalues --   -0.91593  -0.91543  -0.89381  -0.89163  -0.88922
 Alpha  occ. eigenvalues --   -0.88902  -0.88139  -0.87909  -0.87593  -0.87432
 Alpha  occ. eigenvalues --   -0.87390  -0.87349  -0.87053  -0.86782  -0.84726
 Alpha  occ. eigenvalues --   -0.84718  -0.83826  -0.83574  -0.82796  -0.82631
 Alpha  occ. eigenvalues --   -0.82374  -0.82357  -0.81226  -0.81172  -0.80267
 Alpha  occ. eigenvalues --   -0.80094  -0.78555  -0.78270  -0.77032  -0.76855
 Alpha  occ. eigenvalues --   -0.76671  -0.76602  -0.75597  -0.75516  -0.74705
 Alpha  occ. eigenvalues --   -0.74483  -0.72532  -0.72334  -0.71413  -0.71247
 Alpha  occ. eigenvalues --   -0.69872  -0.69491  -0.68618  -0.68527  -0.67362
 Alpha  occ. eigenvalues --   -0.67208  -0.66969  -0.66916  -0.65012  -0.64959
 Alpha  occ. eigenvalues --   -0.64591  -0.64430  -0.64324  -0.64315  -0.64085
 Alpha  occ. eigenvalues --   -0.63873  -0.61895  -0.61797  -0.60235  -0.59994
 Alpha  occ. eigenvalues --   -0.59538  -0.59499  -0.58716  -0.58622  -0.58196
 Alpha  occ. eigenvalues --   -0.58028  -0.57202  -0.57050  -0.56874  -0.56810
 Alpha  occ. eigenvalues --   -0.56044  -0.55843  -0.55532  -0.55482  -0.55279
 Alpha  occ. eigenvalues --   -0.55120  -0.55086  -0.54911  -0.54180  -0.54074
 Alpha  occ. eigenvalues --   -0.53643  -0.53614  -0.53075  -0.52959  -0.52895
 Alpha  occ. eigenvalues --   -0.52836  -0.52636  -0.52560  -0.52538  -0.52388
 Alpha  occ. eigenvalues --   -0.52286  -0.52019  -0.51617  -0.51465  -0.51362
 Alpha  occ. eigenvalues --   -0.51341  -0.50896  -0.50725  -0.50411  -0.50189
 Alpha  occ. eigenvalues --   -0.49943  -0.49709  -0.49694  -0.49563  -0.49273
 Alpha  occ. eigenvalues --   -0.49182  -0.49002  -0.48866  -0.48830  -0.48629
 Alpha  occ. eigenvalues --   -0.48370  -0.48285  -0.48179  -0.48125  -0.48042
 Alpha  occ. eigenvalues --   -0.47519  -0.47434  -0.47101  -0.47021  -0.46796
 Alpha  occ. eigenvalues --   -0.46577  -0.46391  -0.46279  -0.46271  -0.46129
 Alpha  occ. eigenvalues --   -0.45928  -0.45803  -0.45660  -0.45469  -0.45309
 Alpha  occ. eigenvalues --   -0.45021  -0.44874  -0.44350  -0.44231  -0.44205
 Alpha  occ. eigenvalues --   -0.44036  -0.43964  -0.43851  -0.43773  -0.43742
 Alpha  occ. eigenvalues --   -0.43637  -0.43441  -0.43210  -0.43177  -0.43100
 Alpha  occ. eigenvalues --   -0.43006  -0.42757  -0.42607  -0.42564  -0.42440
 Alpha  occ. eigenvalues --   -0.42252  -0.41853  -0.41737  -0.41649  -0.41363
 Alpha  occ. eigenvalues --   -0.41279  -0.41172  -0.41040  -0.40871  -0.40686
 Alpha  occ. eigenvalues --   -0.40624  -0.40605  -0.40438  -0.40430  -0.40362
 Alpha  occ. eigenvalues --   -0.40163  -0.39994  -0.39991  -0.39446  -0.39163
 Alpha  occ. eigenvalues --   -0.38337  -0.38068  -0.37498  -0.37406  -0.37143
 Alpha  occ. eigenvalues --   -0.36989  -0.36956  -0.36874  -0.36356  -0.36268
 Alpha  occ. eigenvalues --   -0.35861  -0.35411  -0.34027  -0.33884  -0.33381
 Alpha  occ. eigenvalues --   -0.33048  -0.32818  -0.32401  -0.31144  -0.30956
 Alpha  occ. eigenvalues --   -0.30714  -0.30620  -0.29524  -0.29197  -0.29030
 Alpha  occ. eigenvalues --   -0.28961  -0.28847  -0.28690  -0.23801  -0.23680
 Alpha  occ. eigenvalues --   -0.20880  -0.20757
 Alpha virt. eigenvalues --   -0.08501  -0.08393  -0.01524  -0.01359   0.00204
 Alpha virt. eigenvalues --    0.00345   0.02525   0.02572   0.03234   0.03607
 Alpha virt. eigenvalues --    0.04915   0.05015   0.05665   0.05988   0.06289

 Mulliken charges:
               1
     1  Mg   0.833622
     2  C    0.004906
     3  C   -0.094280
     4  C   -0.046747
     5  C   -0.066646
     6  N   -0.255580
     7  C   -0.054357
     8  C   -0.013372
     9  C   -0.086674
    10  C    0.045535
    11  C    0.105035
    12  C    0.051159
    13  C   -0.070201
    14  H    0.034446
    15  N   -0.432990
    16  C    0.167186
    17  C   -0.177942
    18  C   -0.004824
    19  C    0.148808
    20  C    0.110434
    21  C    0.011747
    22  O   -0.250813
    23  C    0.062773
    24  N   -0.340441
    25  C    0.040409
    26  C   -0.027933
    27  C   -0.023659
    28  C    0.074258
    29  C    0.076411
    30  C    0.035841
    31  C   -0.006198
    32  N   -0.315060
    33  C    0.081169
    34  C   -0.170747
    35  C    0.010040
    36  C    0.089998
    37  C    0.126483
    38  C    0.057546
    39  O   -0.186825
    40  C   -0.008191
    41  C    0.201417
    42  O   -0.222353
    43  O   -0.308688
    44  C    0.159116
    45  H   -0.018536
    46  H   -0.018008
    47  H   -0.043234
    48  H    0.001177
    49  H   -0.005326
    50  H    0.025561
    51  H    0.016050
    52  H    0.015646
    53  H    0.008134
    54  H    0.051559
    55  H    0.017608
    56  H    0.015785
    57  H    0.005124
    58  H    0.026093
    59  H    0.038026
    60  H    0.037042
    61  H    0.034866
    62  H    0.030839
    63  H    0.015201
    64  H    0.009591
    65  H    0.022542
    66  H    0.012982
    67  H    0.004353
    68  H    0.006259
    69  H    0.004677
    70  H    0.009072
    71  H    0.014723
    72  H    0.027407
    73  H    0.049451
    74  H    0.007322
    75  H    0.045619
    76  H    0.032386
    77  H    0.039719
    78  H    0.042575
    79  H    0.052614
    80  Mg   0.835949
    81  C   -0.017315
    82  C   -0.088039
    83  C   -0.046013
    84  C   -0.066715
    85  N   -0.253758
    86  C   -0.050718
    87  C   -0.014192
    88  C   -0.090242
    89  C    0.044522
    90  C    0.114820
    91  C    0.062787
    92  C   -0.076998
    93  H    0.034062
    94  N   -0.423187
    95  C    0.161701
    96  C   -0.175659
    97  C   -0.008713
    98  C    0.151434
    99  C    0.099799
   100  C    0.014873
   101  O   -0.254278
   102  C    0.061489
   103  N   -0.350223
   104  C    0.037062
   105  C   -0.019592
   106  C   -0.034771
   107  C    0.089762
   108  C    0.073728
   109  C    0.034905
   110  C   -0.007464
   111  N   -0.324426
   112  C    0.079272
   113  C   -0.173148
   114  C    0.005884
   115  C    0.095930
   116  C    0.133450
   117  C    0.031516
   118  O   -0.147249
   119  C    0.000312
   120  C    0.218801
   121  O   -0.252435
   122  O   -0.306079
   123  C    0.154833
   124  H   -0.021263
   125  H   -0.016529
   126  H   -0.041109
   127  H   -0.002048
   128  H   -0.005263
   129  H    0.020809
   130  H    0.014178
   131  H    0.014426
   132  H    0.013862
   133  H    0.038357
   134  H    0.019273
   135  H    0.019030
   136  H    0.007616
   137  H    0.024839
   138  H    0.038690
   139  H    0.037667
   140  H    0.035422
   141  H    0.033462
   142  H    0.013623
   143  H    0.012847
   144  H    0.024210
   145  H    0.011723
   146  H    0.005918
   147  H    0.005531
   148  H    0.002211
   149  H    0.010816
   150  H    0.017082
   151  H    0.030809
   152  H    0.047915
   153  H    0.005266
   154  H    0.054258
   155  H    0.033631
   156  H    0.036659
   157  H    0.047407
   158  H    0.054281
 Sum of Mulliken charges =  -0.00000

 Dipole moment (field-independent basis, Debye):
    X=              0.1787    Y=              1.1541    Z=              7.1470  Tot=              7.2417
 Quadrupole moment (field-independent basis, Debye-Ang):
   XX=           -506.1334   YY=           -497.5178   ZZ=           -491.2065
   XY=            -27.5002   XZ=              4.5733   YZ=             54.7194

 Normal termination of Gaussian 16 at Fri Sep 10 01:28:03 2021.
