 Gaussian 16, Revision A.03,
 Gaussian 16:  ES64L-G16RevA.03 25-Dec-2016

 -----------------------------------
 #p cam-b3lyp/Def2SVP td=(nstates=5)
 -----------------------------------

 --------------------------------
 TDDFT excited states in gaussian
 --------------------------------
 Symbolic Z-matrix:
 Charge =  0 Multiplicity = 1

                         Standard orientation:
 ---------------------------------------------------------------------
 Center     Atomic      Atomic             Coordinates (Angstroms)
 Number     Number       Type             X           Y           Z
 ---------------------------------------------------------------------
      1         12           0        6.610874   -1.030384    0.256939
      2          6           0        7.164781    1.794722   -1.870073
      3          6           0        7.840250    0.850053    2.825139
      4          6           0        6.557250   -3.643870    2.052332
      5          6           0        6.509687   -2.991790   -2.622004
      6          7           0        7.372150    1.046607    0.341856
      7          6           0        7.475438    2.043614   -0.531345
      8          6           0        7.873009    3.400067    0.123899
      9          6           0        8.590678    2.845447    1.435138
     10          6           0        7.867615    1.516356    1.564059
     11          6           0       10.080531    2.577898    1.247364
     12          6           0        6.625334    4.276235    0.480782
     13          6           0        6.929104    5.738569    0.819394
     14          1           0        5.978779    6.763227    0.414048
     15          7           0        6.656450   -1.236524    2.221189
     16          6           0        7.181302   -0.364279    3.115059
     17          6           0        6.969850   -0.969568    4.447574
     18          6           0        6.450322   -2.350255    4.242912
     19          6           0        6.560076   -2.476413    2.812032
     20          6           0        7.207788   -0.235952    5.731685
     21          6           0        5.946303   -3.394629    5.188100
     22          8           0        5.761144   -4.606867    4.826479
     23          6           0        5.756671   -2.976404    6.588874
     24          7           0        6.761866   -3.063806   -0.190312
     25          6           0        6.649088   -3.991128    0.766944
     26          6           0        6.505956   -5.364967    0.182120
     27          6           0        6.299596   -5.157876   -1.387683
     28          6           0        6.450339   -3.617638   -1.444353
     29          6           0        7.683865   -6.319826    0.420418
     30          6           0        5.040131   -5.799548   -2.022052
     31          6           0        3.797409   -5.108274   -1.507388
     32          7           0        6.622499   -0.672242   -1.883773
     33          6           0        6.596135   -1.637934   -2.900344
     34          6           0        6.728874   -0.920236   -4.181500
     35          6           0        6.840617    0.420358   -3.817953
     36          6           0        6.807802    0.530463   -2.398414
     37          6           0        6.792996   -1.520188   -5.470057
     38          6           0        7.004854    1.783045   -4.297500
     39          8           0        7.001195    2.318239   -5.407025
     40          6           0        7.343669    2.715233   -3.051683
     41          6           0        6.458614    3.928712   -3.138013
     42          8           0        5.222935    3.830871   -2.993473
     43          8           0        7.218957    5.034343   -3.138928
     44          6           0        6.401109    6.275444   -3.193207
     45          1           0        8.423143    1.260775    3.651870
     46          1           0        6.428280   -4.562274    2.628820
     47          1           0        6.401441   -3.529554   -3.565691
     48          1           0        8.573435    3.998399   -0.459047
     49          1           0        8.390497    3.471612    2.304371
     50          1           0       10.377218    2.690538    0.204670
     51          1           0       10.235825    1.550914    1.578544
     52          1           0       10.673476    3.201540    1.916889
     53          1           0        6.215437    3.946071    1.435265
     54          1           0        5.885235    4.237668   -0.319275
     55          1           0        7.940257    6.015351    0.519607
     56          1           0        6.929498    5.844971    1.904234
     57          1           0        7.743514    0.697919    5.566069
     58          1           0        7.894604   -0.842074    6.322115
     59          1           0        6.285292   -0.076302    6.290116
     60          1           0        6.705606   -2.619101    6.989382
     61          1           0        5.307216   -3.827834    7.098685
     62          1           0        5.073794   -2.126709    6.614313
     63          1           0        5.635912   -5.875943    0.592427
     64          1           0        7.127326   -5.568147   -1.966661
     65          1           0        7.401531   -7.247676    0.918501
     66          1           0        8.441617   -5.784252    0.991613
     67          1           0        8.240328   -6.591879   -0.476105
     68          1           0        4.964807   -6.848505   -1.737513
     69          1           0        5.033951   -5.750025   -3.110978
     70          1           0        3.612668   -5.613243   -0.559913
     71          1           0        2.966159   -5.256683   -2.197467
     72          1           0        3.989045   -4.058343   -1.285110
     73          1           0        6.155750   -0.919004   -6.118490
     74          1           0        6.461554   -2.557917   -5.440616
     75          1           0        7.857875   -1.427836   -5.683034
     76          1           0        8.399550    2.972203   -3.130445
     77          1           0        6.742883    6.847597   -4.055799
     78          1           0        6.481874    6.742940   -2.211714
     79          1           0        5.345794    6.147051   -3.436446
     80         12           0       -6.472521    0.855644    0.628029
     81          6           0       -7.612040   -1.111276   -2.148985
     82          6           0       -8.122843   -1.330168    2.661085
     83          6           0       -5.866800    2.809033    3.053894
     84          6           0       -5.904909    3.454005   -1.624083
     85          7           0       -7.675580   -0.948901    0.193803
     86          6           0       -7.988553   -1.635421   -0.894811
     87          6           0       -8.677744   -2.998779   -0.619447
     88          6           0       -9.280342   -2.674522    0.833350
     89          6           0       -8.281363   -1.609077    1.280082
     90          6           0      -10.661896   -2.043428    0.784670
     91          6           0       -7.653357   -4.186062   -0.564484
     92          6           0       -8.282183   -5.580503   -0.607666
     93          1           0       -7.570814   -6.643300   -1.312561
     94          7           0       -6.498804    0.520790    2.583980
     95          6           0       -7.207747   -0.422720    3.238569
     96          6           0       -6.897153   -0.241862    4.665099
     97          6           0       -6.075579    0.990050    4.813771
     98          6           0       -6.133959    1.510501    3.462538
     99          6           0       -7.302688   -1.231942    5.718045
    100          6           0       -5.366691    1.605463    5.982085
    101          8           0       -4.911725    2.802954    5.939024
    102          6           0       -5.303133    0.798670    7.209491
    103          7           0       -6.160401    2.907957    0.741668
    104          6           0       -5.863916    3.498344    1.912775
    105          6           0       -5.412411    4.924421    1.705832
    106          6           0       -5.235282    5.093949    0.125492
    107          6           0       -5.722167    3.702269   -0.334452
    108          6           0       -6.358320    6.004454    2.230412
    109          6           0       -3.854898    5.597706   -0.377946
    110          6           0       -2.796465    4.550600   -0.115931
    111          7           0       -6.528696    1.093416   -1.518675
    112          6           0       -6.281342    2.274044   -2.252868
    113          6           0       -6.552734    1.968764   -3.672575
    114          6           0       -6.964553    0.627570   -3.662967
    115          6           0       -6.970182    0.137884   -2.328925
    116          6           0       -6.455423    2.888515   -4.754576
    117          6           0       -7.405987   -0.482151   -4.476808
    118          8           0       -7.511663   -0.684843   -5.685728
    119          6           0       -7.966231   -1.620013   -3.518782
    120          6           0       -7.369948   -2.930078   -3.955448
    121          8           0       -6.146944   -3.132381   -3.855655
    122          8           0       -8.362069   -3.801610   -4.213350
    123          6           0       -7.820436   -5.119468   -4.639597
    124          1           0       -8.790699   -1.821036    3.369531
    125          1           0       -5.544851    3.494353    3.841399
    126          1           0       -5.657617    4.182181   -2.399509
    127          1           0       -9.477244   -3.250469   -1.305891
    128          1           0       -9.228752   -3.542775    1.485144
    129          1           0      -10.961866   -1.807899   -0.225616
    130          1           0      -10.594549   -1.141787    1.379276
    131          1           0      -11.387685   -2.685468    1.291965
    132          1           0       -7.194839   -4.217515    0.432270
    133          1           0       -6.922385   -4.094994   -1.344231
    134          1           0       -9.333269   -5.549205   -0.919439
    135          1           0       -8.316141   -5.977517    0.409811
    136          1           0       -8.037328   -1.950072    5.333334
    137          1           0       -7.845712   -0.674496    6.488923
    138          1           0       -6.447432   -1.730684    6.178988
    139          1           0       -6.312075    0.560006    7.537425
    140          1           0       -4.681458    1.369111    7.902301
    141          1           0       -4.814145   -0.153950    6.977056
    142          1           0       -4.458612    5.101831    2.187379
    143          1           0       -5.943641    5.827036   -0.287598
    144          1           0       -5.879405    6.689549    2.955230
    145          1           0       -7.216796    5.519383    2.675686
    146          1           0       -6.816687    6.628359    1.465011
    147          1           0       -3.552485    6.490009    0.175663
    148          1           0       -3.847018    5.854586   -1.431960
    149          1           0       -2.523084    4.731841    0.927862
    150          1           0       -1.944450    4.693206   -0.777580
    151          1           0       -3.218655    3.540715   -0.175519
    152          1           0       -5.962769    2.366171   -5.563861
    153          1           0       -5.908501    3.784076   -4.467151
    154          1           0       -7.514521    3.093588   -4.932085
    155          1           0       -9.053409   -1.615749   -3.605965
    156          1           0       -8.272197   -5.352193   -5.608838
    157          1           0       -8.032925   -5.813848   -3.805072
    158          1           0       -6.765039   -5.173643   -4.879700
 ---------------------------------------------------------------------

 SCF Done:  E(RCAM-B3LYP) =  -4069.81174763     A.U. after   19 cycles

 Excitation energies and oscillator strengths:

 Excited State   1:      Singlet-A      1.6653 eV  744.50 nm  f=0.0094  <S**2>=0.000
     309 -> 315       -0.10979
     310 -> 316        0.13144
     311 -> 313        0.52817
     312 -> 314       -0.43872
 This state for optimization and/or second-order correction.
 Total Energy, E(TD-HF/TD-DFT) =  -4069.75054763
 Copying the excited state density for this state as the 1-particle RhoCI density.

 Excited State   2:      Singlet-A      1.6887 eV  734.19 nm  f=0.7361  <S**2>=0.000
     309 -> 315        0.13676
     310 -> 316        0.11297
     311 -> 313        0.43786
     312 -> 314        0.52700

 Excited State   3:      Singlet-A      2.1847 eV  567.51 nm  f=0.0488  <S**2>=0.000
     309 -> 314        0.17987
     310 -> 313        0.61729
     311 -> 316       -0.26131

 Excited State   4:      Singlet-A      2.1927 eV  565.43 nm  f=0.1422  <S**2>=0.000
     309 -> 314        0.61510
     310 -> 313       -0.17846
     312 -> 315       -0.26750

 Excited State   5:      Singlet-A      2.7107 eV  457.39 nm  f=0.0000  <S**2>=0.000
     312 -> 313        0.70710

 The electronic state is 1-A.
 Alpha  occ. eigenvalues --  -46.87668 -46.87558 -19.26264 -19.26190 -19.19067
 Alpha  occ. eigenvalues --  -19.18917 -19.18710 -19.18650 -19.18047 -19.17951
 Alpha  occ. eigenvalues --  -14.42401 -14.42326 -14.41321 -14.41256 -14.39277
 Alpha  occ. eigenvalues --  -14.39255 -14.38495 -14.38456 -10.38997 -10.38976
 Alpha  occ. eigenvalues --  -10.35345 -10.35330 -10.34268 -10.34129 -10.31680
 Alpha  occ. eigenvalues --  -10.31601 -10.31280 -10.31208 -10.30936 -10.30792
 Alpha  occ. eigenvalues --  -10.30440 -10.30379 -10.30295 -10.30255 -10.30080
 Alpha  occ. eigenvalues --  -10.30041 -10.29790 -10.29788 -10.29504 -10.29341
 Alpha  occ. eigenvalues --  -10.29302 -10.29129 -10.28641 -10.28637 -10.28584
 Alpha  occ. eigenvalues --  -10.28449 -10.28310 -10.28242 -10.28057 -10.28006
 Alpha  occ. eigenvalues --  -10.27902 -10.27666 -10.27603 -10.27573 -10.27461
 Alpha  occ. eigenvalues --  -10.27398 -10.27393 -10.27387 -10.27372 -10.27368
 Alpha  occ. eigenvalues --  -10.27362 -10.27321 -10.27281 -10.27273 -10.27044
 Alpha  occ. eigenvalues --  -10.26957 -10.26612 -10.26601 -10.26377 -10.26322
 Alpha  occ. eigenvalues --  -10.26132 -10.26019 -10.25976 -10.25951 -10.25886
 Alpha  occ. eigenvalues --  -10.25823 -10.25717 -10.25694 -10.25324 -10.25320
 Alpha  occ. eigenvalues --  -10.24772 -10.24706 -10.24663 -10.24593 -10.24519
 Alpha  occ. eigenvalues --  -10.24492  -3.16410  -3.16308  -1.91292  -1.91190
 Alpha  occ. eigenvalues --   -1.90879  -1.90779  -1.90721  -1.90616  -1.16556
 Alpha  occ. eigenvalues --   -1.16537  -1.08558  -1.08505  -1.07113  -1.06905
 Alpha  occ. eigenvalues --   -1.06852  -1.06539  -1.04458  -1.04399  -1.03634
 Alpha  occ. eigenvalues --   -1.03564  -1.03106  -1.02936  -1.02284  -1.02010
 Alpha  occ. eigenvalues --   -0.91889  -0.91850  -0.89382  -0.89379  -0.89076
 Alpha  occ. eigenvalues --   -0.89064  -0.88153  -0.88107  -0.87737  -0.87683
 Alpha  occ. eigenvalues --   -0.87587  -0.87551  -0.87157  -0.87039  -0.84912
 Alpha  occ. eigenvalues --   -0.84869  -0.83799  -0.83755  -0.82854  -0.82853
 Alpha  occ. eigenvalues --   -0.82567  -0.82537  -0.81501  -0.81474  -0.80480
 Alpha  occ. eigenvalues --   -0.80350  -0.78675  -0.78543  -0.77093  -0.77047
 Alpha  occ. eigenvalues --   -0.76820  -0.76800  -0.75810  -0.75748  -0.74774
 Alpha  occ. eigenvalues --   -0.74701  -0.72646  -0.72595  -0.71553  -0.71488
 Alpha  occ. eigenvalues --   -0.69758  -0.69620  -0.68759  -0.68738  -0.67521
 Alpha  occ. eigenvalues --   -0.67508  -0.67120  -0.67112  -0.65181  -0.65171
 Alpha  occ. eigenvalues --   -0.64732  -0.64668  -0.64559  -0.64501  -0.64136
 Alpha  occ. eigenvalues --   -0.64089  -0.62187  -0.62183  -0.60322  -0.60251
 Alpha  occ. eigenvalues --   -0.59706  -0.59688  -0.58893  -0.58863  -0.58381
 Alpha  occ. eigenvalues --   -0.58327  -0.57468  -0.57457  -0.57185  -0.57137
 Alpha  occ. eigenvalues --   -0.56188  -0.56106  -0.55875  -0.55798  -0.55406
 Alpha  occ. eigenvalues --   -0.55370  -0.55212  -0.55139  -0.54401  -0.54377
 Alpha  occ. eigenvalues --   -0.53827  -0.53784  -0.53178  -0.53133  -0.53110
 Alpha  occ. eigenvalues --   -0.53053  -0.52808  -0.52798  -0.52647  -0.52598
 Alpha  occ. eigenvalues --   -0.52284  -0.52252  -0.51777  -0.51765  -0.51577
 Alpha  occ. eigenvalues --   -0.51507  -0.51096  -0.51070  -0.50462  -0.50401
 Alpha  occ. eigenvalues --   -0.49898  -0.49893  -0.49805  -0.49757  -0.49408
 Alpha  occ. eigenvalues --   -0.49404  -0.49114  -0.49097  -0.49012  -0.48983
 Alpha  occ. eigenvalues --   -0.48477  -0.48467  -0.48344  -0.48330  -0.48276
 Alpha  occ. eigenvalues --   -0.48263  -0.47578  -0.47504  -0.47180  -0.47031
 Alpha  occ. eigenvalues --   -0.46669  -0.46605  -0.46468  -0.46445  -0.46233
 Alpha  occ. eigenvalues --   -0.46168  -0.46038  -0.45983  -0.45720  -0.45701
 Alpha  occ. eigenvalues --   -0.45105  -0.45075  -0.44459  -0.44425  -0.44389
 Alpha  occ. eigenvalues --   -0.44377  -0.44038  -0.44017  -0.43975  -0.43964
 Alpha  occ. eigenvalues --   -0.43904  -0.43858  -0.43452  -0.43379  -0.43294
 Alpha  occ. eigenvalues --   -0.43266  -0.42905  -0.42837  -0.42802  -0.42591
 Alpha  occ. eigenvalues --   -0.42518  -0.42437  -0.41874  -0.41842  -0.41582
 Alpha  occ. eigenvalues --   -0.41571  -0.41420  -0.41361  -0.41023  -0.40898
 Alpha  occ. eigenvalues --   -0.40751  -0.40715  -0.40650  -0.40604  -0.40439
 Alpha  occ. eigenvalues --   -0.40378  -0.40150  -0.40130  -0.39286  -0.39280
 Alpha  occ. eigenvalues --   -0.38339  -0.38244  -0.37639  -0.37568  -0.37190
 Alpha  occ. eigenvalues --   -0.37158  -0.37148  -0.37107  -0.36676  -0.36603
 Alpha  occ. eigenvalues --   -0.36114  -0.36073  -0.34159  -0.34152  -0.33767
 Alpha  occ. eigenvalues --   -0.33663  -0.33075  -0.33061  -0.31240  -0.31208
 Alpha  occ. eigenvalues --   -0.30913  -0.30877  -0.29906  -0.29855  -0.29326
 Alpha  occ. eigenvalues --   -0.29235  -0.29193  -0.29108  -0.23954  -0.23935
 Alpha  occ. eigenvalues --   -0.21017  -0.21001
 Alpha virt. eigenvalues --   -0.08695  -0.08649  -0.01625  -0.01586   0.00053
 Alpha virt. eigenvalues --    0.00057   0.02309   0.02326   0.03276   0.03355
 Alpha virt. eigenvalues --    0.04821   0.04835   0.05204   0.05258   0.06261

 Mulliken charges:
               1
     1  Mg   0.839201
     2  C   -0.002993
     3  C   -0.094138
     4  C   -0.045879
     5  C   -0.063700
     6  N   -0.256766
     7  C   -0.052480
     8  C   -0.014035
     9  C   -0.087028
    10  C    0.046330
    11  C    0.104863
    12  C    0.053476
    13  C   -0.071592
    14  H    0.035577
    15  N   -0.433059
    16  C    0.168440
    17  C   -0.177208
    18  C   -0.004144
    19  C    0.148725
    20  C    0.110204
    21  C    0.012193
    22  O   -0.249967
    23  C    0.062492
    24  N   -0.341187
    25  C    0.041271
    26  C   -0.028053
    27  C   -0.024040
    28  C    0.075012
    29  C    0.076281
    30  C    0.035045
    31  C   -0.004591
    32  N   -0.310574
    33  C    0.080688
    34  C   -0.169183
    35  C    0.008353
    36  C    0.083271
    37  C    0.127190
    38  C    0.046308
    39  O   -0.188406
    40  C   -0.005452
    41  C    0.212886
    42  O   -0.257010
    43  O   -0.304805
    44  C    0.157842
    45  H   -0.017840
    46  H   -0.017089
    47  H   -0.041174
    48  H    0.000768
    49  H   -0.004105
    50  H    0.025368
    51  H    0.016408
    52  H    0.016447
    53  H    0.011482
    54  H    0.044071
    55  H    0.017752
    56  H    0.018035
    57  H    0.005811
    58  H    0.026488
    59  H    0.039616
    60  H    0.037253
    61  H    0.035090
    62  H    0.031659
    63  H    0.016482
    64  H    0.009282
    65  H    0.022899
    66  H    0.012343
    67  H    0.004633
    68  H    0.006012
    69  H    0.005087
    70  H    0.008272
    71  H    0.019628
    72  H    0.029163
    73  H    0.048114
    74  H    0.009525
    75  H    0.045731
    76  H    0.034974
    77  H    0.042817
    78  H    0.046250
    79  H    0.053388
    80  Mg   0.838270
    81  C   -0.016840
    82  C   -0.087890
    83  C   -0.045559
    84  C   -0.064525
    85  N   -0.254532
    86  C   -0.049810
    87  C   -0.015098
    88  C   -0.090500
    89  C    0.045718
    90  C    0.114449
    91  C    0.062547
    92  C   -0.077780
    93  H    0.034697
    94  N   -0.423386
    95  C    0.162851
    96  C   -0.174808
    97  C   -0.008066
    98  C    0.152102
    99  C    0.099425
   100  C    0.015369
   101  O   -0.253718
   102  C    0.061289
   103  N   -0.350143
   104  C    0.037580
   105  C   -0.019646
   106  C   -0.034931
   107  C    0.089200
   108  C    0.073831
   109  C    0.034650
   110  C   -0.007950
   111  N   -0.324252
   112  C    0.078871
   113  C   -0.162408
   114  C    0.002265
   115  C    0.096554
   116  C    0.131351
   117  C    0.042663
   118  O   -0.187697
   119  C    0.000769
   120  C    0.211267
   121  O   -0.250743
   122  O   -0.305724
   123  C    0.152093
   124  H   -0.019970
   125  H   -0.015973
   126  H   -0.039910
   127  H   -0.000783
   128  H   -0.004466
   129  H    0.022361
   130  H    0.014351
   131  H    0.016035
   132  H    0.014031
   133  H    0.037798
   134  H    0.020654
   135  H    0.019523
   136  H    0.008665
   137  H    0.025749
   138  H    0.039598
   139  H    0.038196
   140  H    0.035612
   141  H    0.033914
   142  H    0.014219
   143  H    0.012170
   144  H    0.024619
   145  H    0.011386
   146  H    0.005535
   147  H    0.005623
   148  H    0.004259
   149  H    0.009961
   150  H    0.020860
   151  H    0.030156
   152  H    0.046742
   153  H    0.009170
   154  H    0.046602
   155  H    0.034820
   156  H    0.043784
   157  H    0.049326
   158  H    0.053580
 Sum of Mulliken charges =  -0.00000

 Dipole moment (field-independent basis, Debye):
    X=             -0.0980    Y=             -0.5507    Z=              7.2324  Tot=              7.2540
 Quadrupole moment (field-independent basis, Debye-Ang):
   XX=           -449.9052   YY=           -469.1949   ZZ=           -538.3952
   XY=             30.4939   XZ=             -1.6176   YZ=             10.3988

 Normal termination of Gaussian 16 at Sat Sep 11 06:17:34 2021.
