 Gaussian 16, Revision A.03,
 Gaussian 16:  ES64L-G16RevA.03 25-Dec-2016

 -----------------------------------
 #p cam-b3lyp/Def2SVP td=(nstates=5)
 -----------------------------------

 --------------------------------
 TDDFT excited states in gaussian
 --------------------------------
 Symbolic Z-matrix:
 Charge =  0 Multiplicity = 1

                         Standard orientation:
 ---------------------------------------------------------------------
 Center     Atomic      Atomic             Coordinates (Angstroms)
 Number     Number       Type             X           Y           Z
 ---------------------------------------------------------------------
      1         12           0        4.273388   -1.187545   -0.343179
      2          6           0        4.997261    2.195734   -1.260590
      3          6           0        5.836377   -0.560365    2.624442
      4          6           0        4.049479   -4.283810    0.304610
      5          6           0        3.804465   -1.850645   -3.732290
      6          7           0        5.250878    0.627587    0.463330
      7          6           0        5.407831    1.876421    0.035603
      8          6           0        5.981426    2.834195    1.122356
      9          6           0        6.710696    1.758693    2.046185
     10          6           0        5.861370    0.542804    1.720326
     11          6           0        8.151382    1.476738    1.632148
     12          6           0        4.854341    3.590109    1.903384
     13          6           0        5.327844    4.775991    2.748861
     14          1           0        4.468148    5.944770    2.859437
     15          7           0        4.408839   -2.149656    1.376950
     16          6           0        5.071847   -1.738844    2.484624
     17          6           0        4.874504   -2.800439    3.494948
     18          6           0        4.202913   -3.947980    2.823972
     19          6           0        4.217342   -3.511094    1.451274
     20          6           0        5.260357   -2.648456    4.934312
     21          6           0        3.647220   -5.238826    3.336861
     22          8           0        3.316282   -6.195113    2.555472
     23          6           0        3.582250   -5.390168    4.801756
     24          7           0        4.185639   -2.888204   -1.550529
     25          6           0        4.031316   -4.105370   -1.017916
     26          6           0        3.712548   -5.125499   -2.070371
     27          6           0        3.439985   -4.305191   -3.412965
     28          6           0        3.747194   -2.881657   -2.886239
     29          6           0        4.795998   -6.181641   -2.328657
     30          6           0        2.086397   -4.551916   -4.125247
     31          6           0        0.953906   -4.027752   -3.270955
     32          7           0        4.200561   -0.021124   -2.172169
     33          6           0        4.015775   -0.506414   -3.474867
     34          6           0        4.149617    0.643960   -4.387442
     35          6           0        4.421166    1.722631   -3.548052
     36          6           0        4.480810    1.269777   -2.199105
     37          6           0        4.077381    0.593959   -5.807553
     38          6           0        4.699192    3.148051   -3.479230
     39          8           0        4.688315    4.073893   -4.291751
     40          6           0        5.203754    3.489679   -2.007994
     41          6           0        4.446717    4.701782   -1.537877
     42          8           0        3.217807    4.646800   -1.327821
     43          8           0        5.317016    5.659830   -1.183947
     44          6           0        4.631415    6.879733   -0.680021
     45          1           0        6.505026   -0.550778    3.487435
     46          1           0        3.858354   -5.342394    0.492515
     47          1           0        3.587188   -1.966008   -4.795744
     48          1           0        6.706182    3.559527    0.752158
     49          1           0        6.626725    2.007109    3.103994
     50          1           0        8.398421    1.966678    0.690420
     51          1           0        8.217222    0.393683    1.526554
     52          1           0        8.843293    1.742443    2.431796
     53          1           0        4.467176    2.943626    2.690927
     54          1           0        4.069962    3.922978    1.222743
     55          1           0        6.343666    5.072509    2.486009
     56          1           0        5.401039    4.448439    3.785949
     57          1           0        5.880336   -1.766771    5.091799
     58          1           0        5.912621   -3.486456    5.179294
     59          1           0        4.392823   -2.652652    5.594388
     60          1           0        4.584529   -5.289620    5.218741
     61          1           0        3.076111   -6.337505    4.984032
     62          1           0        2.994347   -4.570422    5.215683
     63          1           0        2.818675   -5.690528   -1.809297
     64          1           0        4.186097   -4.515769   -4.179547
     65          1           0        4.447152   -7.206823   -2.202113
     66          1           0        5.636763   -5.970355   -1.668533
     67          1           0        5.269133   -6.120972   -3.308392
     68          1           0        1.918307   -5.619789   -4.260667
     69          1           0        2.023498   -4.079343   -5.105537
     70          1           0        0.771655   -4.848445   -2.578077
     71          1           0        0.073811   -3.831968   -3.884399
     72          1           0        1.266408   -3.166186   -2.680590
     73          1           0        3.470522    1.446492   -6.112312
     74          1           0        3.641653   -0.344717   -6.149067
     75          1           0        5.132237    0.683355   -6.066671
     76          1           0        6.274491    3.678111   -2.079673
     77          1           0        4.981425    7.717161   -1.283711
     78          1           0        4.816222    6.917876    0.393662
     79          1           0        3.556347    6.935349   -0.854592
     80         12           0       -4.420968    0.561908    1.207950
     81          6           0       -5.025464   -0.508900   -2.163551
     82          6           0       -3.165846    3.453989   -0.094018
     83          6           0       -3.464410    1.345559    4.129993
     84          6           0       -4.643891   -2.782378    2.162801
     85          7           0       -4.180815    1.264886   -0.875406
     86          6           0       -4.502945    0.798039   -2.072331
     87          6           0       -4.325864    1.817557   -3.229393
     88          6           0       -3.226367    2.768001   -2.546265
     89          6           0       -3.561146    2.512996   -1.078073
     90          6           0       -1.798294    2.312720   -2.796572
     91          6           0       -5.648263    2.601900   -3.542565
     92          6           0       -5.634575    3.387052   -4.855998
     93          1           0       -6.873148    3.480687   -5.623868
     94          7           0       -3.915338    2.325842    1.963891
     95          6           0       -3.445868    3.396042    1.288932
     96          6           0       -3.205988    4.436420    2.300968
     97          6           0       -3.416110    3.838395    3.647411
     98          6           0       -3.590278    2.444230    3.292359
     99          6           0       -2.895154    5.861308    1.945301
    100          6           0       -3.441688    4.422422    5.027442
    101          8           0       -3.404064    3.681782    6.072843
    102          6           0       -3.417771    5.889577    5.118952
    103          7           0       -3.889722   -0.570334    2.868717
    104          6           0       -3.563538    0.019701    4.032073
    105          6           0       -3.488235   -0.989230    5.153132
    106          6           0       -4.070775   -2.349553    4.546711
    107          6           0       -4.309628   -1.895380    3.089979
    108          6           0       -2.094375   -1.243748    5.726527
    109          6           0       -5.244482   -3.016727    5.314820
    110          6           0       -6.479774   -2.150037    5.223701
    111          7           0       -4.950234   -1.298523    0.245280
    112          6           0       -4.952411   -2.587223    0.822612
    113          6           0       -5.271026   -3.546428   -0.254813
    114          6           0       -5.410560   -2.745106   -1.398018
    115          6           0       -5.174295   -1.384890   -1.061166
    116          6           0       -5.347966   -4.960727   -0.113567
    117          6           0       -5.693533   -2.741822   -2.815275
    118          8           0       -6.052955   -3.589545   -3.631301
    119          6           0       -5.332419   -1.308357   -3.399373
    120          6           0       -6.479677   -0.855029   -4.260078
    121          8           0       -7.592777   -0.620528   -3.757452
    122          8           0       -6.019552   -0.565243   -5.490804
    123          6           0       -7.118750   -0.100397   -6.378218
    124          1           0       -2.546021    4.296740   -0.401384
    125          1           0       -3.244180    1.572651    5.175657
    126          1           0       -4.828285   -3.832542    2.399100
    127          1           0       -3.935101    1.398028   -4.148669
    128          1           0       -3.393952    3.811529   -2.799872
    129          1           0       -1.762125    1.355522   -3.295173
    130          1           0       -1.334616    2.248843   -1.820880
    131          1           0       -1.247003    3.083792   -3.342340
    132          1           0       -5.750710    3.430133   -2.829620
    133          1           0       -6.495120    1.943796   -3.523778
    134          1           0       -4.801602    3.090387   -5.504905
    135          1           0       -5.437283    4.437800   -4.630124
    136          1           0       -2.641947    5.964681    0.882947
    137          1           0       -1.972380    6.128278    2.471686
    138          1           0       -3.685753    6.552414    2.245313
    139          1           0       -2.523835    6.267476    4.628515
    140          1           0       -3.531832    6.118063    6.180401
    141          1           0       -4.273941    6.288745    4.563747
    142          1           0       -4.105290   -0.684725    5.989562
    143          1           0       -3.305865   -3.139031    4.508334
    144          1           0       -2.030831   -1.062369    6.816087
    145          1           0       -1.387681   -0.620081    5.195356
    146          1           0       -1.698268   -2.242559    5.551349
    147          1           0       -5.002390   -3.101367    6.377073
    148          1           0       -5.482837   -4.013300    4.958440
    149          1           0       -6.326219   -1.416886    6.021195
    150          1           0       -7.376346   -2.741366    5.398451
    151          1           0       -6.507676   -1.603157    4.274082
    152          1           0       -6.225538   -5.280837   -0.659374
    153          1           0       -5.400994   -5.253471    0.932974
    154          1           0       -4.401160   -5.254564   -0.574532
    155          1           0       -4.408217   -1.410245   -3.969487
    156          1           0       -7.112593   -0.747923   -7.260465
    157          1           0       -6.933733    0.977686   -6.543341
    158          1           0       -8.135635   -0.231080   -6.027057
 ---------------------------------------------------------------------

 SCF Done:  E(RCAM-B3LYP) =  -4069.81278099     A.U. after   19 cycles

 Excitation energies and oscillator strengths:

 Excited State   1:      Singlet-A      1.6700 eV  742.41 nm  f=0.3256  <S**2>=0.000
     310 -> 316        0.15007
     311 -> 313        0.32536
     312 -> 314        0.60385
 This state for optimization and/or second-order correction.
 Total Energy, E(TD-HF/TD-DFT) =  -4069.75140882
 Copying the excited state density for this state as the 1-particle RhoCI density.

 Excited State   2:      Singlet-A      1.6771 eV  739.27 nm  f=0.3462  <S**2>=0.000
     309 -> 315        0.15378
     311 -> 313        0.60346
     312 -> 314       -0.32546

 Excited State   3:      Singlet-A      2.1846 eV  567.55 nm  f=0.1016  <S**2>=0.000
     310 -> 314        0.64142
     312 -> 316       -0.26969

 Excited State   4:      Singlet-A      2.1924 eV  565.52 nm  f=0.0957  <S**2>=0.000
     309 -> 313        0.63955
     311 -> 315       -0.27689

 Excited State   5:      Singlet-A      2.3341 eV  531.18 nm  f=0.0000  <S**2>=0.000
     312 -> 313        0.70707

 The electronic state is 1-A.
 Alpha  occ. eigenvalues --  -46.87928 -46.87424 -19.26603 -19.26166 -19.19361
 Alpha  occ. eigenvalues --  -19.18972 -19.18945 -19.18563 -19.18380 -19.17857
 Alpha  occ. eigenvalues --  -14.42584 -14.42223 -14.41568 -14.41138 -14.39534
 Alpha  occ. eigenvalues --  -14.39117 -14.38735 -14.38371 -10.39402 -10.38900
 Alpha  occ. eigenvalues --  -10.35577 -10.35243 -10.34603 -10.34033 -10.32023
 Alpha  occ. eigenvalues --  -10.31584 -10.31554 -10.31050 -10.30999 -10.30744
 Alpha  occ. eigenvalues --  -10.30719 -10.30648 -10.30304 -10.30192 -10.30110
 Alpha  occ. eigenvalues --  -10.30044 -10.29925 -10.29777 -10.29709 -10.29380
 Alpha  occ. eigenvalues --  -10.29197 -10.29188 -10.28906 -10.28723 -10.28516
 Alpha  occ. eigenvalues --  -10.28356 -10.28346 -10.28256 -10.28164 -10.27944
 Alpha  occ. eigenvalues --  -10.27856 -10.27769 -10.27725 -10.27671 -10.27587
 Alpha  occ. eigenvalues --  -10.27556 -10.27546 -10.27508 -10.27381 -10.27379
 Alpha  occ. eigenvalues --  -10.27345 -10.27273 -10.27253 -10.27243 -10.27190
 Alpha  occ. eigenvalues --  -10.26882 -10.26848 -10.26537 -10.26381 -10.26361
 Alpha  occ. eigenvalues --  -10.26292 -10.26169 -10.26136 -10.26024 -10.26015
 Alpha  occ. eigenvalues --  -10.25709 -10.25656 -10.25484 -10.25388 -10.25306
 Alpha  occ. eigenvalues --  -10.24996 -10.24913 -10.24647 -10.24646 -10.24619
 Alpha  occ. eigenvalues --  -10.24486  -3.16671  -3.16174  -1.91553  -1.91139
 Alpha  occ. eigenvalues --   -1.91056  -1.90982  -1.90644  -1.90482  -1.16953
 Alpha  occ. eigenvalues --   -1.16458  -1.08851  -1.08470  -1.07344  -1.06975
 Alpha  occ. eigenvalues --   -1.06821  -1.06757  -1.04721  -1.04222  -1.03885
 Alpha  occ. eigenvalues --   -1.03424  -1.03370  -1.02820  -1.02545  -1.01883
 Alpha  occ. eigenvalues --   -0.92140  -0.91753  -0.89610  -0.89334  -0.89309
 Alpha  occ. eigenvalues --   -0.88758  -0.88367  -0.88063  -0.88028  -0.87806
 Alpha  occ. eigenvalues --   -0.87571  -0.87412  -0.87404  -0.86907  -0.85131
 Alpha  occ. eigenvalues --   -0.84683  -0.84018  -0.83739  -0.83078  -0.82801
 Alpha  occ. eigenvalues --   -0.82763  -0.82369  -0.81796  -0.81379  -0.80764
 Alpha  occ. eigenvalues --   -0.80218  -0.78933  -0.78405  -0.77342  -0.77093
 Alpha  occ. eigenvalues --   -0.76901  -0.76626  -0.76091  -0.75518  -0.74999
 Alpha  occ. eigenvalues --   -0.74639  -0.72909  -0.72460  -0.71807  -0.71323
 Alpha  occ. eigenvalues --   -0.69951  -0.69607  -0.69020  -0.68530  -0.67791
 Alpha  occ. eigenvalues --   -0.67387  -0.67373  -0.66936  -0.65444  -0.65019
 Alpha  occ. eigenvalues --   -0.64977  -0.64766  -0.64538  -0.64403  -0.64363
 Alpha  occ. eigenvalues --   -0.64019  -0.62519  -0.62077  -0.60562  -0.60143
 Alpha  occ. eigenvalues --   -0.59951  -0.59465  -0.59129  -0.58764  -0.58655
 Alpha  occ. eigenvalues --   -0.58207  -0.57810  -0.57439  -0.57347  -0.57053
 Alpha  occ. eigenvalues --   -0.56471  -0.56212  -0.55967  -0.55671  -0.55666
 Alpha  occ. eigenvalues --   -0.55478  -0.55234  -0.55083  -0.54686  -0.54321
 Alpha  occ. eigenvalues --   -0.54048  -0.53549  -0.53436  -0.53382  -0.53103
 Alpha  occ. eigenvalues --   -0.53019  -0.52906  -0.52893  -0.52655  -0.52478
 Alpha  occ. eigenvalues --   -0.52403  -0.52256  -0.52087  -0.51778  -0.51680
 Alpha  occ. eigenvalues --   -0.51372  -0.51348  -0.50978  -0.50686  -0.50271
 Alpha  occ. eigenvalues --   -0.50113  -0.50038  -0.49773  -0.49670  -0.49641
 Alpha  occ. eigenvalues --   -0.49384  -0.49254  -0.49221  -0.48949  -0.48781
 Alpha  occ. eigenvalues --   -0.48764  -0.48609  -0.48564  -0.48291  -0.48223
 Alpha  occ. eigenvalues --   -0.48132  -0.47831  -0.47431  -0.47343  -0.46921
 Alpha  occ. eigenvalues --   -0.46901  -0.46713  -0.46503  -0.46469  -0.46307
 Alpha  occ. eigenvalues --   -0.46227  -0.46053  -0.46017  -0.45905  -0.45596
 Alpha  occ. eigenvalues --   -0.45292  -0.45058  -0.44763  -0.44630  -0.44307
 Alpha  occ. eigenvalues --   -0.44289  -0.44212  -0.44192  -0.44177  -0.43896
 Alpha  occ. eigenvalues --   -0.43810  -0.43708  -0.43701  -0.43511  -0.43342
 Alpha  occ. eigenvalues --   -0.43173  -0.43122  -0.42966  -0.42735  -0.42732
 Alpha  occ. eigenvalues --   -0.42678  -0.42378  -0.42115  -0.41854  -0.41759
 Alpha  occ. eigenvalues --   -0.41675  -0.41444  -0.41276  -0.41179  -0.40997
 Alpha  occ. eigenvalues --   -0.40951  -0.40710  -0.40654  -0.40522  -0.40434
 Alpha  occ. eigenvalues --   -0.40391  -0.40243  -0.39929  -0.39471  -0.39279
 Alpha  occ. eigenvalues --   -0.38554  -0.38172  -0.37911  -0.37425  -0.37417
 Alpha  occ. eigenvalues --   -0.37368  -0.37056  -0.36970  -0.36906  -0.36589
 Alpha  occ. eigenvalues --   -0.36350  -0.36011  -0.34428  -0.34080  -0.34017
 Alpha  occ. eigenvalues --   -0.33665  -0.33334  -0.32939  -0.31473  -0.31176
 Alpha  occ. eigenvalues --   -0.31121  -0.30734  -0.30243  -0.29763  -0.29593
 Alpha  occ. eigenvalues --   -0.29479  -0.29111  -0.28992  -0.24219  -0.23794
 Alpha  occ. eigenvalues --   -0.21261  -0.20876
 Alpha virt. eigenvalues --   -0.08915  -0.08561  -0.01876  -0.01460  -0.00201
 Alpha virt. eigenvalues --    0.00200   0.02029   0.02399   0.02842   0.03503
 Alpha virt. eigenvalues --    0.04576   0.04798   0.05029   0.05361   0.05998

 Mulliken charges:
               1
     1  Mg   0.838969
     2  C   -0.003767
     3  C   -0.093752
     4  C   -0.045553
     5  C   -0.063822
     6  N   -0.256930
     7  C   -0.052462
     8  C   -0.014159
     9  C   -0.087135
    10  C    0.046560
    11  C    0.104697
    12  C    0.053369
    13  C   -0.071480
    14  H    0.034303
    15  N   -0.433220
    16  C    0.168833
    17  C   -0.176808
    18  C   -0.003796
    19  C    0.149048
    20  C    0.110052
    21  C    0.012151
    22  O   -0.249159
    23  C    0.062467
    24  N   -0.341248
    25  C    0.041652
    26  C   -0.028330
    27  C   -0.024072
    28  C    0.075005
    29  C    0.076053
    30  C    0.034936
    31  C   -0.004822
    32  N   -0.310128
    33  C    0.079856
    34  C   -0.170736
    35  C    0.007642
    36  C    0.082246
    37  C    0.127626
    38  C    0.044595
    39  O   -0.189765
    40  C   -0.004870
    41  C    0.213200
    42  O   -0.260255
    43  O   -0.303878
    44  C    0.158381
    45  H   -0.017213
    46  H   -0.016341
    47  H   -0.041150
    48  H    0.000752
    49  H   -0.003544
    50  H    0.025441
    51  H    0.016709
    52  H    0.017045
    53  H    0.012452
    54  H    0.042396
    55  H    0.018127
    56  H    0.019157
    57  H    0.006340
    58  H    0.027157
    59  H    0.040069
    60  H    0.037828
    61  H    0.035653
    62  H    0.031091
    63  H    0.017168
    64  H    0.009638
    65  H    0.023765
    66  H    0.012322
    67  H    0.005095
    68  H    0.007585
    69  H    0.004819
    70  H    0.009223
    71  H    0.020444
    72  H    0.027556
    73  H    0.045875
    74  H    0.009659
    75  H    0.046409
    76  H    0.035621
    77  H    0.043320
    78  H    0.047110
    79  H    0.050889
    80  Mg   0.837374
    81  C   -0.016900
    82  C   -0.086393
    83  C   -0.046374
    84  C   -0.064889
    85  N   -0.254864
    86  C   -0.049330
    87  C   -0.015228
    88  C   -0.090136
    89  C    0.044539
    90  C    0.113251
    91  C    0.062406
    92  C   -0.077542
    93  H    0.033252
    94  N   -0.423680
    95  C    0.162320
    96  C   -0.172895
    97  C   -0.008918
    98  C    0.152837
    99  C    0.099207
   100  C    0.015066
   101  O   -0.254544
   102  C    0.061430
   103  N   -0.350138
   104  C    0.037516
   105  C   -0.019559
   106  C   -0.034948
   107  C    0.088663
   108  C    0.074271
   109  C    0.034958
   110  C   -0.007528
   111  N   -0.323977
   112  C    0.078003
   113  C   -0.163457
   114  C    0.001893
   115  C    0.096069
   116  C    0.131656
   117  C    0.041603
   118  O   -0.189211
   119  C    0.001315
   120  C    0.211340
   121  O   -0.251183
   122  O   -0.305669
   123  C    0.152182
   124  H   -0.013307
   125  H   -0.017039
   126  H   -0.040838
   127  H   -0.000972
   128  H   -0.003758
   129  H    0.019463
   130  H    0.018828
   131  H    0.024653
   132  H    0.013610
   133  H    0.036644
   134  H    0.021522
   135  H    0.020221
   136  H    0.011419
   137  H    0.026209
   138  H    0.038704
   139  H    0.037991
   140  H    0.035257
   141  H    0.034066
   142  H    0.013854
   143  H    0.012461
   144  H    0.023476
   145  H    0.011017
   146  H    0.004208
   147  H    0.005147
   148  H    0.003772
   149  H    0.010413
   150  H    0.017566
   151  H    0.030660
   152  H    0.045281
   153  H    0.008315
   154  H    0.046704
   155  H    0.034246
   156  H    0.043143
   157  H    0.050067
   158  H    0.053243
 Sum of Mulliken charges =  -0.00000

 Dipole moment (field-independent basis, Debye):
    X=              5.5233    Y=              2.5176    Z=              3.3013  Tot=              6.9097
 Quadrupole moment (field-independent basis, Debye-Ang):
   XX=           -519.7142   YY=           -501.2575   ZZ=           -498.7762
   XY=            -18.0467   XZ=             19.2949   YZ=             -2.3793

 Normal termination of Gaussian 16 at Sat Sep  4 00:53:28 2021.
