 Gaussian 16, Revision A.03,
 Gaussian 16:  ES64L-G16RevA.03 25-Dec-2016

 -----------------------------------
 #p cam-b3lyp/Def2SVP td=(nstates=5)
 -----------------------------------

 --------------------------------
 TDDFT excited states in gaussian
 --------------------------------
 Symbolic Z-matrix:
 Charge =  0 Multiplicity = 1

                         Standard orientation:
 ---------------------------------------------------------------------
 Center     Atomic      Atomic             Coordinates (Angstroms)
 Number     Number       Type             X           Y           Z
 ---------------------------------------------------------------------
      1         12           0       -6.534084   -0.712622   -0.171860
      2          6           0       -6.772520    2.613227    1.129713
      3          6           0       -7.288257    0.591139   -3.233639
      4          6           0       -6.776636   -3.682808   -1.256195
      5          6           0       -6.924275   -1.860973    3.095357
      6          7           0       -6.953704    1.355649   -0.840306
      7          6           0       -6.954763    2.548465   -0.253486
      8          6           0       -7.092571    3.731185   -1.258253
      9          6           0       -7.803571    2.959919   -2.458930
     10          6           0       -7.290900    1.557235   -2.184029
     11          6           0       -9.325817    2.954128   -2.362826
     12          6           0       -5.702959    4.308465   -1.691216
     13          6           0       -5.751827    5.661363   -2.407201
     14          1           0       -4.680404    6.617378   -2.171753
     15          7           0       -6.486632   -1.409791   -2.019711
     16          6           0       -6.810587   -0.734557   -3.148603
     17          6           0       -6.612416   -1.685621   -4.263451
     18          6           0       -6.329605   -3.024146   -3.674839
     19          6           0       -6.548350   -2.761280   -2.275400
     20          6           0       -6.650531   -1.282426   -5.705578
     21          6           0       -5.936429   -4.335103   -4.278939
     22          8           0       -5.966755   -5.426742   -3.614124
     23          6           0       -5.595119   -4.321611   -5.712943
     24          7           0       -7.029781   -2.522289    0.743031
     25          6           0       -7.003119   -3.671383    0.059031
     26          6           0       -7.114345   -4.854419    0.974450
     27          6           0       -6.978143   -4.279755    2.458014
     28          6           0       -6.889068   -2.771200    2.119491
     29          6           0       -8.409747   -5.669792    0.859932
     30          6           0       -5.877558   -4.900764    3.354385
     31          6           0       -4.511775   -4.540355    2.814164
     32          7           0       -6.625305    0.183182    1.803048
     33          6           0       -6.815091   -0.482319    3.022787
     34          6           0       -6.914817    0.552391    4.068491
     35          6           0       -6.791904    1.756388    3.377745
     36          6           0       -6.652226    1.491507    1.985402
     37          6           0       -7.153763    0.319129    5.451577
     38          6           0       -6.770777    3.205871    3.489138
     39          8           0       -6.753758    4.003283    4.427933
     40          6           0       -6.879646    3.822568    2.025013
     41          6           0       -5.822733    4.885867    1.899955
     42          8           0       -4.610980    4.587657    1.909500
     43          8           0       -6.399025    6.046834    1.552699
     44          6           0       -5.401992    7.137402    1.383169
     45          1           0       -7.745968    0.849997   -4.190423
     46          1           0       -6.756783   -4.727451   -1.573631
     47          1           0       -6.961707   -2.146949    4.148101
     48          1           0       -7.726202    4.548680   -0.913814
     49          1           0       -7.453028    3.307879   -3.430406
     50          1           0       -9.666767    3.370745   -1.415143
     51          1           0       -9.618714    1.907317   -2.445840
     52          1           0       -9.770061    3.458555   -3.221300
     53          1           0       -5.290096    3.691141   -2.489035
     54          1           0       -5.030322    4.377479   -0.835575
     55          1           0       -6.724109    6.140356   -2.288278
     56          1           0       -5.666701    5.483679   -3.479293
     57          1           0       -7.042790   -0.273765   -5.829191
     58          1           0       -7.384933   -1.921413   -6.195536
     59          1           0       -5.680857   -1.398526   -6.189920
     60          1           0       -6.449023   -3.954456   -6.282675
     61          1           0       -5.253133   -5.328407   -5.950132
     62          1           0       -4.787364   -3.607758   -5.876937
     63          1           0       -6.310809   -5.566830    0.792171
     64          1           0       -7.894972   -4.410964    3.033239
     65          1           0       -8.245192   -6.724040    0.635909
     66          1           0       -9.036462   -5.201961    0.101214
     67          1           0       -9.057714   -5.623687    1.734820
     68          1           0       -5.949557   -5.987813    3.345042
     69          1           0       -5.932818   -4.573638    4.392742
     70          1           0       -4.348653   -5.292614    2.043236
     71          1           0       -3.759522   -4.617110    3.599934
     72          1           0       -4.522098   -3.567213    2.322866
     73          1           0       -6.472673    0.975050    5.993659
     74          1           0       -6.987759   -0.726136    5.711318
     75          1           0       -8.202377    0.606588    5.526626
     76          1           0       -7.885089    4.231714    1.931176
     77          1           0       -5.703979    7.953332    2.039901
     78          1           0       -5.346083    7.342690    0.313993
     79          1           0       -4.397404    6.934312    1.755855
     80         12           0        6.693215   -0.766507    0.322885
     81          6           0        6.536367    2.696817   -0.604390
     82          6           0        5.935484   -1.514257   -2.917686
     83          6           0        6.380111   -3.799636    1.200115
     84          6           0        6.304098    0.246008    3.634857
     85          7           0        6.309282    0.512968   -1.440008
     86          6           0        6.337882    1.814049   -1.686402
     87          6           0        6.222805    2.186825   -3.188860
     88          6           0        5.476816    0.863103   -3.708585
     89          6           0        5.960457   -0.122769   -2.647068
     90          6           0        3.962253    0.952731   -3.622502
     91          6           0        7.625270    2.360981   -3.870605
     92          6           0        7.592157    3.023750   -5.249516
     93          1           0        8.692357    3.908263   -5.623221
     94          7           0        6.711557   -2.426405   -0.764747
     95          6           0        6.397653   -2.546338   -2.071792
     96          6           0        6.548740   -3.974102   -2.392467
     97          6           0        6.817734   -4.712772   -1.128852
     98          6           0        6.621989   -3.654652   -0.158197
     99          6           0        6.514160   -4.500512   -3.797857
    100          6           0        7.177455   -6.138884   -0.840752
    101          8           0        7.131264   -6.618198    0.347085
    102          6           0        7.495109   -6.982367   -2.002264
    103          7           0        6.175478   -1.667174    2.123742
    104          6           0        6.165467   -3.005836    2.249468
    105          6           0        6.034388   -3.416839    3.696635
    106          6           0        6.202324   -2.070113    4.542623
    107          6           0        6.317457   -1.055855    3.383564
    108          6           0        4.719843   -4.096888    4.078589
    109          6           0        7.298417   -2.062418    5.643174
    110          6           0        8.668273   -2.134154    5.007784
    111          7           0        6.645422    1.118489    1.377667
    112          6           0        6.445906    1.316761    2.761493
    113          6           0        6.379076    2.775201    2.987168
    114          6           0        6.522454    3.328066    1.705655
    115          6           0        6.648107    2.287199    0.746341
    116          6           0        6.158846    3.413883    4.240037
    117          6           0        6.585433    4.555321    0.944997
    118          8           0        6.621578    5.752044    1.228314
    119          6           0        6.470405    4.198905   -0.599712
    120          6           0        7.549038    4.949857   -1.331245
    121          8           0        8.748359    4.691013   -1.128169
    122          8           0        6.987635    5.692531   -2.302650
    123          6           0        8.018573    6.447511   -3.063576
    124          1           0        5.480580   -1.853656   -3.848679
    125          1           0        6.373785   -4.827245    1.570869
    126          1           0        6.282695    0.644102    4.651576
    127          1           0        5.616328    3.060600   -3.394936
    128          1           0        5.833289    0.569324   -4.692446
    129          1           0        3.639973    1.849287   -3.114092
    130          1           0        3.646114    0.073653   -3.076311
    131          1           0        3.522003    0.862489   -4.619678
    132          1           0        8.014471    1.372486   -4.146553
    133          1           0        8.297242    2.896358   -3.228381
    134          1           0        6.627146    3.503568   -5.453160
    135          1           0        7.669873    2.244133   -6.011207
    136          1           0        6.135534   -3.747668   -4.500192
    137          1           0        5.762771   -5.297187   -3.822509
    138          1           0        7.474481   -4.910448   -4.117848
    139          1           0        6.645285   -6.997892   -2.680515
    140          1           0        7.813517   -7.941267   -1.588732
    141          1           0        8.326561   -6.524838   -2.549956
    142          1           0        6.820958   -4.107304    3.975321
    143          1           0        5.283651   -1.816713    5.091857
    144          1           0        4.860801   -5.098042    4.527906
    145          1           0        4.099160   -4.160742    3.194724
    146          1           0        4.089506   -3.531932    4.763200
    147          1           0        7.203992   -2.946924    6.277908
    148          1           0        7.252962   -1.194095    6.291987
    149          1           0        8.802178   -3.205448    4.830300
    150          1           0        9.426181   -1.748821    5.686844
    151          1           0        8.676115   -1.634851    4.031931
    152          1           0        6.851953    4.242925    4.292969
    153          1           0        6.300021    2.723114    5.068699
    154          1           0        5.112688    3.710458    4.126549
    155          1           0        5.472619    4.490525   -0.929789
    156          1           0        7.737292    7.504253   -3.020616
    157          1           0        8.056163    5.976525   -4.063830
    158          1           0        9.021293    6.478714   -2.653671
 ---------------------------------------------------------------------

 SCF Done:  E(RCAM-B3LYP) =  -4069.81167473     A.U. after   19 cycles

 Excitation energies and oscillator strengths:

 Excited State   1:      Singlet-A      1.6674 eV  743.59 nm  f=0.0830  <S**2>=0.000
     309 -> 315       -0.10894
     310 -> 316        0.13289
     311 -> 313       -0.43388
     312 -> 314        0.53195
 This state for optimization and/or second-order correction.
 Total Energy, E(TD-HF/TD-DFT) =  -4069.75039990
 Copying the excited state density for this state as the 1-particle RhoCI density.

 Excited State   2:      Singlet-A      1.6869 eV  734.98 nm  f=0.6549  <S**2>=0.000
     309 -> 315        0.13732
     310 -> 316        0.11169
     311 -> 313        0.53097
     312 -> 314        0.43320

 Excited State   3:      Singlet-A      2.1853 eV  567.35 nm  f=0.0584  <S**2>=0.000
     309 -> 313       -0.17744
     310 -> 314        0.61783
     312 -> 316       -0.26219

 Excited State   4:      Singlet-A      2.1924 eV  565.52 nm  f=0.1346  <S**2>=0.000
     309 -> 313        0.61587
     310 -> 314        0.17609
     311 -> 315       -0.26748

 Excited State   5:      Singlet-A      2.6500 eV  467.86 nm  f=0.0000  <S**2>=0.000
     312 -> 313        0.70710

 The electronic state is 1-A.
 Alpha  occ. eigenvalues --  -46.87850 -46.87554 -19.26284 -19.26280 -19.19087
 Alpha  occ. eigenvalues --  -19.19025 -19.18891 -19.18621 -19.18206 -19.17942
 Alpha  occ. eigenvalues --  -14.42502 -14.42396 -14.41501 -14.41252 -14.39459
 Alpha  occ. eigenvalues --  -14.39248 -14.38638 -14.38490 -10.39087 -10.39014
 Alpha  occ. eigenvalues --  -10.35527 -10.35299 -10.34424 -10.34120 -10.31709
 Alpha  occ. eigenvalues --  -10.31654 -10.31451 -10.31208 -10.30961 -10.30932
 Alpha  occ. eigenvalues --  -10.30620 -10.30560 -10.30287 -10.30264 -10.30251
 Alpha  occ. eigenvalues --  -10.30035 -10.29968 -10.29781 -10.29686 -10.29331
 Alpha  occ. eigenvalues --  -10.29313 -10.29293 -10.28790 -10.28648 -10.28623
 Alpha  occ. eigenvalues --  -10.28566 -10.28417 -10.28301 -10.28161 -10.28067
 Alpha  occ. eigenvalues --  -10.27891 -10.27846 -10.27780 -10.27644 -10.27571
 Alpha  occ. eigenvalues --  -10.27564 -10.27548 -10.27495 -10.27451 -10.27405
 Alpha  occ. eigenvalues --  -10.27385 -10.27381 -10.27361 -10.27267 -10.27187
 Alpha  occ. eigenvalues --  -10.26950 -10.26744 -10.26638 -10.26515 -10.26336
 Alpha  occ. eigenvalues --  -10.26274 -10.26227 -10.26072 -10.26035 -10.25954
 Alpha  occ. eigenvalues --  -10.25886 -10.25822 -10.25695 -10.25477 -10.25285
 Alpha  occ. eigenvalues --  -10.24883 -10.24839 -10.24760 -10.24732 -10.24637
 Alpha  occ. eigenvalues --  -10.24584  -3.16593  -3.16304  -1.91475  -1.91186
 Alpha  occ. eigenvalues --   -1.91061  -1.90903  -1.90775  -1.90612  -1.16631
 Alpha  occ. eigenvalues --   -1.16576  -1.08660  -1.08550  -1.07293  -1.06874
 Alpha  occ. eigenvalues --   -1.06871  -1.06647  -1.04632  -1.04395  -1.03812
 Alpha  occ. eigenvalues --   -1.03558  -1.03287  -1.02930  -1.02463  -1.02004
 Alpha  occ. eigenvalues --   -0.92016  -0.91883  -0.89568  -0.89388  -0.89231
 Alpha  occ. eigenvalues --   -0.89075  -0.88334  -0.88115  -0.87919  -0.87723
 Alpha  occ. eigenvalues --   -0.87672  -0.87585  -0.87344  -0.87024  -0.85028
 Alpha  occ. eigenvalues --   -0.84918  -0.83980  -0.83773  -0.83042  -0.82840
 Alpha  occ. eigenvalues --   -0.82695  -0.82570  -0.81612  -0.81509  -0.80639
 Alpha  occ. eigenvalues --   -0.80351  -0.78859  -0.78532  -0.77267  -0.77053
 Alpha  occ. eigenvalues --   -0.76969  -0.76813  -0.75959  -0.75753  -0.74941
 Alpha  occ. eigenvalues --   -0.74702  -0.72824  -0.72590  -0.71717  -0.71483
 Alpha  occ. eigenvalues --   -0.69953  -0.69655  -0.68921  -0.68743  -0.67692
 Alpha  occ. eigenvalues --   -0.67503  -0.67271  -0.67124  -0.65328  -0.65189
 Alpha  occ. eigenvalues --   -0.64895  -0.64671  -0.64660  -0.64565  -0.64316
 Alpha  occ. eigenvalues --   -0.64101  -0.62318  -0.62193  -0.60505  -0.60240
 Alpha  occ. eigenvalues --   -0.59851  -0.59709  -0.59034  -0.58891  -0.58549
 Alpha  occ. eigenvalues --   -0.58326  -0.57615  -0.57457  -0.57354  -0.57134
 Alpha  occ. eigenvalues --   -0.56362  -0.56102  -0.55996  -0.55809  -0.55577
 Alpha  occ. eigenvalues --   -0.55375  -0.55362  -0.55148  -0.54551  -0.54396
 Alpha  occ. eigenvalues --   -0.53938  -0.53837  -0.53355  -0.53272  -0.53128
 Alpha  occ. eigenvalues --   -0.53055  -0.52952  -0.52820  -0.52816  -0.52585
 Alpha  occ. eigenvalues --   -0.52483  -0.52301  -0.51959  -0.51749  -0.51666
 Alpha  occ. eigenvalues --   -0.51580  -0.51236  -0.51102  -0.50655  -0.50388
 Alpha  occ. eigenvalues --   -0.50082  -0.49982  -0.49893  -0.49766  -0.49567
 Alpha  occ. eigenvalues --   -0.49400  -0.49262  -0.49137  -0.49110  -0.49013
 Alpha  occ. eigenvalues --   -0.48628  -0.48522  -0.48489  -0.48467  -0.48272
 Alpha  occ. eigenvalues --   -0.48247  -0.47744  -0.47506  -0.47348  -0.47023
 Alpha  occ. eigenvalues --   -0.46844  -0.46612  -0.46599  -0.46475  -0.46407
 Alpha  occ. eigenvalues --   -0.46202  -0.46168  -0.45978  -0.45853  -0.45721
 Alpha  occ. eigenvalues --   -0.45248  -0.45106  -0.44617  -0.44565  -0.44424
 Alpha  occ. eigenvalues --   -0.44385  -0.44195  -0.44134  -0.44065  -0.44037
 Alpha  occ. eigenvalues --   -0.43982  -0.43848  -0.43523  -0.43468  -0.43432
 Alpha  occ. eigenvalues --   -0.43294  -0.43071  -0.42848  -0.42802  -0.42732
 Alpha  occ. eigenvalues --   -0.42675  -0.42453  -0.42052  -0.41873  -0.41748
 Alpha  occ. eigenvalues --   -0.41578  -0.41569  -0.41377  -0.41187  -0.40918
 Alpha  occ. eigenvalues --   -0.40896  -0.40889  -0.40640  -0.40616  -0.40616
 Alpha  occ. eigenvalues --   -0.40393  -0.40278  -0.40163  -0.39487  -0.39323
 Alpha  occ. eigenvalues --   -0.38515  -0.38251  -0.37789  -0.37584  -0.37368
 Alpha  occ. eigenvalues --   -0.37308  -0.37165  -0.37110  -0.36731  -0.36693
 Alpha  occ. eigenvalues --   -0.36224  -0.36122  -0.34336  -0.34149  -0.33784
 Alpha  occ. eigenvalues --   -0.33782  -0.33234  -0.33070  -0.31419  -0.31180
 Alpha  occ. eigenvalues --   -0.31085  -0.30871  -0.30063  -0.29847  -0.29509
 Alpha  occ. eigenvalues --   -0.29373  -0.29222  -0.29097  -0.24131  -0.23929
 Alpha  occ. eigenvalues --   -0.21180  -0.21011
 Alpha virt. eigenvalues --   -0.08829  -0.08685  -0.01804  -0.01579  -0.00120
 Alpha virt. eigenvalues --    0.00068   0.02155   0.02319   0.03059   0.03321
 Alpha virt. eigenvalues --    0.04672   0.04821   0.05086   0.05244   0.06145

 Mulliken charges:
               1
     1  Mg   0.838556
     2  C   -0.002911
     3  C   -0.094331
     4  C   -0.045909
     5  C   -0.063994
     6  N   -0.256783
     7  C   -0.052406
     8  C   -0.013958
     9  C   -0.086953
    10  C    0.046264
    11  C    0.104809
    12  C    0.053532
    13  C   -0.071984
    14  H    0.036761
    15  N   -0.433096
    16  C    0.168244
    17  C   -0.177420
    18  C   -0.004232
    19  C    0.148633
    20  C    0.110227
    21  C    0.012025
    22  O   -0.249581
    23  C    0.062660
    24  N   -0.341158
    25  C    0.041216
    26  C   -0.028195
    27  C   -0.024038
    28  C    0.074959
    29  C    0.076146
    30  C    0.035106
    31  C   -0.004477
    32  N   -0.310543
    33  C    0.080560
    34  C   -0.169666
    35  C    0.008507
    36  C    0.083037
    37  C    0.127286
    38  C    0.046243
    39  O   -0.187971
    40  C   -0.005330
    41  C    0.212927
    42  O   -0.256943
    43  O   -0.304890
    44  C    0.157431
    45  H   -0.017661
    46  H   -0.016859
    47  H   -0.041388
    48  H    0.001167
    49  H   -0.004182
    50  H    0.025598
    51  H    0.016418
    52  H    0.016689
    53  H    0.010703
    54  H    0.044339
    55  H    0.018029
    56  H    0.017607
    57  H    0.005879
    58  H    0.026854
    59  H    0.038739
    60  H    0.037496
    61  H    0.035380
    62  H    0.030700
    63  H    0.016565
    64  H    0.009578
    65  H    0.023266
    66  H    0.012537
    67  H    0.004846
    68  H    0.006548
    69  H    0.004744
    70  H    0.008904
    71  H    0.018120
    72  H    0.028831
    73  H    0.047712
    74  H    0.009110
    75  H    0.046187
    76  H    0.035268
    77  H    0.043264
    78  H    0.046360
    79  H    0.054297
    80  Mg   0.838120
    81  C   -0.016773
    82  C   -0.087893
    83  C   -0.045413
    84  C   -0.064221
    85  N   -0.254505
    86  C   -0.049682
    87  C   -0.015096
    88  C   -0.090573
    89  C    0.045808
    90  C    0.114434
    91  C    0.062614
    92  C   -0.077632
    93  H    0.034590
    94  N   -0.423475
    95  C    0.162834
    96  C   -0.174746
    97  C   -0.007879
    98  C    0.152044
    99  C    0.099425
   100  C    0.015516
   101  O   -0.253328
   102  C    0.061238
   103  N   -0.349923
   104  C    0.037547
   105  C   -0.019871
   106  C   -0.034946
   107  C    0.088973
   108  C    0.073605
   109  C    0.034714
   110  C   -0.007628
   111  N   -0.324240
   112  C    0.078571
   113  C   -0.162504
   114  C    0.002501
   115  C    0.096309
   116  C    0.131314
   117  C    0.042837
   118  O   -0.187758
   119  C    0.000721
   120  C    0.211150
   121  O   -0.251147
   122  O   -0.305622
   123  C    0.152138
   124  H   -0.020180
   125  H   -0.015691
   126  H   -0.040040
   127  H   -0.000829
   128  H   -0.004859
   129  H    0.023004
   130  H    0.014867
   131  H    0.015132
   132  H    0.013872
   133  H    0.037701
   134  H    0.020449
   135  H    0.019313
   136  H    0.008337
   137  H    0.026084
   138  H    0.039451
   139  H    0.038262
   140  H    0.036190
   141  H    0.033685
   142  H    0.014155
   143  H    0.013054
   144  H    0.024718
   145  H    0.011884
   146  H    0.005990
   147  H    0.006106
   148  H    0.003858
   149  H    0.010763
   150  H    0.017787
   151  H    0.030065
   152  H    0.045736
   153  H    0.008505
   154  H    0.048629
   155  H    0.035443
   156  H    0.043702
   157  H    0.049193
   158  H    0.053516
 Sum of Mulliken charges =  -0.00000

 Dipole moment (field-independent basis, Debye):
    X=             -3.7838    Y=             -2.1579    Z=             -7.3371  Tot=              8.5327
 Quadrupole moment (field-independent basis, Debye-Ang):
   XX=           -518.1843   YY=           -541.4744   ZZ=           -457.5860
   XY=            -19.3775   XZ=              3.0464   YZ=            -38.9803

 Normal termination of Gaussian 16 at Sat Sep 11 13:42:18 2021.
