 Gaussian 16, Revision A.03,
 Gaussian 16:  ES64L-G16RevA.03 25-Dec-2016

 -----------------------------------
 #p cam-b3lyp/Def2SVP td=(nstates=5)
 -----------------------------------

 --------------------------------
 TDDFT excited states in gaussian
 --------------------------------
 Symbolic Z-matrix:
 Charge =  0 Multiplicity = 1

                         Standard orientation:
 ---------------------------------------------------------------------
 Center     Atomic      Atomic             Coordinates (Angstroms)
 Number     Number       Type             X           Y           Z
 ---------------------------------------------------------------------
      1         12           0      -15.789064    0.627389   -0.468242
      2          6           0      -16.019045   -2.598422    1.065859
      3          6           0      -16.745564    1.955013    2.526017
      4          6           0      -16.033789    3.438167   -1.916088
      5          6           0      -15.966022   -0.989068   -3.550678
      6          7           0      -16.288511   -0.306141    1.475908
      7          6           0      -16.279746   -1.548391    1.949099
      8          6           0      -16.499450   -1.624253    3.489667
      9          6           0      -17.263026   -0.241053    3.703460
     10          6           0      -16.706983    0.529009    2.518662
     11          6           0      -18.776720   -0.350857    3.551224
     12          6           0      -15.149228   -1.661646    4.281648
     13          6           0      -15.266882   -2.062086    5.755134
     14          1           0      -14.203209   -2.855389    6.352310
     15          7           0      -15.834603    2.454813    0.280956
     16          6           0      -16.237012    2.810370    1.524714
     17          6           0      -16.084517    4.279401    1.598035
     18          6           0      -15.741029    4.769834    0.234369
     19          6           0      -15.883634    3.561403   -0.536823
     20          6           0      -16.214255    5.057572    2.871365
     21          6           0      -15.357024    6.116469   -0.292172
     22          8           0      -15.326672    6.373923   -1.544119
     23          6           0      -15.099687    7.165247    0.711263
     24          7           0      -16.194176    1.178298   -2.440555
     25          6           0      -16.183901    2.462505   -2.814307
     26          6           0      -16.217930    2.596777   -4.307877
     27          6           0      -16.007700    1.124411   -4.888992
     28          6           0      -15.968962    0.345870   -3.550843
     29          6           0      -17.501004    3.199391   -4.896594
     30          6           0      -14.844691    0.924045   -5.892826
     31          6           0      -13.520072    1.112237   -5.187798
     32          7           0      -15.783877   -1.429591   -1.160955
     33          6           0      -15.889178   -1.872873   -2.487261
     34          6           0      -15.949111   -3.345578   -2.447057
     35          6           0      -15.890830   -3.658037   -1.090289
     36          6           0      -15.826691   -2.455679   -0.329689
     37          6           0      -16.102775   -4.204371   -3.571022
     38          6           0      -15.892656   -4.727123   -0.104942
     39          8           0      -15.837451   -5.956553   -0.159233
     40          6           0      -16.098614   -4.080461    1.335626
     41          6           0      -15.072478   -4.683804    2.255589
     42          8           0      -13.856414   -4.452830    2.096828
     43          8           0      -15.691317   -5.237990    3.309372
     44          6           0      -14.728076   -5.829128    4.276262
     45          1           0      -17.263073    2.464828    3.341011
     46          1           0      -16.011196    4.383014   -2.463072
     47          1           0      -15.936616   -1.564689   -4.477635
     48          1           0      -17.128500   -2.451508    3.818860
     49          1           0      -16.976460    0.241851    4.637486
     50          1           0      -19.070580   -1.337386    3.192995
     51          1           0      -19.052667    0.415174    2.826280
     52          1           0      -19.280069   -0.079949    4.479678
     53          1           0      -14.770846   -0.645765    4.395115
     54          1           0      -14.429699   -2.314930    3.786852
     55          1           0      -16.240148   -2.503382    5.971745
     56          1           0      -15.240411   -1.154834    6.358783
     57          1           0      -16.633369    4.449010    3.671702
     58          1           0      -16.962706    5.830395    2.697368
     59          1           0      -15.272109    5.518482    3.168441
     60          1           0      -15.992418    7.306976    1.320765
     61          1           0      -14.751686    8.034838    0.154885
     62          1           0      -14.317414    6.821499    1.388637
     63          1           0      -15.412032    3.238707   -4.661261
     64          1           0      -16.886827    0.767193   -5.425840
     65          1           0      -17.328376    4.086641   -5.506260
     66          1           0      -18.179961    3.417116   -4.072637
     67          1           0      -18.098012    2.509917   -5.492936
     68          1           0      -14.895072    1.669972   -6.685292
     69          1           0      -14.846333   -0.059584   -6.362636
     70          1           0      -13.386668    2.193322   -5.204847
     71          1           0      -12.722170    0.611688   -5.737356
     72          1           0      -13.578546    0.807576   -4.142691
     73          1           0      -15.404860   -5.028365   -3.422979
     74          1           0      -15.900863   -3.676824   -4.502971
     75          1           0      -17.150890   -4.485187   -3.468783
     76          1           0      -17.115887   -4.319560    1.644026
     77          1           0      -15.007987   -6.874118    4.409977
     78          1           0      -14.738356   -5.185955    5.156391
     79          1           0      -13.699680   -5.934376    3.928894
     80         12           0       15.958159    0.735992    0.344771
     81          6           0       15.812133   -2.281740   -1.591998
     82          6           0       15.018799   -1.127239    3.043016
     83          6           0       15.639676    3.439125    1.975435
     84          6           0       15.760705    2.504236   -2.651896
     85          7           0       15.504216   -1.416969    0.570505
     86          6           0       15.542090   -2.477872   -0.221582
     87          6           0       15.354749   -3.833944    0.510227
     88          6           0       14.559991   -3.302996    1.800703
     89          6           0       15.081726   -1.867994    1.835774
     90          6           0       13.053788   -3.258918    1.603864
     91          6           0       16.722290   -4.492167    0.908470
     92          6           0       16.628227   -5.955199    1.347128
     93          1           0       17.722274   -6.857790    0.999476
     94          7           0       15.891034    1.054556    2.302466
     95          6           0       15.506982    0.180608    3.256406
     96          6           0       15.616600    0.904156    4.532583
     97          6           0       15.938839    2.327053    4.238892
     98          6           0       15.812413    2.333411    2.795262
     99          6           0       15.499338    0.224593    5.865944
    100          6           0       16.288737    3.492575    5.113723
    101          8           0       16.296732    4.693045    4.664702
    102          6           0       16.530547    3.197298    6.533520
    103          7           0       15.520279    2.685655   -0.229192
    104          6           0       15.493988    3.682473    0.672795
    105          6           0       15.431998    5.030293   -0.005390
    106          6           0       15.667095    4.740012   -1.560400
    107          6           0       15.738596    3.197680   -1.521933
    108          6           0       14.127862    5.806724    0.175628
    109          6           0       16.819389    5.516280   -2.254893
    110          6           0       18.152596    5.059148   -1.708123
    111          7           0       15.998019    0.242026   -1.758199
    112          6           0       15.874793    1.133626   -2.846299
    113          6           0       15.844838    0.317037   -4.077040
    114          6           0       15.930237   -1.004794   -3.614479
    115          6           0       15.987569   -1.012533   -2.194570
    116          6           0       15.701592    0.815294   -5.402686
    117          6           0       15.974190   -2.395854   -4.003997
    118          8           0       16.045617   -2.996047   -5.075630
    119          6           0       15.772214   -3.290718   -2.705987
    120          6           0       16.823665   -4.366303   -2.715112
    121          8           0       18.027393   -4.074414   -2.603452
    122          8           0       16.224865   -5.568565   -2.635289
    123          6           0       17.227222   -6.667231   -2.629865
    124          1           0       14.509937   -1.571976    3.898678
    125          1           0       15.635245    4.406429    2.483139
    126          1           0       15.799475    2.985473   -3.631481
    127          1           0       14.753321   -4.559356   -0.024402
    128          1           0       14.859285   -3.839543    2.697305
    129          1           0       12.774006   -3.480754    0.584717
    130          1           0       12.751751   -2.254155    1.868950
    131          1           0       12.560349   -3.921067    2.321086
    132          1           0       17.079520   -4.038708    1.842010
    133          1           0       17.436081   -4.398519    0.113261
    134          1           0       15.662204   -6.403075    1.084139
    135          1           0       16.652531   -5.992372    2.438938
    136          1           0       15.097321   -0.791157    5.765769
    137          1           0       14.734175    0.764751    6.433949
    138          1           0       16.434402    0.239424    6.429942
    139          1           0       15.646170    2.730901    6.961097
    140          1           0       16.853764    4.140932    6.977326
    141          1           0       17.339834    2.462063    6.605056
    142          1           0       16.220179    5.680560    0.353793
    143          1           0       14.782968    4.998721   -2.161414
    144          1           0       14.275058    6.810093    0.617959
    145          1           0       13.460669    5.215180    0.788378
    146          1           0       13.544066    5.947031   -0.732507
    147          1           0       16.743279    6.583950   -2.034799
    148          1           0       16.822889    5.409476   -3.334505
    149          1           0       18.258670    5.648019   -0.792116
    150          1           0       18.951563    5.278925   -2.413372
    151          1           0       18.117779    4.002475   -1.418506
    152          1           0       16.410604    0.275712   -6.016415
    153          1           0       15.874219    1.888700   -5.444788
    154          1           0       14.656155    0.559808   -5.595170
    155          1           0       14.763614   -3.703836   -2.746585
    156          1           0       16.966696   -7.341451   -3.451596
    157          1           0       17.204229   -7.087559   -1.606860
    158          1           0       18.250451   -6.413388   -2.880890
 ---------------------------------------------------------------------

 SCF Done:  E(RCAM-B3LYP) =  -4069.81177431     A.U. after   19 cycles

 Excitation energies and oscillator strengths:

 Excited State   1:      Singlet-A      1.6755 eV  739.99 nm  f=0.3334  <S**2>=0.000
     310 -> 316        0.17198
     312 -> 313        0.67979
     310 <- 316        0.10366
 This state for optimization and/or second-order correction.
 Total Energy, E(TD-HF/TD-DFT) =  -4069.75020098
 Copying the excited state density for this state as the 1-particle RhoCI density.

 Excited State   2:      Singlet-A      1.6799 eV  738.03 nm  f=0.4432  <S**2>=0.000
     309 -> 315        0.17398
     311 -> 314        0.67944
     309 <- 315        0.10419

 Excited State   3:      Singlet-A      2.1861 eV  567.16 nm  f=0.1001  <S**2>=0.000
     310 -> 313        0.64235
     312 -> 316       -0.27302

 Excited State   4:      Singlet-A      2.1926 eV  565.48 nm  f=0.1007  <S**2>=0.000
     309 -> 314        0.64057
     311 -> 315       -0.27827

 Excited State   5:      Singlet-A      3.0660 eV  404.38 nm  f=0.0000  <S**2>=0.000
     311 -> 313        0.70711

 The electronic state is 1-A.
 Alpha  occ. eigenvalues --  -46.87796 -46.87660 -19.26344 -19.26289 -19.19157
 Alpha  occ. eigenvalues --  -19.19024 -19.18814 -19.18716 -19.18171 -19.18049
 Alpha  occ. eigenvalues --  -14.42496 -14.42450 -14.41449 -14.41359 -14.39402
 Alpha  occ. eigenvalues --  -14.39352 -14.38599 -14.38587 -10.39087 -10.39083
 Alpha  occ. eigenvalues --  -10.35447 -10.35393 -10.34391 -10.34226 -10.31750
 Alpha  occ. eigenvalues --  -10.31686 -10.31406 -10.31307 -10.31022 -10.30909
 Alpha  occ. eigenvalues --  -10.30570 -10.30507 -10.30398 -10.30360 -10.30206
 Alpha  occ. eigenvalues --  -10.30142 -10.29920 -10.29895 -10.29630 -10.29437
 Alpha  occ. eigenvalues --  -10.29401 -10.29254 -10.28751 -10.28715 -10.28648
 Alpha  occ. eigenvalues --  -10.28544 -10.28404 -10.28365 -10.28136 -10.28118
 Alpha  occ. eigenvalues --  -10.28000 -10.27793 -10.27727 -10.27668 -10.27584
 Alpha  occ. eigenvalues --  -10.27520 -10.27499 -10.27483 -10.27481 -10.27468
 Alpha  occ. eigenvalues --  -10.27465 -10.27447 -10.27404 -10.27378 -10.27160
 Alpha  occ. eigenvalues --  -10.27047 -10.26708 -10.26688 -10.26418 -10.26408
 Alpha  occ. eigenvalues --  -10.26236 -10.26180 -10.26141 -10.26019 -10.26018
 Alpha  occ. eigenvalues --  -10.25934 -10.25850 -10.25843 -10.25433 -10.25400
 Alpha  occ. eigenvalues --  -10.24872 -10.24833 -10.24787 -10.24734 -10.24690
 Alpha  occ. eigenvalues --  -10.24684  -3.16539  -3.16410  -1.91421  -1.91292
 Alpha  occ. eigenvalues --   -1.91007  -1.90881  -1.90850  -1.90718  -1.16638
 Alpha  occ. eigenvalues --   -1.16637  -1.08656  -1.08629  -1.07215  -1.06969
 Alpha  occ. eigenvalues --   -1.06941  -1.06647  -1.04581  -1.04494  -1.03760
 Alpha  occ. eigenvalues --   -1.03663  -1.03234  -1.03039  -1.02411  -1.02111
 Alpha  occ. eigenvalues --   -0.91986  -0.91973  -0.89518  -0.89495  -0.89189
 Alpha  occ. eigenvalues --   -0.89147  -0.88285  -0.88222  -0.87870  -0.87793
 Alpha  occ. eigenvalues --   -0.87683  -0.87673  -0.87273  -0.87121  -0.84997
 Alpha  occ. eigenvalues --   -0.84983  -0.83935  -0.83878  -0.82966  -0.82933
 Alpha  occ. eigenvalues --   -0.82651  -0.82650  -0.81594  -0.81588  -0.80597
 Alpha  occ. eigenvalues --   -0.80441  -0.78797  -0.78635  -0.77218  -0.77143
 Alpha  occ. eigenvalues --   -0.76936  -0.76896  -0.75925  -0.75836  -0.74897
 Alpha  occ. eigenvalues --   -0.74803  -0.72774  -0.72699  -0.71672  -0.71580
 Alpha  occ. eigenvalues --   -0.69905  -0.69759  -0.68874  -0.68825  -0.67641
 Alpha  occ. eigenvalues --   -0.67601  -0.67221  -0.67198  -0.65288  -0.65269
 Alpha  occ. eigenvalues --   -0.64854  -0.64769  -0.64652  -0.64621  -0.64268
 Alpha  occ. eigenvalues --   -0.64205  -0.62300  -0.62276  -0.60441  -0.60340
 Alpha  occ. eigenvalues --   -0.59805  -0.59794  -0.58992  -0.58987  -0.58504
 Alpha  occ. eigenvalues --   -0.58425  -0.57586  -0.57552  -0.57308  -0.57237
 Alpha  occ. eigenvalues --   -0.56310  -0.56203  -0.55982  -0.55883  -0.55520
 Alpha  occ. eigenvalues --   -0.55451  -0.55339  -0.55248  -0.54524  -0.54487
 Alpha  occ. eigenvalues --   -0.53909  -0.53896  -0.53299  -0.53227  -0.53223
 Alpha  occ. eigenvalues --   -0.53140  -0.52916  -0.52900  -0.52756  -0.52668
 Alpha  occ. eigenvalues --   -0.52436  -0.52403  -0.51915  -0.51884  -0.51656
 Alpha  occ. eigenvalues --   -0.51618  -0.51200  -0.51196  -0.50571  -0.50476
 Alpha  occ. eigenvalues --   -0.50030  -0.49979  -0.49918  -0.49868  -0.49515
 Alpha  occ. eigenvalues --   -0.49487  -0.49215  -0.49200  -0.49102  -0.49097
 Alpha  occ. eigenvalues --   -0.48594  -0.48556  -0.48460  -0.48446  -0.48377
 Alpha  occ. eigenvalues --   -0.48339  -0.47695  -0.47593  -0.47297  -0.47118
 Alpha  occ. eigenvalues --   -0.46797  -0.46708  -0.46557  -0.46551  -0.46359
 Alpha  occ. eigenvalues --   -0.46270  -0.46163  -0.46085  -0.45823  -0.45820
 Alpha  occ. eigenvalues --   -0.45210  -0.45200  -0.44579  -0.44512  -0.44507
 Alpha  occ. eigenvalues --   -0.44474  -0.44144  -0.44125  -0.44089  -0.44078
 Alpha  occ. eigenvalues --   -0.44020  -0.43938  -0.43551  -0.43497  -0.43386
 Alpha  occ. eigenvalues --   -0.43384  -0.43027  -0.42928  -0.42899  -0.42701
 Alpha  occ. eigenvalues --   -0.42655  -0.42555  -0.42009  -0.41964  -0.41704
 Alpha  occ. eigenvalues --   -0.41668  -0.41535  -0.41457  -0.41141  -0.40988
 Alpha  occ. eigenvalues --   -0.40870  -0.40823  -0.40722  -0.40697  -0.40570
 Alpha  occ. eigenvalues --   -0.40494  -0.40237  -0.40224  -0.39439  -0.39428
 Alpha  occ. eigenvalues --   -0.38468  -0.38351  -0.37750  -0.37651  -0.37319
 Alpha  occ. eigenvalues --   -0.37266  -0.37265  -0.37197  -0.36768  -0.36716
 Alpha  occ. eigenvalues --   -0.36216  -0.36193  -0.34286  -0.34253  -0.33859
 Alpha  occ. eigenvalues --   -0.33774  -0.33186  -0.33175  -0.31344  -0.31275
 Alpha  occ. eigenvalues --   -0.31036  -0.30972  -0.30030  -0.29953  -0.29449
 Alpha  occ. eigenvalues --   -0.29327  -0.29322  -0.29211  -0.24080  -0.24035
 Alpha  occ. eigenvalues --   -0.21127  -0.21116
 Alpha virt. eigenvalues --   -0.08792  -0.08774  -0.01749  -0.01684  -0.00058
 Alpha virt. eigenvalues --   -0.00029   0.02200   0.02208   0.03123   0.03225
 Alpha virt. eigenvalues --    0.04717   0.04732   0.05095   0.05169   0.06174

 Mulliken charges:
               1
     1  Mg   0.838751
     2  C   -0.002976
     3  C   -0.094128
     4  C   -0.045883
     5  C   -0.063959
     6  N   -0.256783
     7  C   -0.052482
     8  C   -0.014000
     9  C   -0.087024
    10  C    0.046331
    11  C    0.104813
    12  C    0.053476
    13  C   -0.071792
    14  H    0.036066
    15  N   -0.433160
    16  C    0.168426
    17  C   -0.177154
    18  C   -0.003990
    19  C    0.148731
    20  C    0.110181
    21  C    0.012290
    22  O   -0.249598
    23  C    0.062471
    24  N   -0.341157
    25  C    0.041270
    26  C   -0.028181
    27  C   -0.023990
    28  C    0.074857
    29  C    0.076173
    30  C    0.035137
    31  C   -0.004515
    32  N   -0.310456
    33  C    0.080403
    34  C   -0.169714
    35  C    0.008343
    36  C    0.082990
    37  C    0.127312
    38  C    0.046124
    39  O   -0.188468
    40  C   -0.005343
    41  C    0.212873
    42  O   -0.257120
    43  O   -0.304788
    44  C    0.157701
    45  H   -0.017605
    46  H   -0.016817
    47  H   -0.041474
    48  H    0.000925
    49  H   -0.004043
    50  H    0.025471
    51  H    0.016462
    52  H    0.016654
    53  H    0.011208
    54  H    0.044104
    55  H    0.017874
    56  H    0.017954
    57  H    0.005866
    58  H    0.026836
    59  H    0.039557
    60  H    0.037348
    61  H    0.035675
    62  H    0.031501
    63  H    0.016573
    64  H    0.009470
    65  H    0.023232
    66  H    0.012539
    67  H    0.004762
    68  H    0.006389
    69  H    0.004739
    70  H    0.008793
    71  H    0.018168
    72  H    0.028959
    73  H    0.047559
    74  H    0.009132
    75  H    0.046008
    76  H    0.035145
    77  H    0.042927
    78  H    0.046394
    79  H    0.053656
    80  Mg   0.837820
    81  C   -0.016804
    82  C   -0.087767
    83  C   -0.045525
    84  C   -0.064886
    85  N   -0.254568
    86  C   -0.049838
    87  C   -0.015085
    88  C   -0.090485
    89  C    0.045743
    90  C    0.114354
    91  C    0.062522
    92  C   -0.077921
    93  H    0.034914
    94  N   -0.423485
    95  C    0.162920
    96  C   -0.174623
    97  C   -0.007816
    98  C    0.152134
    99  C    0.099365
   100  C    0.015571
   101  O   -0.253205
   102  C    0.061187
   103  N   -0.350036
   104  C    0.037533
   105  C   -0.019833
   106  C   -0.034809
   107  C    0.088912
   108  C    0.073647
   109  C    0.034736
   110  C   -0.007669
   111  N   -0.324108
   112  C    0.078449
   113  C   -0.163132
   114  C    0.002260
   115  C    0.096195
   116  C    0.131480
   117  C    0.042397
   118  O   -0.187826
   119  C    0.000893
   120  C    0.211271
   121  O   -0.251045
   122  O   -0.305604
   123  C    0.152022
   124  H   -0.019620
   125  H   -0.015598
   126  H   -0.040460
   127  H   -0.000594
   128  H   -0.004308
   129  H    0.022511
   130  H    0.014425
   131  H    0.016356
   132  H    0.013899
   133  H    0.037666
   134  H    0.020846
   135  H    0.019601
   136  H    0.008794
   137  H    0.026143
   138  H    0.039789
   139  H    0.038258
   140  H    0.036373
   141  H    0.033906
   142  H    0.014382
   143  H    0.012430
   144  H    0.025114
   145  H    0.011657
   146  H    0.005690
   147  H    0.006246
   148  H    0.003653
   149  H    0.010920
   150  H    0.017924
   151  H    0.030114
   152  H    0.046013
   153  H    0.008499
   154  H    0.046987
   155  H    0.035097
   156  H    0.043952
   157  H    0.049513
   158  H    0.053566
 Sum of Mulliken charges =  -0.00000

 Dipole moment (field-independent basis, Debye):
    X=             -4.1791    Y=              2.1631    Z=              6.6136  Tot=              8.1169
 Quadrupole moment (field-independent basis, Debye-Ang):
   XX=           -516.6649   YY=           -527.0581   ZZ=           -471.9126
   XY=            -56.5347   XZ=             16.6111   YZ=            -25.8733

 Normal termination of Gaussian 16 at Sun Sep 12 21:14:23 2021.
