 Gaussian 16, Revision A.03,
 Gaussian 16:  ES64L-G16RevA.03 25-Dec-2016

 -----------------------------------
 #p cam-b3lyp/Def2SVP td=(nstates=5)
 -----------------------------------

 --------------------------------
 TDDFT excited states in gaussian
 --------------------------------
 Symbolic Z-matrix:
 Charge =  0 Multiplicity = 1

                         Standard orientation:
 ---------------------------------------------------------------------
 Center     Atomic      Atomic             Coordinates (Angstroms)
 Number     Number       Type             X           Y           Z
 ---------------------------------------------------------------------
      1         12           0        6.687703   -0.401513   -0.224243
      2          6           0        6.665247    3.095343   -0.988248
      3          6           0        7.638250    0.447912    2.940880
      4          6           0        7.154564   -3.485806    0.346546
      5          6           0        6.851911   -0.999236   -3.653736
      6          7           0        7.068650    1.557277    0.734228
      7          6           0        6.966392    2.825336    0.348559
      8          6           0        7.135130    3.841999    1.517018
      9          6           0        7.979025    2.934640    2.520282
     10          6           0        7.508700    1.565036    2.063222
     11          6           0        9.486425    3.032167    2.308771
     12          6           0        5.762453    4.262837    2.141825
     13          6           0        5.810602    5.487380    3.060264
     14          1           0        4.681134    6.404788    3.064002
     15          7           0        6.827949   -1.381148    1.485581
     16          6           0        7.215331   -0.873504    2.680369
     17          6           0        7.155084   -1.997355    3.639542
     18          6           0        6.884176   -3.241235    2.866582
     19          6           0        6.971879   -2.750134    1.515100
     20          6           0        7.296652   -1.823562    5.120590
     21          6           0        6.602901   -4.651196    3.280136
     22          8           0        6.626131   -5.621580    2.448037
     23          6           0        6.383662   -4.882338    4.719423
     24          7           0        7.185403   -2.013699   -1.453383
     25          6           0        7.268413   -3.255359   -0.963102
     26          6           0        7.355125   -4.271907   -2.062670
     27          6           0        7.068355   -3.480769   -3.419732
     28          6           0        6.940301   -2.051608   -2.837177
     29          6           0        8.690992   -5.018726   -2.179854
     30          6           0        5.925104   -4.016368   -4.317802
     31          6           0        4.594977   -3.824779   -3.624149
     32          7           0        6.571344    0.796408   -2.030479
     33          6           0        6.687232    0.342354   -3.352250
     34          6           0        6.651556    1.532139   -4.222426
     35          6           0        6.533291    2.603876   -3.339682
     36          6           0        6.523783    2.116480   -2.001532
     37          6           0        6.783105    1.532691   -5.639158
     38          6           0        6.437536    4.049223   -3.214540
     39          8           0        6.305375    4.981532   -4.008786
     40          6           0        6.641771    4.434170   -1.682896
     41          6           0        5.552359    5.401712   -1.308258
     42          8           0        4.358803    5.038994   -1.273269
     43          8           0        6.103016    6.525344   -0.823727
     44          6           0        5.075737    7.516273   -0.405504
     45          1           0        8.163002    0.579744    3.889140
     46          1           0        7.208686   -4.566656    0.492397
     47          1           0        6.813146   -1.114086   -4.738522
     48          1           0        7.699923    4.738678    1.261283
     49          1           0        7.696460    3.105198    3.558930
     50          1           0        9.726998    3.611159    1.417248
     51          1           0        9.832160    2.004025    2.199760
     52          1           0        9.978403    3.420739    3.200817
     53          1           0        5.446686    3.505271    2.859074
     54          1           0        5.017530    4.425974    1.362209
     55          1           0        6.746790    6.034597    2.946187
     56          1           0        5.824419    5.139292    4.093145
     57          1           0        7.652098   -0.825717    5.374576
     58          1           0        8.097857   -2.487793    5.443975
     59          1           0        6.377570   -2.070086    5.652422
     60          1           0        7.265217   -4.560140    5.274038
     61          1           0        6.108647   -5.931960    4.816947
     62          1           0        5.561299   -4.251000    5.057180
     63          1           0        6.602776   -5.049414   -1.936654
     64          1           0        7.938305   -3.466902   -4.076748
     65          1           0        8.593620   -6.102793   -2.116441
     66          1           0        9.357827   -4.640036   -1.405763
     67          1           0        9.260016   -4.798661   -3.082738
     68          1           0        6.046546   -5.085437   -4.488945
     69          1           0        5.877672   -3.527952   -5.291173
     70          1           0        4.531613   -4.696703   -2.974099
     71          1           0        3.783274   -3.820920   -4.352390
     72          1           0        4.602894   -2.941685   -2.984956
     73          1           0        6.029803    2.224873   -6.015175
     74          1           0        6.643028    0.533190   -6.050229
     75          1           0        7.807612    1.888613   -5.746686
     76          1           0        7.632085    4.881108   -1.601372
     77          1           0        5.284104    8.441125   -0.943524
     78          1           0        5.101133    7.547924    0.683881
     79          1           0        4.053438    7.316234   -0.728346
     80         12           0       -6.515194   -1.140208    0.290002
     81          6           0       -7.885130    2.142957   -0.182386
     82          6           0       -4.505549    0.206947    2.694391
     83          6           0       -4.977055   -3.912453    0.417291
     84          6           0       -7.770238   -1.965125   -2.854853
     85          7           0       -6.314447    0.921182    1.066307
     86          6           0       -6.930918    2.074109    0.854034
     87          6           0       -6.558567    3.197127    1.858896
     88          6           0       -5.117674    2.649158    2.308841
     89          6           0       -5.328537    1.160031    2.042926
     90          6           0       -3.984391    3.136981    1.421693
     91          6           0       -7.551112    3.266798    3.072160
     92          6           0       -7.432565    4.529616    3.928309
     93          1           0       -8.647778    5.092375    4.510574
     94          7           0       -5.331016   -1.888503    1.695831
     95          6           0       -4.607573   -1.198570    2.602415
     96          6           0       -3.890371   -2.207729    3.397000
     97          6           0       -4.121388   -3.541910    2.779496
     98          6           0       -4.816924   -3.154989    1.568455
     99          6           0       -3.148784   -1.873492    4.658645
    100          6           0       -3.762906   -4.934467    3.201951
    101          8           0       -3.852772   -5.926854    2.395776
    102          6           0       -3.215131   -5.087739    4.557661
    103          7           0       -6.204980   -2.646104   -1.109423
    104          6           0       -5.545937   -3.770865   -0.780048
    105          6           0       -5.685054   -4.819932   -1.857319
    106          6           0       -6.779993   -4.249390   -2.873760
    107          6           0       -7.030109   -2.869027   -2.227688
    108          6           0       -4.407166   -5.159501   -2.624171
    109          6           0       -8.003681   -5.158109   -3.172946
    110          6           0       -8.857985   -5.297920   -1.933584
    111          7           0       -7.781702   -0.187115   -1.178199
    112          6           0       -8.160695   -0.698757   -2.438624
    113          6           0       -8.930939    0.359129   -3.124214
    114          6           0       -8.926970    1.429584   -2.217239
    115          6           0       -8.188052    1.071749   -1.057306
    116          6           0       -9.479425    0.272098   -4.434824
    117          6           0       -9.370832    2.784664   -1.981801
    118          8           0      -10.106244    3.573204   -2.574356
    119          6           0       -8.609014    3.351730   -0.707258
    120          6           0       -9.625480    4.003855    0.189426
    121          8           0      -10.511358    3.325557    0.738738
    122          8           0       -9.255570    5.276338    0.422476
    123          6           0      -10.226861    5.961713    1.316162
    124          1           0       -3.674931    0.567576    3.301767
    125          1           0       -4.558563   -4.920897    0.454419
    126          1           0       -8.278651   -2.179075   -3.797407
    127          1           0       -6.461308    4.183732    1.421963
    128          1           0       -4.940372    2.826259    3.366464
    129          1           0       -4.350249    3.678148    0.561791
    130          1           0       -3.450948    2.248327    1.110593
    131          1           0       -3.273159    3.725606    2.008203
    132          1           0       -7.264328    2.509716    3.813320
    133          1           0       -8.564862    3.147633    2.742418
    134          1           0       -6.847199    5.311950    3.430068
    135          1           0       -6.852471    4.289364    4.822614
    136          1           0       -3.014448   -0.790603    4.771408
    137          1           0       -2.131386   -2.262953    4.544261
    138          1           0       -3.601639   -2.322841    5.545033
    139          1           0       -2.316562   -4.483066    4.654585
    140          1           0       -3.104279   -6.163345    4.708174
    141          1           0       -3.941176   -4.689822    5.275401
    142          1           0       -6.043210   -5.754429   -1.443128
    143          1           0       -6.351735   -4.057771   -3.868607
    144          1           0       -4.144399   -6.233349   -2.580785
    145          1           0       -3.601477   -4.554636   -2.229773
    146          1           0       -4.411999   -4.880193   -3.676392
    147          1           0       -7.671943   -6.165402   -3.436488
    148          1           0       -8.619711   -4.797834   -3.990073
    149          1           0       -8.356082   -6.094686   -1.376494
    150          1           0       -9.874386   -5.581713   -2.198955
    151          1           0       -8.814627   -4.389772   -1.321188
    152          1           0      -10.475998    0.690096   -4.383662
    153          1           0       -9.496396   -0.755733   -4.791281
    154          1           0       -8.763247    0.886334   -4.987162
    155          1           0       -7.860629    4.061509   -1.061839
    156          1           0      -10.561495    6.862855    0.793057
    157          1           0       -9.698924    6.104243    2.277787
    158          1           0      -11.170865    5.464330    1.505686
 ---------------------------------------------------------------------

 SCF Done:  E(RCAM-B3LYP) =  -4069.81167067     A.U. after   19 cycles

 Excitation energies and oscillator strengths:

 Excited State   1:      Singlet-A      1.6656 eV  744.37 nm  f=0.0726  <S**2>=0.000
     309 -> 315       -0.10928
     310 -> 316        0.13206
     311 -> 313       -0.43613
     312 -> 314        0.53032
 This state for optimization and/or second-order correction.
 Total Energy, E(TD-HF/TD-DFT) =  -4069.75046002
 Copying the excited state density for this state as the 1-particle RhoCI density.

 Excited State   2:      Singlet-A      1.6883 eV  734.36 nm  f=0.6806  <S**2>=0.000
     309 -> 315        0.13755
     310 -> 316        0.11219
     311 -> 313        0.52914
     312 -> 314        0.43524

 Excited State   3:      Singlet-A      2.1844 eV  567.60 nm  f=0.0409  <S**2>=0.000
     309 -> 313       -0.19772
     310 -> 314        0.61211
     312 -> 316       -0.25854

 Excited State   4:      Singlet-A      2.1935 eV  565.24 nm  f=0.1478  <S**2>=0.000
     309 -> 313        0.60956
     310 -> 314        0.19594
     311 -> 315       -0.26571

 Excited State   5:      Singlet-A      2.6290 eV  471.60 nm  f=0.0000  <S**2>=0.000
     312 -> 313        0.70704

 The electronic state is 1-A.
 Alpha  occ. eigenvalues --  -46.87912 -46.87557 -19.26427 -19.26262 -19.19165
 Alpha  occ. eigenvalues --  -19.19073 -19.18917 -19.18633 -19.18281 -19.17951
 Alpha  occ. eigenvalues --  -14.42570 -14.42390 -14.41557 -14.41257 -14.39518
 Alpha  occ. eigenvalues --  -14.39251 -14.38701 -14.38497 -10.39222 -10.39001
 Alpha  occ. eigenvalues --  -10.35551 -10.35313 -10.34503 -10.34128 -10.31829
 Alpha  occ. eigenvalues --  -10.31680 -10.31526 -10.31198 -10.31036 -10.30920
 Alpha  occ. eigenvalues --  -10.30686 -10.30615 -10.30311 -10.30298 -10.30260
 Alpha  occ. eigenvalues --  -10.30044 -10.30019 -10.29792 -10.29742 -10.29367
 Alpha  occ. eigenvalues --  -10.29339 -10.29308 -10.28896 -10.28735 -10.28607
 Alpha  occ. eigenvalues --  -10.28584 -10.28483 -10.28304 -10.28253 -10.28010
 Alpha  occ. eigenvalues --  -10.27905 -10.27902 -10.27846 -10.27699 -10.27619
 Alpha  occ. eigenvalues --  -10.27578 -10.27563 -10.27523 -10.27522 -10.27427
 Alpha  occ. eigenvalues --  -10.27415 -10.27380 -10.27375 -10.27283 -10.27281
 Alpha  occ. eigenvalues --  -10.26946 -10.26890 -10.26607 -10.26526 -10.26362
 Alpha  occ. eigenvalues --  -10.26355 -10.26243 -10.26125 -10.26060 -10.25935
 Alpha  occ. eigenvalues --  -10.25836 -10.25833 -10.25752 -10.25500 -10.25299
 Alpha  occ. eigenvalues --  -10.24945 -10.24892 -10.24772 -10.24738 -10.24659
 Alpha  occ. eigenvalues --  -10.24589  -3.16655  -3.16307  -1.91537  -1.91189
 Alpha  occ. eigenvalues --   -1.91123  -1.90965  -1.90778  -1.90614  -1.16776
 Alpha  occ. eigenvalues --   -1.16556  -1.08740  -1.08558  -1.07316  -1.06885
 Alpha  occ. eigenvalues --   -1.06857  -1.06786  -1.04702  -1.04389  -1.03871
 Alpha  occ. eigenvalues --   -1.03561  -1.03346  -1.02938  -1.02523  -1.02010
 Alpha  occ. eigenvalues --   -0.92090  -0.91884  -0.89613  -0.89400  -0.89328
 Alpha  occ. eigenvalues --   -0.89033  -0.88376  -0.88127  -0.87978  -0.87795
 Alpha  occ. eigenvalues --   -0.87694  -0.87583  -0.87392  -0.87042  -0.85118
 Alpha  occ. eigenvalues --   -0.84894  -0.84021  -0.83786  -0.83075  -0.82858
 Alpha  occ. eigenvalues --   -0.82775  -0.82554  -0.81712  -0.81503  -0.80717
 Alpha  occ. eigenvalues --   -0.80349  -0.78913  -0.78548  -0.77334  -0.77059
 Alpha  occ. eigenvalues --   -0.77047  -0.76799  -0.76049  -0.75730  -0.74991
 Alpha  occ. eigenvalues --   -0.74707  -0.72884  -0.72599  -0.71783  -0.71473
 Alpha  occ. eigenvalues --   -0.69985  -0.69670  -0.69003  -0.68726  -0.67756
 Alpha  occ. eigenvalues --   -0.67507  -0.67364  -0.67114  -0.65420  -0.65168
 Alpha  occ. eigenvalues --   -0.64970  -0.64738  -0.64671  -0.64556  -0.64364
 Alpha  occ. eigenvalues --   -0.64110  -0.62422  -0.62186  -0.60552  -0.60254
 Alpha  occ. eigenvalues --   -0.59935  -0.59686  -0.59098  -0.58893  -0.58616
 Alpha  occ. eigenvalues --   -0.58328  -0.57707  -0.57456  -0.57414  -0.57145
 Alpha  occ. eigenvalues --   -0.56425  -0.56114  -0.56111  -0.55797  -0.55636
 Alpha  occ. eigenvalues --   -0.55438  -0.55364  -0.55155  -0.54631  -0.54398
 Alpha  occ. eigenvalues --   -0.54036  -0.53800  -0.53410  -0.53350  -0.53136
 Alpha  occ. eigenvalues --   -0.53047  -0.53037  -0.52882  -0.52808  -0.52585
 Alpha  occ. eigenvalues --   -0.52514  -0.52319  -0.52017  -0.51786  -0.51755
 Alpha  occ. eigenvalues --   -0.51565  -0.51308  -0.51105  -0.50694  -0.50406
 Alpha  occ. eigenvalues --   -0.50125  -0.50033  -0.49879  -0.49777  -0.49639
 Alpha  occ. eigenvalues --   -0.49393  -0.49334  -0.49223  -0.49103  -0.48991
 Alpha  occ. eigenvalues --   -0.48713  -0.48561  -0.48553  -0.48456  -0.48283
 Alpha  occ. eigenvalues --   -0.48254  -0.47813  -0.47501  -0.47409  -0.47031
 Alpha  occ. eigenvalues --   -0.46907  -0.46693  -0.46612  -0.46469  -0.46450
 Alpha  occ. eigenvalues --   -0.46268  -0.46179  -0.45990  -0.45939  -0.45724
 Alpha  occ. eigenvalues --   -0.45292  -0.45112  -0.44694  -0.44625  -0.44417
 Alpha  occ. eigenvalues --   -0.44375  -0.44250  -0.44213  -0.44137  -0.44018
 Alpha  occ. eigenvalues --   -0.43992  -0.43852  -0.43615  -0.43504  -0.43461
 Alpha  occ. eigenvalues --   -0.43284  -0.43139  -0.42840  -0.42825  -0.42803
 Alpha  occ. eigenvalues --   -0.42747  -0.42464  -0.42113  -0.41873  -0.41817
 Alpha  occ. eigenvalues --   -0.41667  -0.41568  -0.41361  -0.41255  -0.40994
 Alpha  occ. eigenvalues --   -0.40940  -0.40877  -0.40665  -0.40637  -0.40602
 Alpha  occ. eigenvalues --   -0.40396  -0.40395  -0.40138  -0.39515  -0.39340
 Alpha  occ. eigenvalues --   -0.38566  -0.38255  -0.37901  -0.37562  -0.37420
 Alpha  occ. eigenvalues --   -0.37400  -0.37169  -0.37098  -0.36840  -0.36682
 Alpha  occ. eigenvalues --   -0.36308  -0.36121  -0.34400  -0.34152  -0.33910
 Alpha  occ. eigenvalues --   -0.33772  -0.33301  -0.33075  -0.31446  -0.31191
 Alpha  occ. eigenvalues --   -0.31149  -0.30871  -0.30142  -0.29855  -0.29563
 Alpha  occ. eigenvalues --   -0.29434  -0.29234  -0.29111  -0.24195  -0.23932
 Alpha  occ. eigenvalues --   -0.21241  -0.21016
 Alpha virt. eigenvalues --   -0.08888  -0.08693  -0.01860  -0.01583  -0.00173
 Alpha virt. eigenvalues --    0.00065   0.02092   0.02307   0.02987   0.03316
 Alpha virt. eigenvalues --    0.04588   0.04836   0.04959   0.05257   0.06016

 Mulliken charges:
               1
     1  Mg   0.838332
     2  C   -0.003291
     3  C   -0.094690
     4  C   -0.045571
     5  C   -0.063684
     6  N   -0.256770
     7  C   -0.052635
     8  C   -0.013919
     9  C   -0.086919
    10  C    0.046095
    11  C    0.104780
    12  C    0.053677
    13  C   -0.071520
    14  H    0.035156
    15  N   -0.433140
    16  C    0.168195
    17  C   -0.177574
    18  C   -0.004018
    19  C    0.148661
    20  C    0.110262
    21  C    0.012310
    22  O   -0.248913
    23  C    0.062630
    24  N   -0.341138
    25  C    0.041268
    26  C   -0.028304
    27  C   -0.024045
    28  C    0.074901
    29  C    0.076064
    30  C    0.035024
    31  C   -0.004541
    32  N   -0.310490
    33  C    0.080432
    34  C   -0.169511
    35  C    0.008436
    36  C    0.082955
    37  C    0.127285
    38  C    0.046162
    39  O   -0.188174
    40  C   -0.005344
    41  C    0.212999
    42  O   -0.257626
    43  O   -0.304622
    44  C    0.157703
    45  H   -0.017648
    46  H   -0.016399
    47  H   -0.041162
    48  H    0.001138
    49  H   -0.004424
    50  H    0.025641
    51  H    0.016682
    52  H    0.016718
    53  H    0.010376
    54  H    0.043687
    55  H    0.018459
    56  H    0.017656
    57  H    0.005693
    58  H    0.027148
    59  H    0.038608
    60  H    0.037418
    61  H    0.036181
    62  H    0.030439
    63  H    0.017040
    64  H    0.009627
    65  H    0.023579
    66  H    0.012492
    67  H    0.004897
    68  H    0.006724
    69  H    0.004746
    70  H    0.009392
    71  H    0.018298
    72  H    0.028626
    73  H    0.047736
    74  H    0.009340
    75  H    0.046216
    76  H    0.035342
    77  H    0.043371
    78  H    0.046119
    79  H    0.053354
    80  Mg   0.838222
    81  C   -0.016848
    82  C   -0.087607
    83  C   -0.045423
    84  C   -0.064756
    85  N   -0.254604
    86  C   -0.049440
    87  C   -0.015120
    88  C   -0.090629
    89  C    0.045927
    90  C    0.114353
    91  C    0.062582
    92  C   -0.077633
    93  H    0.034385
    94  N   -0.423535
    95  C    0.162967
    96  C   -0.174560
    97  C   -0.007864
    98  C    0.152195
    99  C    0.099497
   100  C    0.015648
   101  O   -0.253038
   102  C    0.061281
   103  N   -0.349979
   104  C    0.037617
   105  C   -0.019873
   106  C   -0.034809
   107  C    0.088974
   108  C    0.073606
   109  C    0.034764
   110  C   -0.007621
   111  N   -0.324151
   112  C    0.078580
   113  C   -0.163066
   114  C    0.002394
   115  C    0.096247
   116  C    0.131441
   117  C    0.042456
   118  O   -0.187925
   119  C    0.000879
   120  C    0.211183
   121  O   -0.251256
   122  O   -0.305446
   123  C    0.152140
   124  H   -0.019659
   125  H   -0.015588
   126  H   -0.040561
   127  H   -0.000381
   128  H   -0.005011
   129  H    0.023210
   130  H    0.015567
   131  H    0.016563
   132  H    0.013623
   133  H    0.037520
   134  H    0.020970
   135  H    0.019203
   136  H    0.008434
   137  H    0.025649
   138  H    0.039176
   139  H    0.037847
   140  H    0.036305
   141  H    0.033529
   142  H    0.014199
   143  H    0.012503
   144  H    0.024906
   145  H    0.012146
   146  H    0.005590
   147  H    0.006084
   148  H    0.003567
   149  H    0.010838
   150  H    0.017718
   151  H    0.030154
   152  H    0.045809
   153  H    0.008340
   154  H    0.047363
   155  H    0.035638
   156  H    0.043859
   157  H    0.049360
   158  H    0.053375
 Sum of Mulliken charges =  -0.00000

 Dipole moment (field-independent basis, Debye):
    X=              6.0026    Y=             -0.0710    Z=              6.2470  Tot=              8.6638
 Quadrupole moment (field-independent basis, Debye-Ang):
   XX=           -545.2527   YY=           -526.1959   ZZ=           -467.4891
   XY=             15.1138   XZ=             13.7436   YZ=             57.5718

 Normal termination of Gaussian 16 at Sat Sep 11 13:54:48 2021.
