 Gaussian 16, Revision A.03,
 Gaussian 16:  ES64L-G16RevA.03 25-Dec-2016

 -----------------------------------
 #p cam-b3lyp/Def2SVP td=(nstates=5)
 -----------------------------------

 --------------------------------
 TDDFT excited states in gaussian
 --------------------------------
 Symbolic Z-matrix:
 Charge =  0 Multiplicity = 1

                         Standard orientation:
 ---------------------------------------------------------------------
 Center     Atomic      Atomic             Coordinates (Angstroms)
 Number     Number       Type             X           Y           Z
 ---------------------------------------------------------------------
      1         12           0        4.668719   -0.414397    0.610394
      2          6           0        4.919887    2.642804   -1.234235
      3          6           0        5.114311    1.432702    3.444603
      4          6           0        4.904759   -3.137830    2.217820
      5          6           0        5.375863   -2.093047   -2.360758
      6          7           0        4.966530    1.755087    0.934887
      7          6           0        4.982955    2.826976    0.148786
      8          6           0        4.997379    4.170906    0.936834
      9          6           0        5.623976    3.651986    2.308000
     10          6           0        5.179359    2.201391    2.244637
     11          6           0        7.148300    3.697678    2.337149
     12          6           0        3.558722    4.751787    1.147960
     13          6           0        3.504618    6.209117    1.615524
     14          1           0        2.429624    7.060989    1.129675
     15          7           0        4.481559   -0.782150    2.542382
     16          6           0        4.685725    0.092324    3.556727
     17          6           0        4.419853   -0.659009    4.802316
     18          6           0        4.229494   -2.090578    4.438358
     19          6           0        4.561201   -2.064736    3.036688
     20          6           0        4.320276   -0.010666    6.148974
     21          6           0        3.824647   -3.293234    5.230729
     22          8           0        3.945341   -4.481115    4.773625
     23          6           0        3.359620   -3.046670    6.607681
     24          7           0        5.296049   -2.331251    0.072099
     25          6           0        5.244368   -3.344425    0.943759
     26          6           0        5.470156   -4.662048    0.263444
     27          6           0        5.446413   -4.359890   -1.304322
     28          6           0        5.283134   -2.821007   -1.245615
     29          6           0        6.774493   -5.386496    0.623848
     30          6           0        4.447059   -5.175431   -2.162579
     31          6           0        3.029286   -4.788263   -1.806044
     32          7           0        4.904575    0.128719   -1.477774
     33          6           0        5.219585   -0.728961   -2.541648
     34          6           0        5.378910    0.112250   -3.742084
     35          6           0        5.160405    1.411031   -3.286815
     36          6           0        4.908107    1.385511   -1.885392
     37          6           0        5.744152   -0.346285   -5.038532
     38          6           0        5.105696    2.816853   -3.653594
     39          8           0        5.146570    3.437910   -4.716660
     40          6           0        5.068273    3.682225   -2.317346
     41          6           0        3.973153    4.702782   -2.467299
     42          8           0        2.776291    4.353566   -2.521474
     43          8           0        4.482057    5.930948   -2.285181
     44          6           0        3.441878    6.988718   -2.391503
     45          1           0        5.479095    1.873673    4.374343
     46          1           0        4.888625   -4.111469    2.711989
     47          1           0        5.513281   -2.555197   -3.340037
     48          1           0        5.633834    4.943823    0.505616
     49          1           0        5.179990    4.147036    3.171438
     50          1           0        7.557791    3.958551    1.361350
     51          1           0        7.464050    2.695255    2.626878
     52          1           0        7.500882    4.362611    3.126026
     53          1           0        3.096667    4.264258    2.006378
     54          1           0        2.961315    4.641315    0.242296
     55          1           0        4.468793    6.703225    1.492509
     56          1           0        3.331895    6.216317    2.691774
     57          1           0        4.669943    1.020665    6.123775
     58          1           0        5.028053   -0.521582    6.801450
     59          1           0        3.316050   -0.084289    6.566636
     60          1           0        4.149351   -2.548525    7.170465
     61          1           0        3.028568   -4.011382    6.990546
     62          1           0        2.519667   -2.352030    6.577630
     63          1           0        4.675482   -5.367279    0.503374
     64          1           0        6.413324   -4.547697   -1.771747
     65          1           0        6.622685   -6.392246    1.016438
     66          1           0        7.318546   -4.766701    1.335995
     67          1           0        7.494450   -5.463810   -0.190462
     68          1           0        4.550460   -6.240086   -1.955784
     69          1           0        4.582637   -5.031091   -3.234510
     70          1           0        2.822289   -5.402044   -0.930112
     71          1           0        2.350883   -5.033598   -2.623840
     72          1           0        2.967709   -3.745221   -1.494982
     73          1           0        5.093491    0.174641   -5.740846
     74          1           0        5.632720   -1.427110   -5.122223
     75          1           0        6.786249   -0.029602   -5.078565
     76          1           0        6.049048    4.145973   -2.216647
     77          1           0        3.775311    7.691141   -3.155478
     78          1           0        3.287044    7.373505   -1.383351
     79          1           0        2.480050    6.679405   -2.802054
     80         12           0       -4.247538   -0.906090   -0.433051
     81          6           0       -6.919050    1.386879    0.262941
     82          6           0       -2.302662    1.806310   -1.136590
     83          6           0       -2.016862   -2.902648   -1.484358
     84          6           0       -6.661637   -3.394453   -0.787858
     85          7           0       -4.669610    1.264915   -0.403551
     86          6           0       -5.702337    2.021321   -0.063455
     87          6           0       -5.392101    3.540787    0.004042
     88          6           0       -4.131422    3.573212   -0.990193
     89          6           0       -3.642457    2.137331   -0.811814
     90          6           0       -4.518497    3.768509   -2.446681
     91          6           0       -4.996071    4.006356    1.449176
     92          6           0       -4.980819    5.522695    1.654728
     93          1           0       -5.399513    6.053891    2.948950
     94          7           0       -2.305208   -0.622812   -0.725745
     95          6           0       -1.682244    0.547873   -0.976104
     96          6           0       -0.257121    0.219337   -1.134967
     97          6           0       -0.112848   -1.261789   -1.121420
     98          6           0       -1.505508   -1.662383   -1.131062
     99          6           0        0.816851    1.266104   -1.200522
    100          6           0        1.081018   -2.167798   -1.115377
    101          8           0        0.973846   -3.424383   -1.344139
    102          6           0        2.390139   -1.525968   -0.926339
    103          7           0       -4.336696   -2.813839   -1.254565
    104          6           0       -3.214622   -3.480557   -1.577615
    105          6           0       -3.510874   -4.928091   -1.889530
    106          6           0       -5.038120   -5.153662   -1.472147
    107          6           0       -5.402414   -3.711568   -1.056150
    108          6           0       -3.314139   -5.348527   -3.345862
    109          6           0       -5.332024   -6.307320   -0.474466
    110          6           0       -4.745580   -5.980288    0.879979
    111          7           0       -6.378959   -1.061921   -0.115554
    112          6           0       -7.196260   -2.189171   -0.350970
    113          6           0       -8.591684   -1.775817   -0.097299
    114          6           0       -8.490859   -0.419823    0.248554
    115          6           0       -7.130861   -0.011348    0.193313
    116          6           0       -9.743112   -2.599687   -0.244140
    117          6           0       -9.226814    0.761615    0.637470
    118          8           0      -10.398652    0.998686    0.927866
    119          6           0       -8.255809    2.016326    0.541291
    120          6           0       -8.403753    2.816217    1.806522
    121          8           0       -8.050775    2.340446    2.899979
    122          8           0       -8.731940    4.082470    1.491458
    123          6           0       -8.879043    4.917787    2.713106
    124          1           0       -1.676547    2.570707   -1.597627
    125          1           0       -1.275578   -3.660505   -1.748222
    126          1           0       -7.462089   -4.137361   -0.781603
    127          1           0       -6.179529    4.182372   -0.372915
    128          1           0       -3.377450    4.277901   -0.649150
    129          1           0       -5.588678    3.734887   -2.587137
    130          1           0       -4.040292    2.963155   -2.988678
    131          1           0       -4.080156    4.693370   -2.832466
    132          1           0       -3.934942    3.783040    1.619101
    133          1           0       -5.629379    3.548447    2.183933
    134          1           0       -5.486343    6.054288    0.839377
    135          1           0       -3.946172    5.869892    1.600146
    136          1           0        0.394301    2.266972   -1.352551
    137          1           0        1.395185    1.074286   -2.110793
    138          1           0        1.489688    1.233648   -0.340921
    139          1           0        2.549636   -0.792372   -1.713023
    140          1           0        3.110103   -2.344101   -0.861710
    141          1           0        2.375857   -0.974257    0.020254
    142          1           0       -2.884600   -5.586659   -1.300324
    143          1           0       -5.666233   -5.398143   -2.341365
    144          1           0       -2.604332   -6.188716   -3.465527
    145          1           0       -2.980976   -4.486264   -3.908037
    146          1           0       -4.224571   -5.629864   -3.872337
    147          1           0       -4.848305   -7.228748   -0.807844
    148          1           0       -6.389518   -6.521514   -0.361211
    149          1           0       -3.700296   -6.286589    0.776775
    150          1           0       -5.247558   -6.546845    1.661681
    151          1           0       -4.755863   -4.899485    1.062734
    152          1           0      -10.372776   -2.410741    0.615127
    153          1           0       -9.473029   -3.651151   -0.316563
    154          1           0      -10.141277   -2.212352   -1.185790
    155          1           0       -8.545972    2.588250   -0.340916
    156          1           0       -9.878824    5.361536    2.678234
    157          1           0       -8.018735    5.613161    2.704917
    158          1           0       -8.907354    4.407504    3.668752
 ---------------------------------------------------------------------

 SCF Done:  E(RCAM-B3LYP) =  -4069.78931413     A.U. after   18 cycles

 Excitation energies and oscillator strengths:

 Excited State   1:      Singlet-A      1.6417 eV  755.24 nm  f=0.3357  <S**2>=0.000
     309 -> 315        0.11198
     310 -> 316        0.11598
     311 -> 313       -0.46484
     312 -> 314        0.50633
 This state for optimization and/or second-order correction.
 Total Energy, E(TD-HF/TD-DFT) =  -4069.72898435
 Copying the excited state density for this state as the 1-particle RhoCI density.

 Excited State   2:      Singlet-A      1.6848 eV  735.89 nm  f=0.4666  <S**2>=0.000
     309 -> 315       -0.12826
     310 -> 316        0.11133
     311 -> 313        0.50227
     312 -> 314        0.46190

 Excited State   3:      Singlet-A      2.1700 eV  571.34 nm  f=0.0057  <S**2>=0.000
     309 -> 313        0.52744
     310 -> 314       -0.37204
     311 -> 315        0.21193
     312 -> 316        0.14428

 Excited State   4:      Singlet-A      2.1883 eV  566.58 nm  f=0.1647  <S**2>=0.000
     309 -> 313        0.36766
     310 -> 314        0.52327
     311 -> 315        0.16288
     312 -> 316       -0.21640

 Excited State   5:      Singlet-A      2.2863 eV  542.28 nm  f=0.0000  <S**2>=0.000
     312 -> 313        0.70410

 The electronic state is 1-A.
 Alpha  occ. eigenvalues --  -46.88015 -46.87514 -19.26892 -19.26279 -19.19788
 Alpha  occ. eigenvalues --  -19.19084 -19.18961 -19.18788 -19.18472 -19.17920
 Alpha  occ. eigenvalues --  -14.42688 -14.42347 -14.41417 -14.41198 -14.39604
 Alpha  occ. eigenvalues --  -14.39228 -14.38691 -14.38453 -10.39747 -10.39009
 Alpha  occ. eigenvalues --  -10.35768 -10.35586 -10.34712 -10.34100 -10.32246
 Alpha  occ. eigenvalues --  -10.31727 -10.31710 -10.31161 -10.31108 -10.30886
 Alpha  occ. eigenvalues --  -10.30847 -10.30763 -10.30315 -10.30150 -10.30074
 Alpha  occ. eigenvalues --  -10.30060 -10.29989 -10.29919 -10.29797 -10.29364
 Alpha  occ. eigenvalues --  -10.29268 -10.29241 -10.29094 -10.28982 -10.28590
 Alpha  occ. eigenvalues --  -10.28587 -10.28556 -10.28421 -10.28237 -10.28003
 Alpha  occ. eigenvalues --  -10.27941 -10.27921 -10.27852 -10.27828 -10.27672
 Alpha  occ. eigenvalues --  -10.27662 -10.27546 -10.27420 -10.27417 -10.27352
 Alpha  occ. eigenvalues --  -10.27301 -10.27289 -10.27173 -10.27113 -10.26949
 Alpha  occ. eigenvalues --  -10.26933 -10.26879 -10.26586 -10.26498 -10.26494
 Alpha  occ. eigenvalues --  -10.26490 -10.26060 -10.26048 -10.25993 -10.25771
 Alpha  occ. eigenvalues --  -10.25756 -10.25724 -10.25354 -10.25215 -10.25079
 Alpha  occ. eigenvalues --  -10.24969 -10.24719 -10.24640 -10.24637 -10.24567
 Alpha  occ. eigenvalues --  -10.22117  -3.16719  -3.16264  -1.91610  -1.91187
 Alpha  occ. eigenvalues --   -1.91147  -1.91031  -1.90735  -1.90572  -1.17251
 Alpha  occ. eigenvalues --   -1.16570  -1.08963  -1.08535  -1.07579  -1.07349
 Alpha  occ. eigenvalues --   -1.07330  -1.06867  -1.04842  -1.04340  -1.03943
 Alpha  occ. eigenvalues --   -1.03530  -1.03455  -1.02896  -1.02599  -1.01962
 Alpha  occ. eigenvalues --   -0.92259  -0.91842  -0.89546  -0.89365  -0.89339
 Alpha  occ. eigenvalues --   -0.88972  -0.88109  -0.88099  -0.87984  -0.87819
 Alpha  occ. eigenvalues --   -0.87648  -0.87504  -0.87481  -0.87044  -0.85268
 Alpha  occ. eigenvalues --   -0.84871  -0.83795  -0.83710  -0.83265  -0.82979
 Alpha  occ. eigenvalues --   -0.82575  -0.82550  -0.81870  -0.81496  -0.80790
 Alpha  occ. eigenvalues --   -0.80378  -0.78993  -0.78451  -0.77389  -0.77010
 Alpha  occ. eigenvalues --   -0.76923  -0.76775  -0.76133  -0.75629  -0.74703
 Alpha  occ. eigenvalues --   -0.74648  -0.72914  -0.72518  -0.71847  -0.71433
 Alpha  occ. eigenvalues --   -0.69670  -0.69517  -0.69129  -0.68602  -0.67875
 Alpha  occ. eigenvalues --   -0.67539  -0.67504  -0.67177  -0.65582  -0.65154
 Alpha  occ. eigenvalues --   -0.65100  -0.64791  -0.64638  -0.64562  -0.64095
 Alpha  occ. eigenvalues --   -0.63885  -0.62523  -0.62166  -0.60672  -0.60382
 Alpha  occ. eigenvalues --   -0.60018  -0.59632  -0.59155  -0.58857  -0.58674
 Alpha  occ. eigenvalues --   -0.58283  -0.57987  -0.57442  -0.57322  -0.57296
 Alpha  occ. eigenvalues --   -0.56580  -0.56340  -0.56210  -0.55895  -0.55730
 Alpha  occ. eigenvalues --   -0.55655  -0.55418  -0.55154  -0.54645  -0.54407
 Alpha  occ. eigenvalues --   -0.54201  -0.53835  -0.53672  -0.53494  -0.53427
 Alpha  occ. eigenvalues --   -0.53286  -0.53071  -0.53013  -0.52880  -0.52766
 Alpha  occ. eigenvalues --   -0.52345  -0.52048  -0.51938  -0.51880  -0.51736
 Alpha  occ. eigenvalues --   -0.51663  -0.51175  -0.51070  -0.50688  -0.50564
 Alpha  occ. eigenvalues --   -0.50297  -0.50149  -0.49775  -0.49721  -0.49561
 Alpha  occ. eigenvalues --   -0.49492  -0.49376  -0.49286  -0.49083  -0.48965
 Alpha  occ. eigenvalues --   -0.48884  -0.48736  -0.48576  -0.48419  -0.48338
 Alpha  occ. eigenvalues --   -0.48160  -0.47727  -0.47538  -0.47294  -0.46995
 Alpha  occ. eigenvalues --   -0.46880  -0.46718  -0.46580  -0.46534  -0.46368
 Alpha  occ. eigenvalues --   -0.46134  -0.46101  -0.45955  -0.45789  -0.45698
 Alpha  occ. eigenvalues --   -0.45114  -0.45014  -0.44848  -0.44653  -0.44503
 Alpha  occ. eigenvalues --   -0.44378  -0.44332  -0.44267  -0.44107  -0.43948
 Alpha  occ. eigenvalues --   -0.43906  -0.43876  -0.43733  -0.43442  -0.43352
 Alpha  occ. eigenvalues --   -0.43251  -0.43190  -0.42861  -0.42758  -0.42729
 Alpha  occ. eigenvalues --   -0.42420  -0.42400  -0.41894  -0.41847  -0.41616
 Alpha  occ. eigenvalues --   -0.41519  -0.41430  -0.41313  -0.41234  -0.41057
 Alpha  occ. eigenvalues --   -0.40943  -0.40831  -0.40585  -0.40547  -0.40391
 Alpha  occ. eigenvalues --   -0.40330  -0.40136  -0.39617  -0.39321  -0.38620
 Alpha  occ. eigenvalues --   -0.38240  -0.38185  -0.37967  -0.37563  -0.37530
 Alpha  occ. eigenvalues --   -0.37207  -0.37133  -0.37071  -0.36736  -0.36673
 Alpha  occ. eigenvalues --   -0.36108  -0.36067  -0.34489  -0.34345  -0.34107
 Alpha  occ. eigenvalues --   -0.33772  -0.33396  -0.33016  -0.31479  -0.31207
 Alpha  occ. eigenvalues --   -0.30868  -0.30691  -0.30303  -0.29829  -0.29648
 Alpha  occ. eigenvalues --   -0.29488  -0.29194  -0.29065  -0.24274  -0.23882
 Alpha  occ. eigenvalues --   -0.21356  -0.20950
 Alpha virt. eigenvalues --   -0.09018  -0.08647  -0.02015  -0.01627  -0.00299
 Alpha virt. eigenvalues --   -0.00085   0.01842   0.02260   0.03324   0.04199
 Alpha virt. eigenvalues --    0.04423   0.04566   0.04888   0.05251   0.05877

 Mulliken charges:
               1
     1  Mg   0.664632
     2  C   -0.003778
     3  C   -0.093408
     4  C   -0.041297
     5  C   -0.044803
     6  N   -0.248286
     7  C   -0.059659
     8  C   -0.012945
     9  C   -0.086895
    10  C    0.047430
    11  C    0.104794
    12  C    0.051952
    13  C   -0.071610
    14  H    0.033772
    15  N   -0.424134
    16  C    0.170297
    17  C   -0.177755
    18  C   -0.003280
    19  C    0.152275
    20  C    0.110168
    21  C    0.013639
    22  O   -0.246726
    23  C    0.062077
    24  N   -0.325221
    25  C    0.041440
    26  C   -0.024400
    27  C   -0.011168
    28  C    0.029312
    29  C    0.077947
    30  C    0.062789
    31  C    0.061344
    32  N   -0.304901
    33  C    0.064357
    34  C   -0.169906
    35  C    0.010779
    36  C    0.073498
    37  C    0.128318
    38  C    0.042517
    39  O   -0.188771
    40  C   -0.005896
    41  C    0.215795
    42  O   -0.262988
    43  O   -0.302771
    44  C    0.157438
    45  H   -0.017829
    46  H   -0.014876
    47  H   -0.042865
    48  H    0.001003
    49  H   -0.003866
    50  H    0.025912
    51  H    0.017563
    52  H    0.017259
    53  H    0.011401
    54  H    0.040533
    55  H    0.019338
    56  H    0.019341
    57  H    0.006144
    58  H    0.027915
    59  H    0.040902
    60  H    0.037298
    61  H    0.037085
    62  H    0.032163
    63  H    0.020364
    64  H    0.005764
    65  H    0.023093
    66  H    0.009902
    67  H    0.004783
    68  H   -0.005285
    69  H   -0.005730
    70  H   -0.004975
    71  H    0.008110
    72  H   -0.035102
    73  H    0.045755
    74  H    0.011543
    75  H    0.046302
    76  H    0.036500
    77  H    0.044859
    78  H    0.047332
    79  H    0.051193
    80  Mg   0.837864
    81  C   -0.016540
    82  C   -0.087688
    83  C   -0.048133
    84  C   -0.065349
    85  N   -0.254190
    86  C   -0.050403
    87  C   -0.015191
    88  C   -0.089837
    89  C    0.043969
    90  C    0.114161
    91  C    0.062586
    92  C   -0.077264
    93  H    0.033124
    94  N   -0.423480
    95  C    0.159942
    96  C   -0.180538
    97  C    0.014753
    98  C    0.153493
    99  C    0.094359
   100  C    0.049137
   101  O   -0.253313
   102  C   -0.014837
   103  N   -0.350464
   104  C    0.038266
   105  C   -0.019978
   106  C   -0.034691
   107  C    0.089075
   108  C    0.073577
   109  C    0.034856
   110  C   -0.007545
   111  N   -0.323897
   112  C    0.078066
   113  C   -0.163786
   114  C    0.002237
   115  C    0.095623
   116  C    0.131598
   117  C    0.041961
   118  O   -0.188688
   119  C    0.001012
   120  C    0.211222
   121  O   -0.251499
   122  O   -0.305455
   123  C    0.152238
   124  H   -0.010828
   125  H   -0.017290
   126  H   -0.041068
   127  H   -0.000992
   128  H   -0.003193
   129  H    0.021448
   130  H    0.016058
   131  H    0.017599
   132  H    0.013727
   133  H    0.036972
   134  H    0.021004
   135  H    0.019307
   136  H    0.020839
   137  H    0.042209
   138  H    0.048991
   139  H    0.098346
   140  H    0.120372
   141  H    0.064265
   142  H    0.013784
   143  H    0.012223
   144  H    0.023706
   145  H    0.011971
   146  H    0.005906
   147  H    0.005730
   148  H    0.003495
   149  H    0.010993
   150  H    0.017681
   151  H    0.030249
   152  H    0.045425
   153  H    0.008123
   154  H    0.046626
   155  H    0.035058
   156  H    0.043675
   157  H    0.049318
   158  H    0.053115
 Sum of Mulliken charges =  -0.00000

 Dipole moment (field-independent basis, Debye):
    X=              4.3763    Y=              3.0155    Z=              2.2496  Tot=              5.7712
 Quadrupole moment (field-independent basis, Debye-Ang):
   XX=           -552.5592   YY=           -469.6373   ZZ=           -511.7507
   XY=             14.3039   XZ=             38.1839   YZ=             35.7577

 Normal termination of Gaussian 16 at Thu Sep  9 13:01:08 2021.
