 Gaussian 16, Revision A.03,
 Gaussian 16:  ES64L-G16RevA.03 25-Dec-2016

 -----------------------------------
 #p cam-b3lyp/Def2SVP td=(nstates=5)
 -----------------------------------

 --------------------------------
 TDDFT excited states in gaussian
 --------------------------------
 Symbolic Z-matrix:
 Charge =  0 Multiplicity = 1

                         Standard orientation:
 ---------------------------------------------------------------------
 Center     Atomic      Atomic             Coordinates (Angstroms)
 Number     Number       Type             X           Y           Z
 ---------------------------------------------------------------------
      1         12           0        5.318461   -0.581982    0.885111
      2          6           0        5.849342    2.274395   -1.205699
      3          6           0        5.719709    1.491197    3.565408
      4          6           0        5.305775   -3.154727    2.739145
      5          6           0        6.083602   -2.562741   -1.878368
      6          7           0        5.726516    1.588817    1.032649
      7          6           0        5.848737    2.581355    0.156806
      8          6           0        5.900425    3.989331    0.821868
      9          6           0        6.420483    3.565590    2.268237
     10          6           0        5.894678    2.141552    2.307848
     11          6           0        7.941056    3.531104    2.383004
     12          6           0        4.489478    4.664275    0.895414
     13          6           0        4.496820    6.159226    1.227709
     14          1           0        3.501928    7.019774    0.605620
     15          7           0        5.006172   -0.759720    2.827721
     16          6           0        5.206980    0.192025    3.770665
     17          6           0        4.830406   -0.425993    5.060210
     18          6           0        4.575340   -1.872551    4.814235
     19          6           0        4.982910   -1.993805    3.437804
     20          6           0        4.697162    0.347950    6.335752
     21          6           0        4.057851   -2.973483    5.685032
     22          8           0        4.132301   -4.203173    5.343134
     23          6           0        3.534874   -2.576431    7.004837
     24          7           0        5.859057   -2.571401    0.557081
     25          6           0        5.700572   -3.495776    1.510704
     26          6           0        5.884092   -4.880698    0.964582
     27          6           0        5.962672   -4.723239   -0.622486
     28          6           0        5.888019   -3.178904   -0.710396
     29          6           0        7.121894   -5.638521    1.464143
     30          6           0        4.964328   -5.558935   -1.462331
     31          6           0        3.554889   -5.064348   -1.225770
     32          7           0        5.698088   -0.246894   -1.225492
     33          6           0        6.018449   -1.214631   -2.188574
     34          6           0        6.291720   -0.497320   -3.447485
     35          6           0        6.126448    0.847766   -3.123025
     36          6           0        5.798065    0.965014   -1.742189
     37          6           0        6.698333   -1.092317   -4.674302
     38          6           0        6.175012    2.214766   -3.615782
     39          8           0        6.309767    2.732239   -4.725537
     40          6           0        6.117151    3.200171   -2.366200
     41          6           0        5.094134    4.260437   -2.670473
     42          8           0        3.883319    3.973088   -2.763869
     43          8           0        5.664442    5.470761   -2.568465
     44          6           0        4.696049    6.569065   -2.829423
     45          1           0        6.059462    1.995430    4.472192
     46          1           0        5.205372   -4.076455    3.316011
     47          1           0        6.245848   -3.119802   -2.802928
     48          1           0        6.603868    4.683662    0.361980
     49          1           0        5.960836    4.161317    3.056626
     50          1           0        8.417190    3.678509    1.413731
     51          1           0        8.180761    2.543962    2.778711
     52          1           0        8.289504    4.245717    3.129119
     53          1           0        3.953821    4.283558    1.765004
     54          1           0        3.936152    4.503472   -0.030490
     55          1           0        5.493819    6.586943    1.118344
     56          1           0        4.267188    6.274775    2.287009
     57          1           0        5.108221    1.352118    6.239719
     58          1           0        5.337271   -0.138360    7.071599
     59          1           0        3.669328    0.367596    6.698386
     60          1           0        4.321339   -2.072144    7.566724
     61          1           0        3.127081   -3.482459    7.451680
     62          1           0        2.740427   -1.843013    6.863765
     63          1           0        5.037241   -5.516759    1.218936
     64          1           0        6.940485   -5.005376   -1.013582
     65          1           0        6.889813   -6.594170    1.934864
     66          1           0        7.662649   -4.986223    2.149258
     67          1           0        7.878756   -5.829334    0.703770
     68          1           0        4.993137   -6.604078   -1.156074
     69          1           0        5.165689   -5.521400   -2.532984
     70          1           0        3.265041   -5.582805   -0.312521
     71          1           0        2.908103   -5.346769   -2.057105
     72          1           0        3.538632   -3.995312   -1.012736
     73          1           0        6.118429   -0.603735   -5.457224
     74          1           0        6.527664   -2.168624   -4.668102
     75          1           0        7.758017   -0.837597   -4.680810
     76          1           0        7.116863    3.617387   -2.249452
     77          1           0        5.111161    7.179108   -3.631772
     78          1           0        4.510303    7.052806   -1.870309
     79          1           0        3.741049    6.275864   -3.266855
     80         12           0       -5.102961   -0.702031   -0.909051
     81          6           0       -6.835370    1.607261    1.222843
     82          6           0       -4.489721    1.920974   -3.001513
     83          6           0       -3.966059   -2.780343   -3.019855
     84          6           0       -6.801170   -3.269474    0.724976
     85          7           0       -5.643601    1.439677   -0.794739
     86          6           0       -6.249794    2.214274    0.092318
     87          6           0       -6.157499    3.733801   -0.211113
     88          6           0       -5.922893    3.648420   -1.797482
     89          6           0       -5.278908    2.265697   -1.875254
     90          6           0       -7.215348    3.618974   -2.596251
     91          6           0       -4.943843    4.415314    0.513161
     92          6           0       -4.971185    5.945343    0.512475
     93          1           0       -4.458099    6.651179    1.683384
     94          7           0       -3.927459   -0.420946   -2.483145
     95          6           0       -3.783450    0.714091   -3.198841
     96          6           0       -2.820051    0.398099   -4.264757
     97          6           0       -2.532460   -1.061344   -4.219561
     98          6           0       -3.501182   -1.490407   -3.230837
     99          6           0       -2.209191    1.447914   -5.146890
    100          6           0       -1.556902   -1.929416   -4.955027
    101          8           0       -1.642393   -3.208079   -4.931371
    102          6           0       -0.555220   -1.237347   -5.779148
    103          7           0       -5.501491   -2.711241   -1.264864
    104          6           0       -4.829504   -3.392619   -2.209364
    105          6           0       -5.086080   -4.876573   -2.097910
    106          6           0       -5.882883   -5.072907   -0.725276
    107          6           0       -6.033656   -3.593979   -0.306429
    108          6           0       -5.883095   -5.501691   -3.242627
    109          6           0       -5.282969   -6.073947    0.299751
    110          6           0       -3.976657   -5.538445    0.840263
    111          7           0       -6.413587   -0.857725    0.801521
    112          6           0       -7.033388   -2.025516    1.297713
    113          6           0       -7.920827   -1.611057    2.403656
    114          6           0       -7.772075   -0.217051    2.459532
    115          6           0       -6.872019    0.209536    1.445924
    116          6           0       -8.758225   -2.473384    3.166081
    117          6           0       -8.179959    0.991733    3.138619
    118          8           0       -8.859750    1.242308    4.133018
    119          6           0       -7.688919    2.240359    2.286446
    120          6           0       -7.030853    3.213769    3.225565
    121          8           0       -5.976709    2.911784    3.812241
    122          8           0       -7.631235    4.412309    3.109731
    123          6           0       -7.006324    5.414373    4.013701
    124          1           0       -4.438803    2.623375   -3.833930
    125          1           0       -3.519112   -3.551763   -3.651231
    126          1           0       -7.289766   -4.021320    1.348407
    127          1           0       -7.059387    4.295121    0.001690
    128          1           0       -5.227671    4.412399   -2.135627
    129          1           0       -8.082283    3.540916   -1.957131
    130          1           0       -7.142340    2.753802   -3.242149
    131          1           0       -7.268241    4.486857   -3.259818
    132          1           0       -4.033299    4.243407   -0.075149
    133          1           0       -4.850068    4.056027    1.519513
    134          1           0       -5.953567    6.339916    0.225818
    135          1           0       -4.299255    6.304071   -0.271000
    136          1           0       -2.736102    2.405804   -5.056313
    137          1           0       -2.385715    1.137679   -6.182480
    138          1           0       -1.134100    1.557235   -4.989087
    139          1           0       -1.059943   -0.623782   -6.521599
    140          1           0        0.106420   -2.020644   -6.154068
    141          1           0        0.012471   -0.553131   -5.138686
    142          1           0       -4.154852   -5.427184   -2.045521
    143          1           0       -6.899596   -5.456487   -0.895609
    144          1           0       -5.351369   -6.334075   -3.741103
    145          1           0       -6.124622   -4.723992   -3.954932
    146          1           0       -6.867312   -5.877787   -2.968633
    147          1           0       -5.050675   -7.023161   -0.189325
    148          1           0       -5.947226   -6.293059    1.129061
    149          1           0       -3.253320   -5.832857    0.073968
    150          1           0       -3.743088   -5.995322    1.799827
    151          1           0       -3.986861   -4.443030    0.880416
    152          1           0       -8.653188   -2.174627    4.200593
    153          1           0       -8.488275   -3.517710    3.023680
    154          1           0       -9.731640   -2.237581    2.727765
    155          1           0       -8.565375    2.669872    1.799711
    156          1           0       -7.806570    5.825480    4.636832
    157          1           0       -6.470084    6.120292    3.351976
    158          1           0       -6.318002    5.049405    4.767005
 ---------------------------------------------------------------------

 SCF Done:  E(RCAM-B3LYP) =  -4069.81263329     A.U. after   19 cycles

 Excitation energies and oscillator strengths:

 Excited State   1:      Singlet-A      1.6562 eV  748.61 nm  f=0.0533  <S**2>=0.000
     309 -> 315        0.11546
     310 -> 316       -0.12399
     311 -> 313       -0.46716
     312 -> 314        0.50398
 This state for optimization and/or second-order correction.
 Total Energy, E(TD-HF/TD-DFT) =  -4069.75176918
 Copying the excited state density for this state as the 1-particle RhoCI density.

 Excited State   2:      Singlet-A      1.6976 eV  730.35 nm  f=0.6778  <S**2>=0.000
     309 -> 315       -0.13221
     310 -> 316       -0.12185
     311 -> 313        0.50208
     312 -> 314        0.46556

 Excited State   3:      Singlet-A      2.1866 eV  567.03 nm  f=0.0142  <S**2>=0.000
     309 -> 313        0.32485
     310 -> 314        0.55523
     311 -> 315        0.13715
     312 -> 316        0.23541

 Excited State   4:      Singlet-A      2.1955 eV  564.72 nm  f=0.1681  <S**2>=0.000
     309 -> 313        0.55245
     310 -> 314       -0.32231
     311 -> 315        0.24220
     312 -> 316       -0.14146

 Excited State   5:      Singlet-A      2.5354 eV  489.02 nm  f=0.0000  <S**2>=0.000
     312 -> 313        0.70702

 The electronic state is 1-A.
 Alpha  occ. eigenvalues --  -46.87771 -46.87473 -19.26438 -19.26282 -19.19183
 Alpha  occ. eigenvalues --  -19.19081 -19.18745 -19.18455 -19.18222 -19.17897
 Alpha  occ. eigenvalues --  -14.42431 -14.42312 -14.41415 -14.41177 -14.39372
 Alpha  occ. eigenvalues --  -14.39152 -14.38576 -14.38417 -10.39228 -10.39005
 Alpha  occ. eigenvalues --  -10.35374 -10.35120 -10.34445 -10.34079 -10.31862
 Alpha  occ. eigenvalues --  -10.31722 -10.31405 -10.31138 -10.30894 -10.30823
 Alpha  occ. eigenvalues --  -10.30561 -10.30486 -10.30217 -10.30174 -10.30146
 Alpha  occ. eigenvalues --  -10.29938 -10.29894 -10.29737 -10.29609 -10.29220
 Alpha  occ. eigenvalues --  -10.29216 -10.29191 -10.28766 -10.28598 -10.28564
 Alpha  occ. eigenvalues --  -10.28555 -10.28354 -10.28207 -10.28120 -10.27975
 Alpha  occ. eigenvalues --  -10.27801 -10.27782 -10.27704 -10.27552 -10.27471
 Alpha  occ. eigenvalues --  -10.27408 -10.27401 -10.27399 -10.27376 -10.27362
 Alpha  occ. eigenvalues --  -10.27304 -10.27238 -10.27232 -10.27221 -10.27049
 Alpha  occ. eigenvalues --  -10.26915 -10.26745 -10.26553 -10.26290 -10.26236
 Alpha  occ. eigenvalues --  -10.26031 -10.26010 -10.25994 -10.25977 -10.25875
 Alpha  occ. eigenvalues --  -10.25862 -10.25749 -10.25707 -10.25372 -10.25272
 Alpha  occ. eigenvalues --  -10.24835 -10.24758 -10.24684 -10.24579 -10.24512
 Alpha  occ. eigenvalues --  -10.24467  -3.16514  -3.16223  -1.91395  -1.91105
 Alpha  occ. eigenvalues --   -1.90982  -1.90824  -1.90694  -1.90531  -1.16786
 Alpha  occ. eigenvalues --   -1.16572  -1.08693  -1.08516  -1.07143  -1.06864
 Alpha  occ. eigenvalues --   -1.06800  -1.06709  -1.04566  -1.04309  -1.03730
 Alpha  occ. eigenvalues --   -1.03476  -1.03210  -1.02852  -1.02388  -1.01925
 Alpha  occ. eigenvalues --   -0.91982  -0.91816  -0.89457  -0.89324  -0.89194
 Alpha  occ. eigenvalues --   -0.88991  -0.88222  -0.88059  -0.87871  -0.87654
 Alpha  occ. eigenvalues --   -0.87620  -0.87500  -0.87220  -0.86831  -0.84983
 Alpha  occ. eigenvalues --   -0.84832  -0.83868  -0.83724  -0.82887  -0.82676
 Alpha  occ. eigenvalues --   -0.82639  -0.82432  -0.81638  -0.81465  -0.80600
 Alpha  occ. eigenvalues --   -0.80271  -0.78761  -0.78393  -0.77189  -0.76958
 Alpha  occ. eigenvalues --   -0.76945  -0.76757  -0.75941  -0.75674  -0.74855
 Alpha  occ. eigenvalues --   -0.74645  -0.72753  -0.72514  -0.71659  -0.71414
 Alpha  occ. eigenvalues --   -0.69801  -0.69600  -0.68867  -0.68651  -0.67629
 Alpha  occ. eigenvalues --   -0.67420  -0.67214  -0.67003  -0.65297  -0.65112
 Alpha  occ. eigenvalues --   -0.64861  -0.64612  -0.64605  -0.64496  -0.64212
 Alpha  occ. eigenvalues --   -0.64041  -0.62359  -0.62155  -0.60390  -0.60098
 Alpha  occ. eigenvalues --   -0.59804  -0.59624  -0.58975  -0.58822  -0.58497
 Alpha  occ. eigenvalues --   -0.58254  -0.57648  -0.57420  -0.57280  -0.57047
 Alpha  occ. eigenvalues --   -0.56308  -0.56053  -0.56013  -0.55752  -0.55496
 Alpha  occ. eigenvalues --   -0.55326  -0.55243  -0.55101  -0.54530  -0.54356
 Alpha  occ. eigenvalues --   -0.53905  -0.53751  -0.53271  -0.53213  -0.53044
 Alpha  occ. eigenvalues --   -0.52945  -0.52940  -0.52741  -0.52709  -0.52375
 Alpha  occ. eigenvalues --   -0.52323  -0.52244  -0.51930  -0.51730  -0.51617
 Alpha  occ. eigenvalues --   -0.51460  -0.51194  -0.51042  -0.50485  -0.50158
 Alpha  occ. eigenvalues --   -0.49957  -0.49869  -0.49752  -0.49676  -0.49502
 Alpha  occ. eigenvalues --   -0.49269  -0.49218  -0.49108  -0.48998  -0.48947
 Alpha  occ. eigenvalues --   -0.48626  -0.48446  -0.48402  -0.48397  -0.48228
 Alpha  occ. eigenvalues --   -0.48089  -0.47671  -0.47395  -0.47270  -0.46900
 Alpha  occ. eigenvalues --   -0.46769  -0.46564  -0.46540  -0.46380  -0.46343
 Alpha  occ. eigenvalues --   -0.46155  -0.46077  -0.45929  -0.45864  -0.45688
 Alpha  occ. eigenvalues --   -0.45145  -0.45048  -0.44606  -0.44462  -0.44361
 Alpha  occ. eigenvalues --   -0.44301  -0.44131  -0.44059  -0.44003  -0.43961
 Alpha  occ. eigenvalues --   -0.43898  -0.43691  -0.43539  -0.43430  -0.43365
 Alpha  occ. eigenvalues --   -0.43222  -0.43019  -0.42813  -0.42802  -0.42738
 Alpha  occ. eigenvalues --   -0.42576  -0.42369  -0.41961  -0.41808  -0.41700
 Alpha  occ. eigenvalues --   -0.41528  -0.41505  -0.41297  -0.41129  -0.40848
 Alpha  occ. eigenvalues --   -0.40822  -0.40766  -0.40552  -0.40509  -0.40470
 Alpha  occ. eigenvalues --   -0.40339  -0.40246  -0.40047  -0.39320  -0.39268
 Alpha  occ. eigenvalues --   -0.38412  -0.38196  -0.37767  -0.37509  -0.37272
 Alpha  occ. eigenvalues --   -0.37268  -0.37099  -0.37023  -0.36806  -0.36675
 Alpha  occ. eigenvalues --   -0.36198  -0.36070  -0.34272  -0.34076  -0.33904
 Alpha  occ. eigenvalues --   -0.33763  -0.33174  -0.32992  -0.31278  -0.31025
 Alpha  occ. eigenvalues --   -0.31017  -0.30788  -0.30086  -0.29808  -0.29425
 Alpha  occ. eigenvalues --   -0.29314  -0.29110  -0.29015  -0.24062  -0.23854
 Alpha  occ. eigenvalues --   -0.21104  -0.20924
 Alpha virt. eigenvalues --   -0.08752  -0.08590  -0.01716  -0.01494  -0.00025
 Alpha virt. eigenvalues --    0.00202   0.02191   0.02379   0.03138   0.03439
 Alpha virt. eigenvalues --    0.04723   0.04892   0.04968   0.05261   0.06138

 Mulliken charges:
               1
     1  Mg   0.839068
     2  C   -0.003620
     3  C   -0.093868
     4  C   -0.045531
     5  C   -0.063426
     6  N   -0.256882
     7  C   -0.052674
     8  C   -0.014086
     9  C   -0.087116
    10  C    0.046524
    11  C    0.104783
    12  C    0.053394
    13  C   -0.071485
    14  H    0.034600
    15  N   -0.433278
    16  C    0.168905
    17  C   -0.176545
    18  C   -0.003451
    19  C    0.148970
    20  C    0.110019
    21  C    0.012837
    22  O   -0.249383
    23  C    0.062095
    24  N   -0.341253
    25  C    0.041593
    26  C   -0.028184
    27  C   -0.023971
    28  C    0.074939
    29  C    0.076194
    30  C    0.034975
    31  C   -0.005099
    32  N   -0.310059
    33  C    0.079858
    34  C   -0.170716
    35  C    0.007418
    36  C    0.082215
    37  C    0.127630
    38  C    0.044660
    39  O   -0.189989
    40  C   -0.004882
    41  C    0.212908
    42  O   -0.259318
    43  O   -0.304183
    44  C    0.158264
    45  H   -0.017409
    46  H   -0.016470
    47  H   -0.041215
    48  H    0.000570
    49  H   -0.003765
    50  H    0.025315
    51  H    0.016662
    52  H    0.016753
    53  H    0.012122
    54  H    0.042961
    55  H    0.017907
    56  H    0.018664
    57  H    0.005899
    58  H    0.026931
    59  H    0.041168
    60  H    0.037170
    61  H    0.036058
    62  H    0.032959
    63  H    0.017040
    64  H    0.009186
    65  H    0.023312
    66  H    0.012309
    67  H    0.004737
    68  H    0.006204
    69  H    0.004944
    70  H    0.008267
    71  H    0.022229
    72  H    0.028257
    73  H    0.045919
    74  H    0.009787
    75  H    0.045977
    76  H    0.035252
    77  H    0.042851
    78  H    0.046864
    79  H    0.051734
    80  Mg   0.837600
    81  C   -0.017030
    82  C   -0.086384
    83  C   -0.045721
    84  C   -0.064998
    85  N   -0.254535
    86  C   -0.050382
    87  C   -0.015116
    88  C   -0.090641
    89  C    0.045725
    90  C    0.114390
    91  C    0.062195
    92  C   -0.077379
    93  H    0.033068
    94  N   -0.423750
    95  C    0.163418
    96  C   -0.172885
    97  C   -0.007272
    98  C    0.152173
    99  C    0.098336
   100  C    0.015669
   101  O   -0.254840
   102  C    0.060301
   103  N   -0.350042
   104  C    0.037817
   105  C   -0.019780
   106  C   -0.034542
   107  C    0.088513
   108  C    0.073849
   109  C    0.034836
   110  C   -0.007495
   111  N   -0.323826
   112  C    0.077763
   113  C   -0.163802
   114  C    0.001822
   115  C    0.095679
   116  C    0.131654
   117  C    0.041747
   118  O   -0.189161
   119  C    0.001081
   120  C    0.211180
   121  O   -0.251673
   122  O   -0.305477
   123  C    0.152369
   124  H   -0.019163
   125  H   -0.015959
   126  H   -0.041070
   127  H   -0.001219
   128  H   -0.003758
   129  H    0.022114
   130  H    0.014514
   131  H    0.016162
   132  H    0.015290
   133  H    0.036968
   134  H    0.020519
   135  H    0.020108
   136  H    0.008661
   137  H    0.025578
   138  H    0.047594
   139  H    0.038437
   140  H    0.034964
   141  H    0.039911
   142  H    0.014040
   143  H    0.011949
   144  H    0.024659
   145  H    0.011692
   146  H    0.005392
   147  H    0.005700
   148  H    0.003335
   149  H    0.010660
   150  H    0.018061
   151  H    0.030300
   152  H    0.045215
   153  H    0.008161
   154  H    0.046412
   155  H    0.034667
   156  H    0.043484
   157  H    0.049422
   158  H    0.052749
 Sum of Mulliken charges =  -0.00000

 Dipole moment (field-independent basis, Debye):
    X=              2.1811    Y=              3.0697    Z=              0.3243  Tot=              3.7796
 Quadrupole moment (field-independent basis, Debye-Ang):
   XX=           -515.8038   YY=           -462.3504   ZZ=           -525.6434
   XY=              4.8621   XZ=             53.0599   YZ=             13.3664

 Normal termination of Gaussian 16 at Fri Sep 10 11:55:48 2021.
