 Gaussian 16, Revision A.03,
 Gaussian 16:  ES64L-G16RevA.03 25-Dec-2016

 -----------------------------------
 #p cam-b3lyp/Def2SVP td=(nstates=5)
 -----------------------------------

 --------------------------------
 TDDFT excited states in gaussian
 --------------------------------
 Symbolic Z-matrix:
 Charge =  0 Multiplicity = 1

                         Standard orientation:
 ---------------------------------------------------------------------
 Center     Atomic      Atomic             Coordinates (Angstroms)
 Number     Number       Type             X           Y           Z
 ---------------------------------------------------------------------
      1         12           0        6.487042   -0.856990    0.361106
      2          6           0        6.953326    1.778356   -2.015813
      3          6           0        7.681220    1.278383    2.739591
      4          6           0        6.513295   -3.298582    2.384608
      5          6           0        6.420955   -3.071780   -2.328875
      6          7           0        7.193469    1.238205    0.252639
      7          6           0        7.265147    2.154815   -0.707497
      8          6           0        7.630463    3.574622   -0.180177
      9          6           0        8.370288    3.159163    1.169656
     10          6           0        7.683489    1.828831    1.423523
     11          6           0        9.865580    2.914424    0.994419
     12          6           0        6.362117    4.446804    0.106754
     13          6           0        6.628997    5.941068    0.309986
     14          1           0        5.649470    6.900100   -0.178002
     15          7           0        6.549625   -0.884056    2.335492
     16          6           0        7.056417    0.078470    3.142952
     17          6           0        6.868933   -0.409560    4.526193
     18          6           0        6.384998   -1.816052    4.450801
     19          6           0        6.489637   -2.067742    3.036205
     20          6           0        7.094889    0.442685    5.737131
     21          6           0        5.914417   -2.783703    5.490193
     22          8           0        5.759338   -4.027977    5.240579
     23          6           0        5.722009   -2.246012    6.849203
     24          7           0        6.689259   -2.917848    0.097279
     25          6           0        6.606742   -3.757753    1.134938
     26          6           0        6.496647   -5.181940    0.677217
     27          6           0        6.275635   -5.122546   -0.903093
     28          6           0        6.385152   -3.590296   -1.099270
     29          6           0        7.700840   -6.080643    0.990686
     30          6           0        5.029915   -5.851142   -1.466785
     31          6           0        3.772352   -5.148694   -1.006133
     32          7           0        6.476571   -0.693010   -1.803160
     33          6           0        6.469838   -1.746728   -2.728528
     34          6           0        6.575961   -1.144194   -4.070079
     35          6           0        6.654258    0.226145   -3.829483
     36          6           0        6.626890    0.462822   -2.425372
     37          6           0        6.648383   -1.855948   -5.299955
     38          6           0        6.779484    1.543873   -4.430955
     39          8           0        6.755107    1.976642   -5.584042
     40          6           0        7.100789    2.592975   -3.276843
     41          6           0        6.183379    3.770430   -3.464635
     42          8           0        4.951601    3.654069   -3.301696
     43          8           0        6.914123    4.890784   -3.571233
     44          6           0        6.063351    6.100366   -3.730143
     45          1           0        8.257874    1.776870    3.521206
     46          1           0        6.412115   -4.164335    3.042385
     47          1           0        6.321455   -3.695006   -3.219460
     48          1           0        8.311336    4.135918   -0.820320
     49          1           0        8.158694    3.855712    1.980686
     50          1           0       10.153035    2.940295   -0.056590
     51          1           0       10.049994    1.925822    1.415311
     52          1           0       10.445711    3.610989    1.600242
     53          1           0        5.966743    4.193490    1.090406
     54          1           0        5.618607    4.317167   -0.680464
     55          1           0        7.630674    6.215784   -0.021802
     56          1           0        6.632953    6.144760    1.380824
     57          1           0        7.604682    1.371383    5.483802
     58          1           0        7.800996   -0.089796    6.373987
     59          1           0        6.171786    0.628078    6.286534
     60          1           0        6.663477   -1.829640    7.208120
     61          1           0        5.298294   -3.059387    7.437197
     62          1           0        5.017006   -1.415436    6.803767
     63          1           0        5.642886   -5.676209    1.138969
     64          1           0        7.110531   -5.561760   -1.449641
     65          1           0        7.446142   -6.966834    1.572493
     66          1           0        8.447474   -5.476353    1.505140
     67          1           0        8.259036   -6.417879    0.117698
     68          1           0        4.984105   -6.871790   -1.088467
     69          1           0        5.016016   -5.900112   -2.555665
     70          1           0        3.606643   -5.570850   -0.015599
     71          1           0        2.941283   -5.380138   -1.673193
     72          1           0        3.937388   -4.078400   -0.880752
     73          1           0        5.991618   -1.332327   -5.994541
     74          1           0        6.344751   -2.895031   -5.174589
     75          1           0        7.709168   -1.755638   -5.529148
     76          1           0        8.149004    2.869039   -3.387097
     77          1           0        6.384754    6.601120   -4.643477
     78          1           0        6.137467    6.656329   -2.795362
     79          1           0        5.010398    5.923315   -3.952140
     80         12           0       -6.650953    0.728425    0.658903
     81          6           0       -6.826344   -2.005208   -1.659626
     82          6           0       -5.593830    2.668999   -1.939412
     83          6           0       -6.055296    3.035473    2.754166
     84          6           0       -6.606363   -1.631121    3.223328
     85          7           0       -6.295777    0.276047   -1.476862
     86          6           0       -6.455366   -0.782467   -2.256877
     87          6           0       -6.281264   -0.496573   -3.772629
     88          6           0       -5.355793    0.811470   -3.665878
     89          6           0       -5.795366    1.310343   -2.290891
     90          6           0       -3.870685    0.494756   -3.606717
     91          6           0       -7.644652   -0.179287   -4.481516
     92          6           0       -7.593213   -0.194803   -6.010854
     93          1           0       -8.758851   -0.684540   -6.741540
     94          7           0       -6.406077    2.678903    0.386440
     95          6           0       -5.992155    3.297642   -0.739214
     96          6           0       -5.957570    4.733229   -0.419736
     97          6           0       -6.226310    4.896687    1.034830
     98          6           0       -6.218899    3.511777    1.461523
     99          6           0       -5.767539    5.794861   -1.463892
    100          6           0       -6.440215    6.100924    1.900999
    101          8           0       -6.420912    6.022287    3.180172
    102          6           0       -6.579877    7.390201    1.208376
    103          7           0       -6.158116    0.706088    2.678544
    104          6           0       -6.004441    1.851769    3.365369
    105          6           0       -5.926455    1.591031    4.850733
    106          6           0       -6.303851    0.048101    5.036484
    107          6           0       -6.454332   -0.355931    3.553409
    108          6           0       -4.572195    1.865674    5.504142
    109          6           0       -7.466184   -0.279443    6.013406
    110          6           0       -8.772439    0.234395    5.452109
    111          7           0       -6.890013   -1.413854    0.805701
    112          6           0       -6.809198   -2.203090    1.973896
    113          6           0       -6.924305   -3.614869    1.554330
    114          6           0       -7.041933   -3.549748    0.157756
    115          6           0       -6.982609   -2.194344   -0.265152
    116          6           0       -6.864142   -4.746310    2.415923
    117          6           0       -7.192124   -4.320074   -1.055810
    118          8           0       -7.383453   -5.508019   -1.312588
    119          6           0       -6.932213   -3.362570   -2.297583
    120          6           0       -8.036869   -3.584104   -3.294162
    121          8           0       -9.209989   -3.279574   -3.015477
    122          8           0       -7.498689   -3.913311   -4.482586
    123          6           0       -8.554525   -4.132325   -5.506830
    124          1           0       -5.040825    3.306881   -2.629472
    125          1           0       -5.957383    3.799165    3.529188
    126          1           0       -6.699785   -2.420763    3.971937
    127          1           0       -5.765515   -1.272876   -4.325016
    128          1           0       -5.608585    1.537924   -4.433807
    129          1           0       -3.687946   -0.566561   -3.526916
    130          1           0       -3.494564    1.010198   -2.732708
    131          1           0       -3.356051    0.939184   -4.463438
    132          1           0       -7.899111    0.875005   -4.312776
    133          1           0       -8.415403   -0.842116   -4.139130
    134          1           0       -6.677435   -0.666274   -6.387707
    135          1           0       -7.529576    0.836480   -6.366405
    136          1           0       -5.430035    5.366890   -2.415909
    137          1           0       -4.930467    6.420322   -1.135327
    138          1           0       -6.650912    6.424466   -1.590074
    139          1           0       -5.689539    7.578706    0.613197
    140          1           0       -6.814554    8.117069    1.988418
    141          1           0       -7.418692    7.321370    0.506758
    142          1           0       -6.646509    2.196066    5.387905
    143          1           0       -5.459587   -0.532598    5.436283
    144          1           0       -4.628634    2.591871    6.336924
    145          1           0       -3.889452    2.214699    4.740865
    146          1           0       -4.058408    0.986463    5.889140
    147          1           0       -7.315237    0.232696    6.966867
    148          1           0       -7.564193   -1.338264    6.228561
    149          1           0       -8.771149    1.287574    5.748592
    150          1           0       -9.613811   -0.298142    5.890888
    151          1           0       -8.770479    0.200404    4.356431
    152          1           0       -7.649072   -5.420452    2.099814
    153          1           0       -6.981987   -4.458760    3.458609
    154          1           0       -5.853244   -5.102326    2.200033
    155          1           0       -5.953912   -3.616180   -2.707700
    156          1           0       -8.398911   -5.135050   -5.916734
    157          1           0       -8.469974   -3.282168   -6.209559
    158          1           0       -9.579891   -4.201245   -5.162840
 ---------------------------------------------------------------------

 SCF Done:  E(RCAM-B3LYP) =  -4069.81203958     A.U. after   19 cycles

 Excitation energies and oscillator strengths:

 Excited State   1:      Singlet-A      1.6742 eV  740.57 nm  f=0.3417  <S**2>=0.000
     310 -> 316        0.16201
     311 -> 313        0.23787
     312 -> 314        0.64347
 This state for optimization and/or second-order correction.
 Total Energy, E(TD-HF/TD-DFT) =  -4069.75051509
 Copying the excited state density for this state as the 1-particle RhoCI density.

 Excited State   2:      Singlet-A      1.6798 eV  738.07 nm  f=0.3898  <S**2>=0.000
     309 -> 315        0.16469
     311 -> 313        0.64311
     312 -> 314       -0.23787

 Excited State   3:      Singlet-A      2.1856 eV  567.27 nm  f=0.1013  <S**2>=0.000
     310 -> 314        0.64258
     312 -> 316       -0.27230

 Excited State   4:      Singlet-A      2.1927 eV  565.43 nm  f=0.0975  <S**2>=0.000
     309 -> 313        0.64074
     311 -> 315       -0.27825

 Excited State   5:      Singlet-A      2.6460 eV  468.58 nm  f=0.0000  <S**2>=0.000
     312 -> 313        0.70710

 The electronic state is 1-A.
 Alpha  occ. eigenvalues --  -46.87860 -46.87548 -19.26411 -19.26246 -19.19149
 Alpha  occ. eigenvalues --  -19.19058 -19.18868 -19.18632 -19.18258 -19.17949
 Alpha  occ. eigenvalues --  -14.42514 -14.42373 -14.41508 -14.41253 -14.39465
 Alpha  occ. eigenvalues --  -14.39241 -14.38655 -14.38490 -10.39203 -10.38987
 Alpha  occ. eigenvalues --  -10.35500 -10.35310 -10.34479 -10.34125 -10.31820
 Alpha  occ. eigenvalues --  -10.31657 -10.31474 -10.31175 -10.30975 -10.30896
 Alpha  occ. eigenvalues --  -10.30639 -10.30572 -10.30296 -10.30257 -10.30245
 Alpha  occ. eigenvalues --  -10.30039 -10.29980 -10.29800 -10.29696 -10.29325
 Alpha  occ. eigenvalues --  -10.29314 -10.29296 -10.28823 -10.28624 -10.28563
 Alpha  occ. eigenvalues --  -10.28510 -10.28433 -10.28290 -10.28184 -10.27957
 Alpha  occ. eigenvalues --  -10.27891 -10.27861 -10.27789 -10.27648 -10.27535
 Alpha  occ. eigenvalues --  -10.27535 -10.27533 -10.27485 -10.27473 -10.27447
 Alpha  occ. eigenvalues --  -10.27369 -10.27362 -10.27341 -10.27311 -10.27250
 Alpha  occ. eigenvalues --  -10.26941 -10.26789 -10.26552 -10.26457 -10.26342
 Alpha  occ. eigenvalues --  -10.26295 -10.26202 -10.26081 -10.26077 -10.25920
 Alpha  occ. eigenvalues --  -10.25830 -10.25770 -10.25757 -10.25463 -10.25357
 Alpha  occ. eigenvalues --  -10.24905 -10.24847 -10.24764 -10.24703 -10.24675
 Alpha  occ. eigenvalues --  -10.24589  -3.16603  -3.16298  -1.91485  -1.91180
 Alpha  occ. eigenvalues --   -1.91071  -1.90914  -1.90768  -1.90605  -1.16760
 Alpha  occ. eigenvalues --   -1.16540  -1.08721  -1.08556  -1.07268  -1.06886
 Alpha  occ. eigenvalues --   -1.06843  -1.06770  -1.04647  -1.04371  -1.03821
 Alpha  occ. eigenvalues --   -1.03551  -1.03298  -1.02933  -1.02474  -1.02002
 Alpha  occ. eigenvalues --   -0.92046  -0.91874  -0.89569  -0.89403  -0.89258
 Alpha  occ. eigenvalues --   -0.88990  -0.88332  -0.88138  -0.87941  -0.87737
 Alpha  occ. eigenvalues --   -0.87688  -0.87563  -0.87332  -0.87016  -0.85051
 Alpha  occ. eigenvalues --   -0.84862  -0.83982  -0.83801  -0.83017  -0.82844
 Alpha  occ. eigenvalues --   -0.82718  -0.82527  -0.81677  -0.81489  -0.80671
 Alpha  occ. eigenvalues --   -0.80333  -0.78859  -0.78527  -0.77279  -0.77025
 Alpha  occ. eigenvalues --   -0.77008  -0.76780  -0.76000  -0.75701  -0.74950
 Alpha  occ. eigenvalues --   -0.74717  -0.72838  -0.72588  -0.71735  -0.71463
 Alpha  occ. eigenvalues --   -0.69943  -0.69682  -0.68941  -0.68696  -0.67708
 Alpha  occ. eigenvalues --   -0.67496  -0.67290  -0.67078  -0.65359  -0.65139
 Alpha  occ. eigenvalues --   -0.64927  -0.64690  -0.64660  -0.64538  -0.64320
 Alpha  occ. eigenvalues --   -0.64114  -0.62392  -0.62175  -0.60498  -0.60241
 Alpha  occ. eigenvalues --   -0.59873  -0.59653  -0.59053  -0.58885  -0.58572
 Alpha  occ. eigenvalues --   -0.58319  -0.57677  -0.57447  -0.57371  -0.57143
 Alpha  occ. eigenvalues --   -0.56379  -0.56093  -0.56079  -0.55776  -0.55585
 Alpha  occ. eigenvalues --   -0.55404  -0.55346  -0.55161  -0.54599  -0.54400
 Alpha  occ. eigenvalues --   -0.53966  -0.53759  -0.53362  -0.53292  -0.53126
 Alpha  occ. eigenvalues --   -0.53026  -0.52995  -0.52817  -0.52787  -0.52551
 Alpha  occ. eigenvalues --   -0.52475  -0.52329  -0.51991  -0.51786  -0.51689
 Alpha  occ. eigenvalues --   -0.51529  -0.51267  -0.51095  -0.50623  -0.50374
 Alpha  occ. eigenvalues --   -0.50074  -0.49976  -0.49862  -0.49774  -0.49582
 Alpha  occ. eigenvalues --   -0.49369  -0.49288  -0.49168  -0.49082  -0.48964
 Alpha  occ. eigenvalues --   -0.48673  -0.48519  -0.48509  -0.48434  -0.48295
 Alpha  occ. eigenvalues --   -0.48239  -0.47759  -0.47479  -0.47359  -0.47013
 Alpha  occ. eigenvalues --   -0.46857  -0.46628  -0.46599  -0.46424  -0.46414
 Alpha  occ. eigenvalues --   -0.46231  -0.46168  -0.45991  -0.45907  -0.45714
 Alpha  occ. eigenvalues --   -0.45249  -0.45126  -0.44658  -0.44565  -0.44408
 Alpha  occ. eigenvalues --   -0.44344  -0.44205  -0.44153  -0.44092  -0.43997
 Alpha  occ. eigenvalues --   -0.43984  -0.43831  -0.43583  -0.43448  -0.43447
 Alpha  occ. eigenvalues --   -0.43266  -0.43094  -0.42827  -0.42803  -0.42795
 Alpha  occ. eigenvalues --   -0.42706  -0.42467  -0.42066  -0.41865  -0.41773
 Alpha  occ. eigenvalues --   -0.41601  -0.41559  -0.41334  -0.41204  -0.40930
 Alpha  occ. eigenvalues --   -0.40879  -0.40862  -0.40620  -0.40618  -0.40578
 Alpha  occ. eigenvalues --   -0.40394  -0.40308  -0.40093  -0.39473  -0.39352
 Alpha  occ. eigenvalues --   -0.38516  -0.38260  -0.37824  -0.37524  -0.37372
 Alpha  occ. eigenvalues --   -0.37337  -0.37166  -0.37069  -0.36814  -0.36673
 Alpha  occ. eigenvalues --   -0.36268  -0.36117  -0.34352  -0.34142  -0.33889
 Alpha  occ. eigenvalues --   -0.33758  -0.33255  -0.33065  -0.31398  -0.31190
 Alpha  occ. eigenvalues --   -0.31100  -0.30861  -0.30119  -0.29853  -0.29513
 Alpha  occ. eigenvalues --   -0.29392  -0.29222  -0.29104  -0.24145  -0.23923
 Alpha  occ. eigenvalues --   -0.21191  -0.21004
 Alpha virt. eigenvalues --   -0.08839  -0.08682  -0.01810  -0.01577  -0.00121
 Alpha virt. eigenvalues --    0.00080   0.02126   0.02308   0.03051   0.03325
 Alpha virt. eigenvalues --    0.04651   0.04861   0.04981   0.05270   0.06097

 Mulliken charges:
               1
     1  Mg   0.838665
     2  C   -0.003195
     3  C   -0.094082
     4  C   -0.045774
     5  C   -0.063876
     6  N   -0.256825
     7  C   -0.052521
     8  C   -0.014030
     9  C   -0.087013
    10  C    0.046346
    11  C    0.104766
    12  C    0.053431
    13  C   -0.071725
    14  H    0.035590
    15  N   -0.433206
    16  C    0.168505
    17  C   -0.177039
    18  C   -0.003877
    19  C    0.148759
    20  C    0.110131
    21  C    0.012337
    22  O   -0.249346
    23  C    0.062444
    24  N   -0.341176
    25  C    0.041360
    26  C   -0.028281
    27  C   -0.024005
    28  C    0.074834
    29  C    0.076104
    30  C    0.035078
    31  C   -0.004588
    32  N   -0.310361
    33  C    0.080212
    34  C   -0.169976
    35  C    0.008143
    36  C    0.082768
    37  C    0.127410
    38  C    0.045730
    39  O   -0.188986
    40  C   -0.005196
    41  C    0.212859
    42  O   -0.257875
    43  O   -0.304524
    44  C    0.157958
    45  H   -0.017443
    46  H   -0.016565
    47  H   -0.041393
    48  H    0.000874
    49  H   -0.003909
    50  H    0.025467
    51  H    0.016569
    52  H    0.016809
    53  H    0.011409
    54  H    0.043617
    55  H    0.017980
    56  H    0.018297
    57  H    0.005989
    58  H    0.027011
    59  H    0.039712
    60  H    0.037471
    61  H    0.035780
    62  H    0.031440
    63  H    0.016845
    64  H    0.009559
    65  H    0.023511
    66  H    0.012493
    67  H    0.004891
    68  H    0.006857
    69  H    0.004714
    70  H    0.009127
    71  H    0.018530
    72  H    0.028450
    73  H    0.046984
    74  H    0.009264
    75  H    0.046126
    76  H    0.035275
    77  H    0.042896
    78  H    0.046637
    79  H    0.052775
    80  Mg   0.837929
    81  C   -0.016819
    82  C   -0.087337
    83  C   -0.045696
    84  C   -0.064974
    85  N   -0.254655
    86  C   -0.049532
    87  C   -0.015183
    88  C   -0.090474
    89  C    0.045642
    90  C    0.114043
    91  C    0.062473
    92  C   -0.077840
    93  H    0.034346
    94  N   -0.423567
    95  C    0.162825
    96  C   -0.174117
    97  C   -0.008114
    98  C    0.152382
    99  C    0.099198
   100  C    0.015450
   101  O   -0.253725
   102  C    0.061245
   103  N   -0.350022
   104  C    0.037613
   105  C   -0.019774
   106  C   -0.034781
   107  C    0.088875
   108  C    0.073805
   109  C    0.034824
   110  C   -0.007602
   111  N   -0.324063
   112  C    0.078394
   113  C   -0.163284
   114  C    0.002206
   115  C    0.096171
   116  C    0.131512
   117  C    0.042234
   118  O   -0.188255
   119  C    0.000987
   120  C    0.211262
   121  O   -0.251183
   122  O   -0.305528
   123  C    0.152105
   124  H   -0.018314
   125  H   -0.016084
   126  H   -0.040745
   127  H   -0.000464
   128  H   -0.004138
   129  H    0.022269
   130  H    0.015375
   131  H    0.018341
   132  H    0.013774
   133  H    0.037318
   134  H    0.021223
   135  H    0.019814
   136  H    0.009522
   137  H    0.026414
   138  H    0.039484
   139  H    0.038357
   140  H    0.035902
   141  H    0.033916
   142  H    0.014104
   143  H    0.012272
   144  H    0.024448
   145  H    0.011741
   146  H    0.005315
   147  H    0.005796
   148  H    0.003584
   149  H    0.010728
   150  H    0.017721
   151  H    0.030352
   152  H    0.045739
   153  H    0.008289
   154  H    0.046984
   155  H    0.035196
   156  H    0.043673
   157  H    0.049721
   158  H    0.053377
 Sum of Mulliken charges =  -0.00000

 Dipole moment (field-independent basis, Debye):
    X=              4.6954    Y=              4.3275    Z=              1.7899  Tot=              6.6316
 Quadrupole moment (field-independent basis, Debye-Ang):
   XX=           -519.3119   YY=           -506.9057   ZZ=           -492.2595
   XY=            -12.9029   XZ=             37.8269   YZ=              4.9872

 Normal termination of Gaussian 16 at Sat Sep 11 18:31:35 2021.
