 Gaussian 16, Revision A.03,
 Gaussian 16:  ES64L-G16RevA.03 25-Dec-2016

 -----------------------------------
 #p cam-b3lyp/Def2SVP td=(nstates=5)
 -----------------------------------

 --------------------------------
 TDDFT excited states in gaussian
 --------------------------------
 Symbolic Z-matrix:
 Charge =  0 Multiplicity = 1

                         Standard orientation:
 ---------------------------------------------------------------------
 Center     Atomic      Atomic             Coordinates (Angstroms)
 Number     Number       Type             X           Y           Z
 ---------------------------------------------------------------------
      1         12           0        5.044153   -1.316277    0.061566
      2          6           0        6.068431    1.955036   -0.968764
      3          6           0        6.224709   -0.545027    3.168739
      4          6           0        4.566515   -4.343788    0.875604
      5          6           0        5.000893   -2.203264   -3.308456
      6          7           0        6.001494    0.507108    0.873607
      7          6           0        6.282514    1.713065    0.390008
      8          6           0        6.755739    2.720862    1.479860
      9          6           0        7.294103    1.683979    2.564772
     10          6           0        6.431443    0.486956    2.205773
     11          6           0        8.759918    1.308076    2.373497
     12          6           0        5.576563    3.581673    2.045792
     13          6           0        5.995717    4.803625    2.868285
     14          1           0        5.193967    6.014818    2.781347
     15          7           0        4.893855   -2.155364    1.843754
     16          6           0        5.422905   -1.695007    3.002832
     17          6           0        5.033603   -2.670068    4.044169
     18          6           0        4.397034   -3.832177    3.364186
     19          6           0        4.620156   -3.497756    1.980800
     20          6           0        5.229624   -2.430915    5.509819
     21          6           0        3.707742   -5.055850    3.879584
     22          8           0        3.433516   -6.050782    3.124943
     23          6           0        3.437756   -5.096776    5.328195
     24          7           0        5.027368   -3.094868   -1.031122
     25          6           0        4.736540   -4.261734   -0.445609
     26          6           0        4.507411   -5.340609   -1.462206
     27          6           0        4.463435   -4.609079   -2.880897
     28          6           0        4.773984   -3.166143   -2.412105
     29          6           0        5.556587   -6.460420   -1.497743
     30          6           0        3.206792   -4.846047   -3.755604
     31          6           0        1.999758   -4.210542   -3.102688
     32          7           0        5.282221   -0.284394   -1.833054
     33          6           0        5.248539   -0.854689   -3.113797
     34          6           0        5.566679    0.218815   -4.073195
     35          6           0        5.781001    1.342584   -3.277549
     36          6           0        5.633496    0.987191   -1.906334
     37          6           0        5.683906    0.068576   -5.483202
     38          6           0        6.124502    2.755283   -3.265409
     39          8           0        6.273734    3.618891   -4.131090
     40          6           0        6.444013    3.180373   -1.764397
     41          6           0        5.697730    4.456362   -1.484716
     42          8           0        4.450568    4.472158   -1.443434
     43          8           0        6.563300    5.397599   -1.078017
     44          6           0        5.883562    6.680617   -0.755566
     45          1           0        6.770449   -0.502532    4.113357
     46          1           0        4.294385   -5.376167    1.104902
     47          1           0        4.922982   -2.386069   -4.381752
     48          1           0        7.562234    3.383921    1.166261
     49          1           0        7.081981    2.012475    3.582031
     50          1           0        9.157978    1.716360    1.444642
     51          1           0        8.780249    0.218340    2.349917
     52          1           0        9.351174    1.600075    3.241789
     53          1           0        5.052114    3.012466    2.813266
     54          1           0        4.910410    3.898889    1.242709
     55          1           0        7.052339    5.034200    2.729385
     56          1           0        5.910486    4.549697    3.924910
     57          1           0        5.869851   -1.568848    5.692836
     58          1           0        5.796252   -3.277266    5.897546
     59          1           0        4.282108   -2.347912    6.042412
     60          1           0        4.378658   -5.011212    5.872190
     61          1           0        2.860782   -6.004567    5.501011
     62          1           0        2.844993   -4.223404    5.601698
     63          1           0        3.557044   -5.844318   -1.290433
     64          1           0        5.293469   -4.908381   -3.521316
     65          1           0        5.138504   -7.456908   -1.353100
     66          1           0        6.310956   -6.239516   -0.743143
     67          1           0        6.160063   -6.492764   -2.404489
     68          1           0        3.000528   -5.912318   -3.842010
     69          1           0        3.302460   -4.443948   -4.764275
     70          1           0        1.681310   -4.969440   -2.388897
     71          1           0        1.222377   -4.020698   -3.843532
     72          1           0        2.276330   -3.323098   -2.533095
     73          1           0        5.171050    0.923002   -5.924682
     74          1           0        5.247670   -0.871988   -5.818823
     75          1           0        6.767353    0.091310   -5.599312
     76          1           0        7.523306    3.314748   -1.699639
     77          1           0        6.356877    7.455159   -1.359132
     78          1           0        5.923760    6.788691    0.328458
     79          1           0        4.846482    6.771610   -1.080410
     80         12           0       -5.210393    1.319230    0.312386
     81          6           0       -5.903292   -2.138608   -0.352650
     82          6           0       -4.311086    1.614836   -2.964578
     83          6           0       -4.166207    4.243318    0.965689
     84          6           0       -5.060986    0.495057    3.695301
     85          7           0       -5.157655   -0.144182   -1.345290
     86          6           0       -5.502318   -1.414317   -1.494611
     87          6           0       -5.489078   -1.915944   -2.963537
     88          6           0       -4.447018   -0.855433   -3.570411
     89          6           0       -4.671424    0.295316   -2.591584
     90          6           0       -2.999003   -1.302613   -3.457988
     91          6           0       -6.895488   -1.795956   -3.648836
     92          6           0       -7.031452   -2.548934   -4.974088
     93          1           0       -8.315323   -3.166095   -5.295428
     94          7           0       -4.831288    2.847336   -0.895811
     95          6           0       -4.504587    2.788832   -2.203914
     96          6           0       -4.306506    4.182328   -2.631828
     97          6           0       -4.381573    5.057177   -1.430278
     98          6           0       -4.443222    4.059373   -0.381153
     99          6           0       -4.152697    4.577271   -4.071895
    100          6           0       -4.383064    6.545480   -1.253772
    101          8           0       -4.215695    7.087395   -0.104368
    102          6           0       -4.492769    7.350840   -2.478870
    103          7           0       -4.480096    2.200633    2.047933
    104          6           0       -4.144989    3.502542    2.073896
    105          6           0       -3.910454    3.977345    3.488089
    106          6           0       -4.395593    2.779104    4.429600
    107          6           0       -4.759468    1.738624    3.347749
    108          6           0       -2.468198    4.345415    3.835675
    109          6           0       -5.454961    3.120125    5.513169
    110          6           0       -6.769845    3.473550    4.856240
    111          7           0       -5.615719   -0.436196    1.504950
    112          6           0       -5.462928   -0.572091    2.902195
    113          6           0       -5.750696   -1.981996    3.236545
    114          6           0       -6.030694   -2.578566    1.997915
    115          6           0       -5.905177   -1.613568    0.962287
    116          6           0       -5.685342   -2.558769    4.536224
    117          6           0       -6.393526   -3.807692    1.329858
    118          8           0       -6.717403   -4.935165    1.700870
    119          6           0       -6.203657   -3.607162   -0.235432
    120          6           0       -7.436100   -4.127312   -0.923220
    121          8           0       -8.535716   -3.571073   -0.755742
    122          8           0       -7.076788   -5.054875   -1.829253
    123          6           0       -8.264087   -5.592684   -2.545423
    124          1           0       -3.792366    1.762783   -3.912164
    125          1           0       -3.908828    5.263701    1.259061
    126          1           0       -5.131401    0.181389    4.739006
    127          1           0       -5.113773   -2.923599   -3.096084
    128          1           0       -4.726785   -0.559008   -4.577994
    129          1           0       -2.901151   -2.209609   -2.880122
    130          1           0       -2.476176   -0.487751   -2.974560
    131          1           0       -2.555304   -1.397090   -4.453241
    132          1           0       -7.034725   -0.766301   -4.002621
    133          1           0       -7.673845   -2.102634   -2.977476
    134          1           0       -6.212743   -3.262193   -5.128787
    135          1           0       -6.921751   -1.833376   -5.792600
    136          1           0       -3.971743    3.704429   -4.711265
    137          1           0       -3.230642    5.163962   -4.145827
    138          1           0       -4.986584    5.182363   -4.434083
    139          1           0       -3.668162    7.108856   -3.145163
    140          1           0       -4.566853    8.386647   -2.142006
    141          1           0       -5.413263    7.068481   -3.001913
    142          1           0       -4.504548    4.856780    3.704299
    143          1           0       -3.562931    2.352782    5.008177
    144          1           0       -2.359701    5.381809    4.207416
    145          1           0       -1.855262    4.190213    2.957745
    146          1           0       -1.990132    3.697785    4.568633
    147          1           0       -5.145434    4.000613    6.081559
    148          1           0       -5.618070    2.318077    6.225287
    149          1           0       -6.640814    4.528859    4.597841
    150          1           0       -7.594989    3.335612    5.552045
    151          1           0       -6.903746    2.918978    3.920197
    152          1           0       -6.558568   -3.188760    4.641536
    153          1           0       -5.650349   -1.793975    5.309291
    154          1           0       -4.743002   -3.107646    4.458864
    155          1           0       -5.308184   -4.155862   -0.529757
    156          1           0       -8.247342   -6.679763   -2.420304
    157          1           0       -8.191602   -5.203347   -3.578338
    158          1           0       -9.242248   -5.349042   -2.147543
 ---------------------------------------------------------------------

 SCF Done:  E(RCAM-B3LYP) =  -4069.81180143     A.U. after   19 cycles

 Excitation energies and oscillator strengths:

 Excited State   1:      Singlet-A      1.6592 eV  747.25 nm  f=0.0461  <S**2>=0.000
     309 -> 315        0.11351
     310 -> 316        0.12632
     311 -> 313        0.45750
     312 -> 314        0.51244
 This state for optimization and/or second-order correction.
 Total Energy, E(TD-HF/TD-DFT) =  -4069.75082669
 Copying the excited state density for this state as the 1-particle RhoCI density.

 Excited State   2:      Singlet-A      1.6953 eV  731.34 nm  f=0.6683  <S**2>=0.000
     309 -> 315        0.13389
     310 -> 316       -0.11911
     311 -> 313        0.51076
     312 -> 314       -0.45611

 Excited State   3:      Singlet-A      2.1852 eV  567.39 nm  f=0.0307  <S**2>=0.000
     309 -> 313        0.28402
     310 -> 314        0.57747
     311 -> 315       -0.11913
     312 -> 316       -0.24382

 Excited State   4:      Singlet-A      2.1947 eV  564.94 nm  f=0.1544  <S**2>=0.000
     309 -> 313        0.57443
     310 -> 314       -0.28132
     311 -> 315       -0.25134
     312 -> 316        0.12382

 Excited State   5:      Singlet-A      2.4839 eV  499.16 nm  f=0.0000  <S**2>=0.000
     312 -> 313        0.70709

 The electronic state is 1-A.
 Alpha  occ. eigenvalues --  -46.87881 -46.87492 -19.26346 -19.26232 -19.19091
 Alpha  occ. eigenvalues --  -19.19036 -19.18855 -19.18522 -19.18264 -19.17891
 Alpha  occ. eigenvalues --  -14.42530 -14.42328 -14.41536 -14.41199 -14.39482
 Alpha  occ. eigenvalues --  -14.39175 -14.38677 -14.38435 -10.39151 -10.38963
 Alpha  occ. eigenvalues --  -10.35486 -10.35196 -10.34483 -10.34071 -10.31723
 Alpha  occ. eigenvalues --  -10.31657 -10.31493 -10.31145 -10.30978 -10.30843
 Alpha  occ. eigenvalues --  -10.30663 -10.30594 -10.30290 -10.30235 -10.30195
 Alpha  occ. eigenvalues --  -10.30013 -10.29977 -10.29750 -10.29716 -10.29335
 Alpha  occ. eigenvalues --  -10.29255 -10.29230 -10.28809 -10.28571 -10.28565
 Alpha  occ. eigenvalues --  -10.28542 -10.28444 -10.28226 -10.28183 -10.27975
 Alpha  occ. eigenvalues --  -10.27881 -10.27825 -10.27809 -10.27663 -10.27607
 Alpha  occ. eigenvalues --  -10.27545 -10.27537 -10.27487 -10.27483 -10.27415
 Alpha  occ. eigenvalues --  -10.27317 -10.27283 -10.27264 -10.27238 -10.27211
 Alpha  occ. eigenvalues --  -10.26898 -10.26753 -10.26557 -10.26425 -10.26331
 Alpha  occ. eigenvalues --  -10.26296 -10.26197 -10.26116 -10.26065 -10.25981
 Alpha  occ. eigenvalues --  -10.25842 -10.25783 -10.25733 -10.25505 -10.25293
 Alpha  occ. eigenvalues --  -10.24923 -10.24871 -10.24867 -10.24702 -10.24654
 Alpha  occ. eigenvalues --  -10.24524  -3.16624  -3.16242  -1.91505  -1.91124
 Alpha  occ. eigenvalues --   -1.91092  -1.90934  -1.90713  -1.90549  -1.16696
 Alpha  occ. eigenvalues --   -1.16524  -1.08723  -1.08503  -1.07252  -1.06820
 Alpha  occ. eigenvalues --   -1.06772  -1.06714  -1.04661  -1.04325  -1.03844
 Alpha  occ. eigenvalues --   -1.03496  -1.03320  -1.02875  -1.02497  -1.01945
 Alpha  occ. eigenvalues --   -0.92055  -0.91824  -0.89623  -0.89358  -0.89254
 Alpha  occ. eigenvalues --   -0.88993  -0.88383  -0.88093  -0.87974  -0.87752
 Alpha  occ. eigenvalues --   -0.87642  -0.87520  -0.87340  -0.86917  -0.85049
 Alpha  occ. eigenvalues --   -0.84843  -0.84042  -0.83758  -0.83027  -0.82749
 Alpha  occ. eigenvalues --   -0.82713  -0.82486  -0.81660  -0.81457  -0.80670
 Alpha  occ. eigenvalues --   -0.80287  -0.78876  -0.78451  -0.77306  -0.77008
 Alpha  occ. eigenvalues --   -0.76989  -0.76762  -0.75997  -0.75680  -0.74985
 Alpha  occ. eigenvalues --   -0.74670  -0.72866  -0.72539  -0.71750  -0.71426
 Alpha  occ. eigenvalues --   -0.70027  -0.69649  -0.68942  -0.68669  -0.67718
 Alpha  occ. eigenvalues --   -0.67441  -0.67276  -0.67039  -0.65359  -0.65118
 Alpha  occ. eigenvalues --   -0.64937  -0.64700  -0.64618  -0.64506  -0.64366
 Alpha  occ. eigenvalues --   -0.64071  -0.62372  -0.62144  -0.60515  -0.60161
 Alpha  occ. eigenvalues --   -0.59877  -0.59634  -0.59072  -0.58837  -0.58588
 Alpha  occ. eigenvalues --   -0.58270  -0.57667  -0.57408  -0.57392  -0.57084
 Alpha  occ. eigenvalues --   -0.56394  -0.56043  -0.56041  -0.55746  -0.55589
 Alpha  occ. eigenvalues --   -0.55433  -0.55284  -0.55123  -0.54613  -0.54367
 Alpha  occ. eigenvalues --   -0.53960  -0.53756  -0.53380  -0.53284  -0.53073
 Alpha  occ. eigenvalues --   -0.52994  -0.52978  -0.52814  -0.52753  -0.52564
 Alpha  occ. eigenvalues --   -0.52467  -0.52298  -0.52030  -0.51750  -0.51678
 Alpha  occ. eigenvalues --   -0.51493  -0.51286  -0.51055  -0.50627  -0.50273
 Alpha  occ. eigenvalues --   -0.50131  -0.49979  -0.49811  -0.49720  -0.49577
 Alpha  occ. eigenvalues --   -0.49314  -0.49294  -0.49167  -0.49032  -0.48951
 Alpha  occ. eigenvalues --   -0.48672  -0.48546  -0.48502  -0.48407  -0.48246
 Alpha  occ. eigenvalues --   -0.48154  -0.47769  -0.47430  -0.47370  -0.46945
 Alpha  occ. eigenvalues --   -0.46888  -0.46619  -0.46563  -0.46447  -0.46398
 Alpha  occ. eigenvalues --   -0.46252  -0.46109  -0.45947  -0.45912  -0.45688
 Alpha  occ. eigenvalues --   -0.45290  -0.45071  -0.44667  -0.44575  -0.44370
 Alpha  occ. eigenvalues --   -0.44320  -0.44237  -0.44158  -0.44088  -0.43974
 Alpha  occ. eigenvalues --   -0.43928  -0.43761  -0.43576  -0.43462  -0.43423
 Alpha  occ. eigenvalues --   -0.43234  -0.43112  -0.42795  -0.42788  -0.42757
 Alpha  occ. eigenvalues --   -0.42744  -0.42414  -0.42110  -0.41836  -0.41788
 Alpha  occ. eigenvalues --   -0.41602  -0.41515  -0.41313  -0.41216  -0.40950
 Alpha  occ. eigenvalues --   -0.40868  -0.40833  -0.40665  -0.40571  -0.40527
 Alpha  occ. eigenvalues --   -0.40365  -0.40285  -0.40076  -0.39568  -0.39320
 Alpha  occ. eigenvalues --   -0.38559  -0.38224  -0.37809  -0.37511  -0.37412
 Alpha  occ. eigenvalues --   -0.37332  -0.37127  -0.37037  -0.36791  -0.36648
 Alpha  occ. eigenvalues --   -0.36274  -0.36081  -0.34372  -0.34093  -0.33844
 Alpha  occ. eigenvalues --   -0.33728  -0.33271  -0.33010  -0.31386  -0.31114
 Alpha  occ. eigenvalues --   -0.31084  -0.30807  -0.30124  -0.29799  -0.29528
 Alpha  occ. eigenvalues --   -0.29412  -0.29141  -0.29041  -0.24165  -0.23869
 Alpha  occ. eigenvalues --   -0.21214  -0.20948
 Alpha virt. eigenvalues --   -0.08857  -0.08616  -0.01830  -0.01517  -0.00123
 Alpha virt. eigenvalues --    0.00159   0.02109   0.02365   0.03016   0.03381
 Alpha virt. eigenvalues --    0.04645   0.04888   0.05025   0.05297   0.06128

 Mulliken charges:
               1
     1  Mg   0.838625
     2  C   -0.002817
     3  C   -0.094093
     4  C   -0.045713
     5  C   -0.064424
     6  N   -0.256783
     7  C   -0.052478
     8  C   -0.013999
     9  C   -0.087034
    10  C    0.046484
    11  C    0.104768
    12  C    0.053459
    13  C   -0.072161
    14  H    0.036999
    15  N   -0.433239
    16  C    0.168635
    17  C   -0.176995
    18  C   -0.003649
    19  C    0.148888
    20  C    0.110159
    21  C    0.012704
    22  O   -0.248804
    23  C    0.062326
    24  N   -0.341064
    25  C    0.041189
    26  C   -0.028394
    27  C   -0.023811
    28  C    0.074610
    29  C    0.076023
    30  C    0.035250
    31  C   -0.004682
    32  N   -0.310276
    33  C    0.079994
    34  C   -0.170701
    35  C    0.008155
    36  C    0.082616
    37  C    0.127552
    38  C    0.045634
    39  O   -0.188954
    40  C   -0.005101
    41  C    0.212692
    42  O   -0.257222
    43  O   -0.304785
    44  C    0.157612
    45  H   -0.017324
    46  H   -0.016321
    47  H   -0.042146
    48  H    0.001024
    49  H   -0.003892
    50  H    0.025533
    51  H    0.016465
    52  H    0.016885
    53  H    0.011017
    54  H    0.044339
    55  H    0.017870
    56  H    0.017867
    57  H    0.005932
    58  H    0.027232
    59  H    0.039659
    60  H    0.037287
    61  H    0.036682
    62  H    0.031382
    63  H    0.016970
    64  H    0.009541
    65  H    0.023734
    66  H    0.012766
    67  H    0.004750
    68  H    0.006801
    69  H    0.003969
    70  H    0.009909
    71  H    0.015750
    72  H    0.029055
    73  H    0.046468
    74  H    0.008436
    75  H    0.046283
    76  H    0.035283
    77  H    0.042891
    78  H    0.046783
    79  H    0.053912
    80  Mg   0.838041
    81  C   -0.016718
    82  C   -0.086947
    83  C   -0.044530
    84  C   -0.065370
    85  N   -0.254511
    86  C   -0.050038
    87  C   -0.015069
    88  C   -0.090530
    89  C    0.045543
    90  C    0.113793
    91  C    0.062581
    92  C   -0.077615
    93  H    0.034390
    94  N   -0.423894
    95  C    0.162960
    96  C   -0.172504
    97  C   -0.007129
    98  C    0.152622
    99  C    0.098482
   100  C    0.016327
   101  O   -0.253505
   102  C    0.060947
   103  N   -0.349943
   104  C    0.037709
   105  C   -0.019877
   106  C   -0.034432
   107  C    0.088739
   108  C    0.073547
   109  C    0.034916
   110  C   -0.007546
   111  N   -0.323972
   112  C    0.078160
   113  C   -0.163654
   114  C    0.002255
   115  C    0.095865
   116  C    0.131460
   117  C    0.042275
   118  O   -0.188421
   119  C    0.000908
   120  C    0.211153
   121  O   -0.251221
   122  O   -0.305609
   123  C    0.152140
   124  H   -0.018169
   125  H   -0.015575
   126  H   -0.041532
   127  H   -0.001086
   128  H   -0.004446
   129  H    0.022361
   130  H    0.016432
   131  H    0.015706
   132  H    0.013934
   133  H    0.037497
   134  H    0.020383
   135  H    0.019601
   136  H    0.009144
   137  H    0.029155
   138  H    0.039268
   139  H    0.039931
   140  H    0.035888
   141  H    0.033352
   142  H    0.014057
   143  H    0.011193
   144  H    0.024372
   145  H    0.013827
   146  H    0.004099
   147  H    0.005500
   148  H    0.003021
   149  H    0.010837
   150  H    0.017476
   151  H    0.030558
   152  H    0.045603
   153  H    0.007659
   154  H    0.046634
   155  H    0.035176
   156  H    0.043638
   157  H    0.049343
   158  H    0.053402
 Sum of Mulliken charges =  -0.00000

 Dipole moment (field-independent basis, Debye):
    X=              4.4580    Y=              0.7601    Z=              0.5669  Tot=              4.5577
 Quadrupole moment (field-independent basis, Debye-Ang):
   XX=           -524.2749   YY=           -541.5976   ZZ=           -453.8526
   XY=            -19.5235   XZ=             52.8854   YZ=             35.7657

 Normal termination of Gaussian 16 at Fri Sep 10 12:05:28 2021.
