 Gaussian 16, Revision A.03,
 Gaussian 16:  ES64L-G16RevA.03 25-Dec-2016

 -----------------------------------
 #p cam-b3lyp/Def2SVP td=(nstates=5)
 -----------------------------------

 --------------------------------
 TDDFT excited states in gaussian
 --------------------------------
 Symbolic Z-matrix:
 Charge =  0 Multiplicity = 1

                         Standard orientation:
 ---------------------------------------------------------------------
 Center     Atomic      Atomic             Coordinates (Angstroms)
 Number     Number       Type             X           Y           Z
 ---------------------------------------------------------------------
      1         12           0        8.051650   -0.475832   -0.107664
      2          6           0        8.109388    2.926880   -1.216911
      3          6           0        8.960560    0.669749    2.975288
      4          6           0        8.449494   -3.495030    0.777087
      5          6           0        8.266681   -1.416486   -3.456483
      6          7           0        8.452231    1.562261    0.658077
      7          6           0        8.381057    2.786916    0.145899
      8          6           0        8.547822    3.912385    1.210268
      9          6           0        9.356015    3.095722    2.315657
     10          6           0        8.868166    1.695477    1.988182
     11          6           0       10.868582    3.145862    2.125583
     12          6           0        7.172265    4.416995    1.762483
     13          6           0        7.226961    5.726306    2.554990
     14          1           0        6.115216    6.658616    2.444683
     15          7           0        8.142247   -1.281681    1.693794
     16          6           0        8.517449   -0.663697    2.839484
     17          6           0        8.418505   -1.684721    3.904567
     18          6           0        8.138120   -2.994908    3.254270
     19          6           0        8.259626   -2.643095    1.862565
     20          6           0        8.536452   -1.366020    5.363425
     21          6           0        7.822696   -4.351399    3.800690
     22          8           0        7.842608   -5.400441    3.070150
     23          6           0        7.573037   -4.433565    5.251193
     24          7           0        8.540898   -2.211189   -1.159712
     25          6           0        8.591434   -3.398783   -0.546482
     26          6           0        8.678783   -4.521602   -1.537233
     27          6           0        8.431738   -3.865471   -2.971881
     28          6           0        8.320267   -2.383208   -2.537438
     29          6           0       10.002150   -5.299079   -1.552680
     30          6           0        7.295014   -4.468677   -3.834680
     31          6           0        5.956395   -4.185966   -3.190264
     32          7           0        7.990821    0.537120   -2.026328
     33          6           0        8.122036   -0.048847   -3.293648
     34          6           0        8.124726    1.048314   -4.278686
     35          6           0        8.010816    2.204876   -3.509768
     36          6           0        7.967790    1.854080   -2.130136
     37          6           0        8.281943    0.904835   -5.685502
     38          6           0        7.940238    3.656912   -3.531335
     39          8           0        7.840215    4.507172   -4.417082
     40          6           0        8.123917    4.189670   -2.041953
     41          6           0        7.046436    5.208292   -1.787484
     42          8           0        5.845776    4.871311   -1.740308
     43          8           0        7.609426    6.365215   -1.406547
     44          6           0        6.593708    7.410405   -1.109813
     45          1           0        9.470428    0.886847    3.915950
     46          1           0        8.480450   -4.556622    1.031059
     47          1           0        8.245431   -1.638645   -4.524962
     48          1           0        9.134068    4.769202    0.877694
     49          1           0        9.057940    3.374166    3.326271
     50          1           0       11.136228    3.628536    1.185736
     51          1           0       11.196675    2.106224    2.126574
     52          1           0       11.351578    3.613308    2.984062
     53          1           0        6.829225    3.740512    2.545269
     54          1           0        6.444836    4.513975    0.955780
     55          1           0        8.175276    6.243308    2.405602
     56          1           0        7.215433    5.483150    3.617507
     57          1           0        8.906094   -0.353976    5.523664
     58          1           0        9.318915   -2.008124    5.767361
     59          1           0        7.603361   -1.542366    5.898754
     60          1           0        8.450338   -4.072565    5.788381
     61          1           0        7.276439   -5.463312    5.447409
     62          1           0        6.756804   -3.757657    5.507829
     63          1           0        7.909660   -5.269645   -1.349333
     64          1           0        9.313570   -3.932270   -3.609521
     65          1           0        9.883099   -6.369538   -1.383420
     66          1           0       10.661895   -4.856252   -0.807071
     67          1           0       10.591532   -5.180217   -2.461480
     68          1           0        7.399241   -5.551421   -3.895890
     69          1           0        7.274521   -4.079389   -4.852661
     70          1           0        5.864722   -4.987248   -2.457888
     71          1           0        5.158256   -4.241162   -3.931303
     72          1           0        5.969463   -3.243601   -2.642302
     73          1           0        7.548851    1.568661   -6.143629
     74          1           0        8.130414   -0.128251   -5.997550
     75          1           0        9.314798    1.230679   -5.807534
     76          1           0        9.120888    4.625564   -1.985673
     77          1           0        6.829306    8.273080   -1.733126
     78          1           0        6.599932    7.550483   -0.028728
     79          1           0        5.573824    7.196530   -1.431422
     80         12           0       -7.811655   -1.026518    0.277436
     81          6           0       -9.610296    2.040729   -0.208287
     82          6           0       -5.534954    0.767389    2.075513
     83          6           0       -5.974737   -3.612770    0.344126
     84          6           0       -9.557783   -2.320026   -2.447198
     85          7           0       -7.697135    1.120267    0.797485
     86          6           0       -8.469729    2.179600    0.609793
     87          6           0       -8.036997    3.440345    1.405309
     88          6           0       -6.483260    3.082377    1.596656
     89          6           0       -6.572257    1.559499    1.521757
     90          6           0       -5.608725    3.566571    0.452072
     91          6           0       -8.773565    3.558053    2.785756
     92          6           0       -8.633056    4.916647    3.475851
     93          1           0       -9.766126    5.428910    4.241487
     94          7           0       -6.297713   -1.496012    1.471647
     95          6           0       -5.493286   -0.642752    2.139562
     96          6           0       -4.524585   -1.483544    2.859874
     97          6           0       -4.719744   -2.895531    2.432189
     98          6           0       -5.678632   -2.716218    1.360518
     99          6           0       -3.592555   -0.939514    3.903321
    100          6           0       -4.130059   -4.191327    2.900583
    101          8           0       -4.263453   -5.274039    2.227711
    102          6           0       -3.313170   -4.136432    4.121714
    103          7           0       -7.613657   -2.648829   -1.007571
    104          6           0       -6.779797   -3.662912   -0.717325
    105          6           0       -7.007931   -4.837462   -1.638620
    106          6           0       -8.338441   -4.490728   -2.455395
    107          6           0       -8.611517   -3.073895   -1.904576
    108          6           0       -5.875296   -5.144491   -2.618033
    109          6           0       -9.486160   -5.536250   -2.407614
    110          6           0      -10.059248   -5.610056   -1.010646
    111          7           0       -9.441216   -0.369222   -0.979759
    112          6           0       -9.999758   -1.055313   -2.080388
    113          6           0      -11.004251   -0.158631   -2.688174
    114          6           0      -10.943581    1.005041   -1.906726
    115          6           0       -9.955771    0.852576   -0.896537
    116          6           0      -11.785793   -0.446080   -3.842595
    117          6           0      -11.483099    2.331763   -1.713262
    118          8           0      -12.404918    2.975957   -2.212269
    119          6           0      -10.555177    3.109420   -0.683400
    120          6           0      -11.443085    3.764541    0.338819
    121          8           0      -12.121369    3.075706    1.121156
    122          8           0      -11.181098    5.083937    0.369191
    123          6           0      -12.029359    5.775742    1.376002
    124          1           0       -4.647565    1.270273    2.460916
    125          1           0       -5.445692   -4.567551    0.388658
    126          1           0      -10.213707   -2.686917   -3.239543
    127          1           0       -8.139682    4.374752    0.866693
    128          1           0       -6.123076    3.395705    2.573115
    129          1           0       -6.195048    3.969173   -0.360505
    130          1           0       -5.049600    2.700693    0.122409
    131          1           0       -4.867525    4.281622    0.820401
    132          1           0       -8.263112    2.920955    3.519429
    133          1           0       -9.812182    3.309191    2.685859
    134          1           0       -8.249209    5.686710    2.795691
    135          1           0       -7.865356    4.835295    4.249180
    136          1           0       -3.562156    0.156881    3.883231
    137          1           0       -2.579962   -1.244584    3.617922
    138          1           0       -3.808842   -1.323334    4.902600
    139          1           0       -2.487374   -3.444755    3.972977
    140          1           0       -3.053907   -5.172787    4.346705
    141          1           0       -3.924541   -3.726721    4.933484
    142          1           0       -7.169734   -5.746872   -1.073034
    143          1           0       -8.138212   -4.376575   -3.530904
    144          1           0       -5.489299   -6.177526   -2.528982
    145          1           0       -5.081629   -4.426874   -2.457866
    146          1           0       -6.118081   -4.989957   -3.667974
    147          1           0       -9.100737   -6.532506   -2.638001
    148          1           0      -10.287290   -5.330596   -3.109667
    149          1           0       -9.370899   -6.287885   -0.497023
    150          1           0      -11.069172   -6.014578   -1.031781
    151          1           0       -9.999640   -4.637254   -0.508897
    152          1           0      -12.793732   -0.118159   -3.625757
    153          1           0      -11.755918   -1.505337   -4.089285
    154          1           0      -11.266133    0.163488   -4.586670
    155          1           0       -9.976158    3.839226   -1.250588
    156          1           0      -12.559944    6.576070    0.850995
    157          1           0      -11.342584    6.075975    2.189615
    158          1           0      -12.855339    5.219046    1.802975
 ---------------------------------------------------------------------

 SCF Done:  E(RCAM-B3LYP) =  -4069.81176089     A.U. after   19 cycles

 Excitation energies and oscillator strengths:

 Excited State   1:      Singlet-A      1.6710 eV  741.98 nm  f=0.1465  <S**2>=0.000
     309 -> 315       -0.10001
     310 -> 316        0.14081
     311 -> 313       -0.39599
     312 -> 314        0.56054
 This state for optimization and/or second-order correction.
 Total Energy, E(TD-HF/TD-DFT) =  -4069.75035333
 Copying the excited state density for this state as the 1-particle RhoCI density.

 Excited State   2:      Singlet-A      1.6837 eV  736.37 nm  f=0.6234  <S**2>=0.000
     309 -> 315        0.14440
     310 -> 316        0.10130
     311 -> 313        0.55981
     312 -> 314        0.39555

 Excited State   3:      Singlet-A      2.1854 eV  567.32 nm  f=0.0568  <S**2>=0.000
     309 -> 313        0.14220
     310 -> 314        0.62689
     312 -> 316       -0.26578

 Excited State   4:      Singlet-A      2.1931 eV  565.34 nm  f=0.1362  <S**2>=0.000
     309 -> 313        0.62483
     310 -> 314       -0.14111
     311 -> 315       -0.27182

 Excited State   5:      Singlet-A      2.7422 eV  452.13 nm  f=0.0000  <S**2>=0.000
     312 -> 313        0.70704

 The electronic state is 1-A.
 Alpha  occ. eigenvalues --  -46.87897 -46.87590 -19.26412 -19.26296 -19.19150
 Alpha  occ. eigenvalues --  -19.19106 -19.18905 -19.18653 -19.18271 -19.17986
 Alpha  occ. eigenvalues --  -14.42553 -14.42425 -14.41544 -14.41289 -14.39504
 Alpha  occ. eigenvalues --  -14.39282 -14.38687 -14.38531 -10.39206 -10.39034
 Alpha  occ. eigenvalues --  -10.35539 -10.35331 -10.34492 -10.34164 -10.31814
 Alpha  occ. eigenvalues --  -10.31710 -10.31509 -10.31235 -10.31017 -10.30952
 Alpha  occ. eigenvalues --  -10.30671 -10.30603 -10.30330 -10.30297 -10.30292
 Alpha  occ. eigenvalues --  -10.30072 -10.30009 -10.29826 -10.29728 -10.29367
 Alpha  occ. eigenvalues --  -10.29352 -10.29336 -10.28871 -10.28696 -10.28646
 Alpha  occ. eigenvalues --  -10.28607 -10.28468 -10.28335 -10.28231 -10.28057
 Alpha  occ. eigenvalues --  -10.27933 -10.27891 -10.27829 -10.27683 -10.27594
 Alpha  occ. eigenvalues --  -10.27592 -10.27569 -10.27517 -10.27506 -10.27453
 Alpha  occ. eigenvalues --  -10.27414 -10.27411 -10.27401 -10.27309 -10.27267
 Alpha  occ. eigenvalues --  -10.26985 -10.26854 -10.26636 -10.26506 -10.26366
 Alpha  occ. eigenvalues --  -10.26336 -10.26238 -10.26111 -10.26083 -10.25927
 Alpha  occ. eigenvalues --  -10.25910 -10.25866 -10.25788 -10.25494 -10.25324
 Alpha  occ. eigenvalues --  -10.24932 -10.24880 -10.24805 -10.24736 -10.24681
 Alpha  occ. eigenvalues --  -10.24620  -3.16640  -3.16340  -1.91522  -1.91222
 Alpha  occ. eigenvalues --   -1.91109  -1.90951  -1.90811  -1.90648  -1.16761
 Alpha  occ. eigenvalues --   -1.16589  -1.08730  -1.08594  -1.07305  -1.06905
 Alpha  occ. eigenvalues --   -1.06890  -1.06771  -1.04685  -1.04423  -1.03857
 Alpha  occ. eigenvalues --   -1.03593  -1.03332  -1.02970  -1.02509  -1.02042
 Alpha  occ. eigenvalues --   -0.92075  -0.91918  -0.89602  -0.89429  -0.89305
 Alpha  occ. eigenvalues --   -0.89075  -0.88366  -0.88155  -0.87965  -0.87777
 Alpha  occ. eigenvalues --   -0.87727  -0.87614  -0.87374  -0.87058  -0.85096
 Alpha  occ. eigenvalues --   -0.84930  -0.84012  -0.83813  -0.83059  -0.82873
 Alpha  occ. eigenvalues --   -0.82757  -0.82585  -0.81697  -0.81535  -0.80701
 Alpha  occ. eigenvalues --   -0.80379  -0.78897  -0.78571  -0.77317  -0.77077
 Alpha  occ. eigenvalues --   -0.77042  -0.76833  -0.76031  -0.75767  -0.74981
 Alpha  occ. eigenvalues --   -0.74736  -0.72870  -0.72631  -0.71769  -0.71508
 Alpha  occ. eigenvalues --   -0.69977  -0.69696  -0.68983  -0.68759  -0.67741
 Alpha  occ. eigenvalues --   -0.67536  -0.67340  -0.67139  -0.65400  -0.65203
 Alpha  occ. eigenvalues --   -0.64955  -0.64723  -0.64703  -0.64588  -0.64353
 Alpha  occ. eigenvalues --   -0.64139  -0.62408  -0.62218  -0.60536  -0.60276
 Alpha  occ. eigenvalues --   -0.59915  -0.59723  -0.59084  -0.58925  -0.58602
 Alpha  occ. eigenvalues --   -0.58359  -0.57693  -0.57491  -0.57401  -0.57172
 Alpha  occ. eigenvalues --   -0.56410  -0.56139  -0.56098  -0.55827  -0.55620
 Alpha  occ. eigenvalues --   -0.55428  -0.55390  -0.55185  -0.54619  -0.54427
 Alpha  occ. eigenvalues --   -0.54012  -0.53839  -0.53395  -0.53331  -0.53163
 Alpha  occ. eigenvalues --   -0.53077  -0.53021  -0.52862  -0.52839  -0.52605
 Alpha  occ. eigenvalues --   -0.52507  -0.52343  -0.52006  -0.51821  -0.51732
 Alpha  occ. eigenvalues --   -0.51594  -0.51294  -0.51137  -0.50673  -0.50417
 Alpha  occ. eigenvalues --   -0.50112  -0.50017  -0.49910  -0.49802  -0.49621
 Alpha  occ. eigenvalues --   -0.49422  -0.49318  -0.49204  -0.49134  -0.49032
 Alpha  occ. eigenvalues --   -0.48698  -0.48547  -0.48542  -0.48490  -0.48311
 Alpha  occ. eigenvalues --   -0.48277  -0.47796  -0.47529  -0.47394  -0.47053
 Alpha  occ. eigenvalues --   -0.46892  -0.46671  -0.46642  -0.46484  -0.46455
 Alpha  occ. eigenvalues --   -0.46256  -0.46205  -0.46021  -0.45925  -0.45758
 Alpha  occ. eigenvalues --   -0.45281  -0.45141  -0.44680  -0.44607  -0.44449
 Alpha  occ. eigenvalues --   -0.44408  -0.44236  -0.44194  -0.44122  -0.44056
 Alpha  occ. eigenvalues --   -0.44017  -0.43877  -0.43601  -0.43493  -0.43487
 Alpha  occ. eigenvalues --   -0.43317  -0.43124  -0.42871  -0.42836  -0.42812
 Alpha  occ. eigenvalues --   -0.42737  -0.42490  -0.42100  -0.41902  -0.41803
 Alpha  occ. eigenvalues --   -0.41646  -0.41602  -0.41393  -0.41240  -0.40974
 Alpha  occ. eigenvalues --   -0.40923  -0.40915  -0.40660  -0.40654  -0.40633
 Alpha  occ. eigenvalues --   -0.40427  -0.40366  -0.40166  -0.39508  -0.39366
 Alpha  occ. eigenvalues --   -0.38554  -0.38284  -0.37874  -0.37592  -0.37407
 Alpha  occ. eigenvalues --   -0.37379  -0.37199  -0.37131  -0.36826  -0.36714
 Alpha  occ. eigenvalues --   -0.36294  -0.36152  -0.34385  -0.34185  -0.33895
 Alpha  occ. eigenvalues --   -0.33804  -0.33286  -0.33107  -0.31434  -0.31211
 Alpha  occ. eigenvalues --   -0.31134  -0.30903  -0.30131  -0.29891  -0.29548
 Alpha  occ. eigenvalues --   -0.29421  -0.29260  -0.29144  -0.24180  -0.23966
 Alpha  occ. eigenvalues --   -0.21226  -0.21047
 Alpha virt. eigenvalues --   -0.08873  -0.08723  -0.01846  -0.01614  -0.00158
 Alpha virt. eigenvalues --    0.00038   0.02103   0.02273   0.03002   0.03288
 Alpha virt. eigenvalues --    0.04608   0.04801   0.04974   0.05223   0.06043

 Mulliken charges:
               1
     1  Mg   0.838307
     2  C   -0.003189
     3  C   -0.094483
     4  C   -0.045674
     5  C   -0.063767
     6  N   -0.256780
     7  C   -0.052612
     8  C   -0.013942
     9  C   -0.086938
    10  C    0.046176
    11  C    0.104774
    12  C    0.053578
    13  C   -0.071584
    14  H    0.035397
    15  N   -0.433152
    16  C    0.168284
    17  C   -0.177377
    18  C   -0.004014
    19  C    0.148626
    20  C    0.110206
    21  C    0.012247
    22  O   -0.249157
    23  C    0.062568
    24  N   -0.341120
    25  C    0.041214
    26  C   -0.028237
    27  C   -0.024045
    28  C    0.074890
    29  C    0.076085
    30  C    0.035035
    31  C   -0.004542
    32  N   -0.310479
    33  C    0.080402
    34  C   -0.169592
    35  C    0.008377
    36  C    0.082923
    37  C    0.127303
    38  C    0.046100
    39  O   -0.188332
    40  C   -0.005350
    41  C    0.212955
    42  O   -0.257563
    43  O   -0.304633
    44  C    0.157742
    45  H   -0.017595
    46  H   -0.016516
    47  H   -0.041221
    48  H    0.001068
    49  H   -0.004276
    50  H    0.025590
    51  H    0.016633
    52  H    0.016729
    53  H    0.010697
    54  H    0.043762
    55  H    0.018272
    56  H    0.017799
    57  H    0.005771
    58  H    0.027081
    59  H    0.039005
    60  H    0.037439
    61  H    0.036003
    62  H    0.030858
    63  H    0.016879
    64  H    0.009610
    65  H    0.023507
    66  H    0.012511
    67  H    0.004892
    68  H    0.006710
    69  H    0.004787
    70  H    0.009160
    71  H    0.018454
    72  H    0.028562
    73  H    0.047615
    74  H    0.009315
    75  H    0.046175
    76  H    0.035308
    77  H    0.043208
    78  H    0.046245
    79  H    0.053332
    80  Mg   0.837957
    81  C   -0.016838
    82  C   -0.087704
    83  C   -0.045392
    84  C   -0.064811
    85  N   -0.254595
    86  C   -0.049738
    87  C   -0.015103
    88  C   -0.090506
    89  C    0.045761
    90  C    0.114253
    91  C    0.062570
    92  C   -0.077741
    93  H    0.034532
    94  N   -0.423525
    95  C    0.162933
    96  C   -0.174349
    97  C   -0.007803
    98  C    0.152198
    99  C    0.099290
   100  C    0.015667
   101  O   -0.253086
   102  C    0.061203
   103  N   -0.349992
   104  C    0.037590
   105  C   -0.019870
   106  C   -0.034786
   107  C    0.088888
   108  C    0.073576
   109  C    0.034764
   110  C   -0.007644
   111  N   -0.324113
   112  C    0.078456
   113  C   -0.163169
   114  C    0.002271
   115  C    0.096159
   116  C    0.131492
   117  C    0.042354
   118  O   -0.188009
   119  C    0.000927
   120  C    0.211218
   121  O   -0.251165
   122  O   -0.305537
   123  C    0.152089
   124  H   -0.019302
   125  H   -0.015544
   126  H   -0.040552
   127  H   -0.000561
   128  H   -0.004605
   129  H    0.022599
   130  H    0.015115
   131  H    0.016673
   132  H    0.013736
   133  H    0.037561
   134  H    0.020926
   135  H    0.019397
   136  H    0.008753
   137  H    0.026380
   138  H    0.039256
   139  H    0.038281
   140  H    0.036350
   141  H    0.033539
   142  H    0.014265
   143  H    0.012477
   144  H    0.025011
   145  H    0.012044
   146  H    0.005703
   147  H    0.006168
   148  H    0.003576
   149  H    0.010875
   150  H    0.017770
   151  H    0.030118
   152  H    0.045851
   153  H    0.008411
   154  H    0.047076
   155  H    0.035242
   156  H    0.043855
   157  H    0.049437
   158  H    0.053447
 Sum of Mulliken charges =  -0.00000

 Dipole moment (field-independent basis, Debye):
    X=              6.2480    Y=              0.8714    Z=              5.5421  Tot=              8.3971
 Quadrupole moment (field-independent basis, Debye-Ang):
   XX=           -558.3403   YY=           -510.1628   ZZ=           -481.4379
   XY=             15.1413   XZ=             24.5572   YZ=             58.5751

 Normal termination of Gaussian 16 at Sun Sep 12 06:54:48 2021.
