 Gaussian 16, Revision A.03,
 Gaussian 16:  ES64L-G16RevA.03 25-Dec-2016

 -----------------------------------
 #p cam-b3lyp/Def2SVP td=(nstates=5)
 -----------------------------------

 --------------------------------
 TDDFT excited states in gaussian
 --------------------------------
 Symbolic Z-matrix:
 Charge =  0 Multiplicity = 1

                         Standard orientation:
 ---------------------------------------------------------------------
 Center     Atomic      Atomic             Coordinates (Angstroms)
 Number     Number       Type             X           Y           Z
 ---------------------------------------------------------------------
      1         12           0        4.244684    1.203924    0.470327
      2          6           0        5.329044   -1.706818   -1.308425
      3          6           0        4.671956    2.952270   -2.428602
      4          6           0        3.730217    3.860424    2.124095
      5          6           0        4.988603   -0.500804    3.417554
      6          7           0        4.917985    0.588723   -1.546810
      7          6           0        5.246672   -0.568212   -2.113059
      8          6           0        5.422154   -0.472016   -3.658156
      9          6           0        5.750918    1.083489   -3.777803
     10          6           0        5.042168    1.578285   -2.529294
     11          6           0        7.237540    1.402993   -3.657911
     12          6           0        4.110598   -0.841355   -4.429610
     13          6           0        4.283422   -1.089173   -5.930967
     14          1           0        3.469145   -2.111736   -6.570238
     15          7           0        3.739350    3.014253   -0.138111
     16          6           0        3.977613    3.554773   -1.357273
     17          6           0        3.409703    4.919494   -1.316102
     18          6           0        2.990881    5.195940    0.086132
     19          6           0        3.500590    4.029535    0.760724
     20          6           0        3.265149    5.787473   -2.528318
     21          6           0        2.258203    6.336117    0.719624
     22          8           0        2.201652    6.487585    1.987864
     23          6           0        1.675636    7.332944   -0.196888
     24          7           0        4.547910    1.711495    2.472341
     25          6           0        4.185364    2.909860    2.942944
     26          6           0        4.234495    2.945579    4.441693
     27          6           0        4.474617    1.438676    4.912160
     28          6           0        4.610518    0.775423    3.519359
     29          6           0        5.312998    3.849566    5.054595
     30          6           0        3.454815    0.844366    5.915764
     31          6           0        2.106605    0.691947    5.247785
     32          7           0        4.852091   -0.810260    1.004337
     33          6           0        5.128135   -1.294397    2.291226
     34          6           0        5.604276   -2.681441    2.138032
     35          6           0        5.587785   -2.903740    0.762475
     36          6           0        5.155346   -1.721322    0.096761
     37          6           0        6.037768   -3.534797    3.190791
     38          6           0        5.858396   -3.857099   -0.301354
     39          8           0        6.158321   -5.051270   -0.340019
     40          6           0        5.818223   -3.081409   -1.691504
     41          6           0        4.973838   -3.889584   -2.638698
     42          8           0        3.749110   -4.029132   -2.443929
     43          8           0        5.685942   -4.169071   -3.741121
     44          6           0        4.896587   -4.944303   -4.735148
     45          1           0        4.992185    3.643853   -3.210336
     46          1           0        3.459067    4.719158    2.741746
     47          1           0        5.158731   -1.122712    4.298315
     48          1           0        6.248566   -1.059108   -4.059142
     49          1           0        5.304373    1.526530   -4.667766
     50          1           0        7.813627    0.520340   -3.380479
     51          1           0        7.309868    2.164454   -2.881098
     52          1           0        7.608210    1.870032   -4.570739
     53          1           0        3.454176    0.028288   -4.459472
     54          1           0        3.626066   -1.706103   -3.974895
     55          1           0        5.333504   -1.216351   -6.195660
     56          1           0        3.977027   -0.188632   -6.463270
     57          1           0        3.810797    5.381294   -3.379101
     58          1           0        3.767833    6.728911   -2.307608
     59          1           0        2.220409    5.977529   -2.774748
     60          1           0        2.467800    7.766570   -0.807620
     61          1           0        1.114655    8.025653    0.429453
     62          1           0        0.999642    6.826217   -0.886242
     63          1           0        3.292480    3.303151    4.855426
     64          1           0        5.438221    1.313156    5.406514
     65          1           0        4.916894    4.605875    5.732683
     66          1           0        5.870865    4.309081    4.239168
     67          1           0        6.103401    3.321487    5.587337
     68          1           0        3.319330    1.517195    6.761868
     69          1           0        3.754309   -0.127108    6.309200
     70          1           0        1.670994    1.685319    5.349206
     71          1           0        1.505445   -0.053145    5.769949
     72          1           0        2.211155    0.489283    4.181726
     73          1           0        5.599038   -4.512385    2.991273
     74          1           0        5.728091   -3.152642    4.163241
     75          1           0        7.117945   -3.494990    3.051186
     76          1           0        6.849386   -2.996478   -2.032989
     77          1           0        5.457928   -5.853109   -4.952407
     78          1           0        4.690587   -4.266559   -5.563780
     79          1           0        3.954458   -5.364086   -4.380870
     80         12           0       -4.394609   -1.328746    0.388594
     81          6           0       -4.979948    1.467427   -1.783463
     82          6           0       -4.162510    0.905062    2.955862
     83          6           0       -3.433407   -3.714660    2.246264
     84          6           0       -3.545564   -3.173508   -2.443659
     85          7           0       -4.567972    0.875365    0.452337
     86          6           0       -4.853013    1.825681   -0.425159
     87          6           0       -5.090248    3.227105    0.198772
     88          6           0       -4.254168    3.030853    1.555737
     89          6           0       -4.359387    1.513125    1.690314
     90          6           0       -2.785979    3.397357    1.416347
     91          6           0       -6.606866    3.501386    0.493121
     92          6           0       -6.946552    4.958800    0.812995
     93          1           0       -8.226127    5.492143    0.353972
     94          7           0       -4.353180   -1.479546    2.367014
     95          6           0       -4.280883   -0.469195    3.258767
     96          6           0       -4.258186   -1.104407    4.585472
     97          6           0       -4.156723   -2.577334    4.398651
     98          6           0       -3.951726   -2.647802    2.965786
     99          6           0       -4.409529   -0.328716    5.861729
    100          6           0       -4.219392   -3.730807    5.353509
    101          8           0       -3.869251   -4.913435    5.004752
    102          6           0       -4.613693   -3.417730    6.734814
    103          7           0       -3.402280   -3.112263   -0.007278
    104          6           0       -3.152328   -3.996869    0.974001
    105          6           0       -2.681248   -5.316778    0.411568
    106          6           0       -2.898834   -5.212303   -1.169356
    107          6           0       -3.396554   -3.753074   -1.260419
    108          6           0       -1.225605   -5.681954    0.701653
    109          6           0       -3.749840   -6.326611   -1.837789
    110          6           0       -5.186297   -6.224944   -1.377758
    111          7           0       -4.450182   -1.012429   -1.747962
    112          6           0       -4.023387   -1.906722   -2.754033
    113          6           0       -4.150831   -1.201629   -4.045946
    114          6           0       -4.624911    0.071926   -3.696965
    115          6           0       -4.762672    0.161439   -2.285404
    116          6           0       -3.800224   -1.730157   -5.320244
    117          6           0       -5.030052    1.364454   -4.200878
    118          8           0       -5.203854    1.844949   -5.320099
    119          6           0       -5.157712    2.367586   -2.974569
    120          6           0       -6.463541    3.101897   -3.109145
    121          8           0       -7.543747    2.492671   -3.016315
    122          8           0       -6.226494    4.426354   -3.107440
    123          6           0       -7.492442    5.197543   -3.227698
    124          1           0       -3.846085    1.532692    3.789429
    125          1           0       -3.190198   -4.604412    2.831656
    126          1           0       -3.393921   -3.712850   -3.381097
    127          1           0       -4.683794    4.053275   -0.372201
    128          1           0       -4.740702    3.522617    2.394077
    129          1           0       -2.521151    3.617720    0.392903
    130          1           0       -2.233165    2.538410    1.773654
    131          1           0       -2.536676    4.219243    2.093611
    132          1           0       -6.877012    3.031643    1.447644
    133          1           0       -7.220495    3.156603   -0.316334
    134          1           0       -6.128954    5.640261    0.548253
    135          1           0       -7.042147    5.063063    1.896513
    136          1           0       -4.299390    0.749549    5.692565
    137          1           0       -3.558273   -0.592049    6.498828
    138          1           0       -5.334399   -0.566085    6.391755
    139          1           0       -3.918746   -2.693690    7.153464
    140          1           0       -4.687714   -4.381103    7.243069
    141          1           0       -5.597586   -2.935798    6.717086
    142          1           0       -3.277692   -6.135493    0.795046
    143          1           0       -1.944999   -5.253657   -1.715548
    144          1           0       -1.114166   -6.653257    1.219560
    145          1           0       -0.784152   -4.886166    1.286790
    146          1           0       -0.575212   -5.715390   -0.170739
    147          1           0       -3.393763   -7.312232   -1.528089
    148          1           0       -3.721462   -6.299983   -2.921983
    149          1           0       -5.177033   -6.755136   -0.420728
    150          1           0       -5.851822   -6.708155   -2.090240
    151          1           0       -5.461847   -5.183508   -1.174994
    152          1           0       -4.594863   -1.454801   -6.000856
    153          1           0       -3.666280   -2.809147   -5.279974
    154          1           0       -2.857193   -1.205742   -5.496155
    155          1           0       -4.302278    3.043087   -3.013467
    156          1           0       -7.382514    5.859260   -4.092414
    157          1           0       -7.644819    5.677149   -2.242560
    158          1           0       -8.389444    4.650258   -3.492873
 ---------------------------------------------------------------------

 SCF Done:  E(RCAM-B3LYP) =  -4069.81235952     A.U. after   19 cycles

 Excitation energies and oscillator strengths:

 Excited State   1:      Singlet-A      1.6626 eV  745.74 nm  f=0.2005  <S**2>=0.000
     309 -> 315       -0.10292
     310 -> 316       -0.13615
     311 -> 313        0.41527
     312 -> 314        0.54684
 This state for optimization and/or second-order correction.
 Total Energy, E(TD-HF/TD-DFT) =  -4069.75126111
 Copying the excited state density for this state as the 1-particle RhoCI density.

 Excited State   2:      Singlet-A      1.6838 eV  736.32 nm  f=0.4764  <S**2>=0.000
     309 -> 315       -0.14018
     310 -> 316        0.10596
     311 -> 313        0.54550
     312 -> 314       -0.41431

 Excited State   3:      Singlet-A      2.1822 eV  568.15 nm  f=0.0757  <S**2>=0.000
     309 -> 313        0.23070
     310 -> 314        0.60113
     312 -> 316        0.25167

 Excited State   4:      Singlet-A      2.1931 eV  565.35 nm  f=0.1174  <S**2>=0.000
     309 -> 313        0.59774
     310 -> 314       -0.22862
     311 -> 315        0.26003
     312 -> 316       -0.10041

 Excited State   5:      Singlet-A      2.3447 eV  528.77 nm  f=0.0000  <S**2>=0.000
     312 -> 313        0.70707

 The electronic state is 1-A.
 Alpha  occ. eigenvalues --  -46.87917 -46.87441 -19.26424 -19.26300 -19.19176
 Alpha  occ. eigenvalues --  -19.19085 -19.18994 -19.18539 -19.18291 -19.17931
 Alpha  occ. eigenvalues --  -14.42561 -14.42283 -14.41578 -14.41106 -14.39527
 Alpha  occ. eigenvalues --  -14.39142 -14.38705 -14.38394 -10.39230 -10.39011
 Alpha  occ. eigenvalues --  -10.35627 -10.35219 -10.34510 -10.34110 -10.31818
 Alpha  occ. eigenvalues --  -10.31731 -10.31505 -10.31111 -10.31021 -10.30829
 Alpha  occ. eigenvalues --  -10.30680 -10.30640 -10.30343 -10.30188 -10.30169
 Alpha  occ. eigenvalues --  -10.30059 -10.29861 -10.29755 -10.29625 -10.29376
 Alpha  occ. eigenvalues --  -10.29216 -10.29215 -10.28830 -10.28581 -10.28558
 Alpha  occ. eigenvalues --  -10.28547 -10.28484 -10.28215 -10.28190 -10.27939
 Alpha  occ. eigenvalues --  -10.27910 -10.27832 -10.27816 -10.27711 -10.27666
 Alpha  occ. eigenvalues --  -10.27624 -10.27558 -10.27524 -10.27454 -10.27318
 Alpha  occ. eigenvalues --  -10.27285 -10.27282 -10.27282 -10.27109 -10.26948
 Alpha  occ. eigenvalues --  -10.26942 -10.26769 -10.26590 -10.26558 -10.26382
 Alpha  occ. eigenvalues --  -10.26301 -10.26281 -10.26142 -10.25931 -10.25805
 Alpha  occ. eigenvalues --  -10.25776 -10.25714 -10.25683 -10.25598 -10.24950
 Alpha  occ. eigenvalues --  -10.24927 -10.24926 -10.24746 -10.24696 -10.24453
 Alpha  occ. eigenvalues --  -10.24446  -3.16659  -3.16191  -1.91541  -1.91128
 Alpha  occ. eigenvalues --   -1.91073  -1.90970  -1.90661  -1.90499  -1.16775
 Alpha  occ. eigenvalues --   -1.16587  -1.08750  -1.08550  -1.07401  -1.06871
 Alpha  occ. eigenvalues --   -1.06795  -1.06791  -1.04693  -1.04290  -1.03887
 Alpha  occ. eigenvalues --   -1.03442  -1.03358  -1.02802  -1.02535  -1.01886
 Alpha  occ. eigenvalues --   -0.92092  -0.91808  -0.89672  -0.89270  -0.89228
 Alpha  occ. eigenvalues --   -0.88957  -0.88441  -0.87977  -0.87895  -0.87781
 Alpha  occ. eigenvalues --   -0.87618  -0.87458  -0.87401  -0.86947  -0.85080
 Alpha  occ. eigenvalues --   -0.84808  -0.84102  -0.83559  -0.83123  -0.82766
 Alpha  occ. eigenvalues --   -0.82726  -0.82460  -0.81711  -0.81457  -0.80722
 Alpha  occ. eigenvalues --   -0.80274  -0.78913  -0.78454  -0.77342  -0.77044
 Alpha  occ. eigenvalues --   -0.76944  -0.76684  -0.76030  -0.75663  -0.75042
 Alpha  occ. eigenvalues --   -0.74454  -0.72893  -0.72488  -0.71792  -0.71319
 Alpha  occ. eigenvalues --   -0.70082  -0.69428  -0.68979  -0.68641  -0.67770
 Alpha  occ. eigenvalues --   -0.67399  -0.67318  -0.67041  -0.65388  -0.65098
 Alpha  occ. eigenvalues --   -0.64980  -0.64748  -0.64572  -0.64461  -0.64416
 Alpha  occ. eigenvalues --   -0.63912  -0.62434  -0.62128  -0.60577  -0.60124
 Alpha  occ. eigenvalues --   -0.59899  -0.59610  -0.59113  -0.58770  -0.58631
 Alpha  occ. eigenvalues --   -0.58222  -0.57712  -0.57452  -0.57430  -0.57000
 Alpha  occ. eigenvalues --   -0.56426  -0.56104  -0.56031  -0.55755  -0.55650
 Alpha  occ. eigenvalues --   -0.55493  -0.55304  -0.54999  -0.54676  -0.54237
 Alpha  occ. eigenvalues --   -0.53983  -0.53724  -0.53433  -0.53339  -0.53050
 Alpha  occ. eigenvalues --   -0.53030  -0.52964  -0.52879  -0.52732  -0.52620
 Alpha  occ. eigenvalues --   -0.52505  -0.52108  -0.52020  -0.51729  -0.51718
 Alpha  occ. eigenvalues --   -0.51501  -0.51322  -0.51018  -0.50703  -0.50298
 Alpha  occ. eigenvalues --   -0.50184  -0.50049  -0.49786  -0.49632  -0.49536
 Alpha  occ. eigenvalues --   -0.49335  -0.49311  -0.49192  -0.49040  -0.48926
 Alpha  occ. eigenvalues --   -0.48711  -0.48613  -0.48587  -0.48396  -0.48179
 Alpha  occ. eigenvalues --   -0.48045  -0.47818  -0.47420  -0.47390  -0.46922
 Alpha  occ. eigenvalues --   -0.46885  -0.46651  -0.46486  -0.46483  -0.46346
 Alpha  occ. eigenvalues --   -0.46293  -0.46060  -0.45935  -0.45830  -0.45651
 Alpha  occ. eigenvalues --   -0.45351  -0.44852  -0.44700  -0.44638  -0.44340
 Alpha  occ. eigenvalues --   -0.44288  -0.44276  -0.44189  -0.44143  -0.43949
 Alpha  occ. eigenvalues --   -0.43843  -0.43785  -0.43622  -0.43502  -0.43405
 Alpha  occ. eigenvalues --   -0.43162  -0.43150  -0.42852  -0.42818  -0.42813
 Alpha  occ. eigenvalues --   -0.42678  -0.42270  -0.42153  -0.41830  -0.41730
 Alpha  occ. eigenvalues --   -0.41632  -0.41469  -0.41258  -0.41251  -0.40994
 Alpha  occ. eigenvalues --   -0.40972  -0.40748  -0.40713  -0.40549  -0.40494
 Alpha  occ. eigenvalues --   -0.40313  -0.40178  -0.40078  -0.39628  -0.39104
 Alpha  occ. eigenvalues --   -0.38614  -0.38027  -0.37838  -0.37481  -0.37460
 Alpha  occ. eigenvalues --   -0.37362  -0.37035  -0.36971  -0.36860  -0.36644
 Alpha  occ. eigenvalues --   -0.36331  -0.35952  -0.34406  -0.34039  -0.33923
 Alpha  occ. eigenvalues --   -0.33758  -0.33312  -0.32958  -0.31523  -0.31162
 Alpha  occ. eigenvalues --   -0.31092  -0.30757  -0.30149  -0.29840  -0.29578
 Alpha  occ. eigenvalues --   -0.29440  -0.29144  -0.29033  -0.24201  -0.23818
 Alpha  occ. eigenvalues --   -0.21247  -0.20897
 Alpha virt. eigenvalues --   -0.08897  -0.08592  -0.01880  -0.01450  -0.00194
 Alpha virt. eigenvalues --    0.00148   0.02071   0.02374   0.02829   0.03495
 Alpha virt. eigenvalues --    0.04614   0.04950   0.04955   0.05253   0.06096

 Mulliken charges:
               1
     1  Mg   0.838888
     2  C   -0.003002
     3  C   -0.093150
     4  C   -0.046709
     5  C   -0.063758
     6  N   -0.256808
     7  C   -0.052124
     8  C   -0.014172
     9  C   -0.087119
    10  C    0.046295
    11  C    0.104690
    12  C    0.053241
    13  C   -0.072049
    14  H    0.035847
    15  N   -0.433110
    16  C    0.168304
    17  C   -0.176725
    18  C   -0.004545
    19  C    0.148590
    20  C    0.109915
    21  C    0.011074
    22  O   -0.251039
    23  C    0.062715
    24  N   -0.341058
    25  C    0.041392
    26  C   -0.027999
    27  C   -0.023888
    28  C    0.074572
    29  C    0.076174
    30  C    0.035236
    31  C   -0.004317
    32  N   -0.310524
    33  C    0.080556
    34  C   -0.169340
    35  C    0.008316
    36  C    0.082984
    37  C    0.127331
    38  C    0.045856
    39  O   -0.188336
    40  C   -0.005320
    41  C    0.213189
    42  O   -0.258389
    43  O   -0.304372
    44  C    0.157990
    45  H   -0.016999
    46  H   -0.017664
    47  H   -0.041284
    48  H    0.001041
    49  H   -0.003192
    50  H    0.025459
    51  H    0.016371
    52  H    0.017173
    53  H    0.012162
    54  H    0.043378
    55  H    0.017956
    56  H    0.019141
    57  H    0.006777
    58  H    0.026893
    59  H    0.040388
    60  H    0.038384
    61  H    0.034586
    62  H    0.031327
    63  H    0.015002
    64  H    0.009826
    65  H    0.022697
    66  H    0.012982
    67  H    0.005081
    68  H    0.005616
    69  H    0.005653
    70  H    0.005954
    71  H    0.018127
    72  H    0.030195
    73  H    0.047920
    74  H    0.009431
    75  H    0.046149
    76  H    0.035554
    77  H    0.043268
    78  H    0.046974
    79  H    0.052331
    80  Mg   0.837751
    81  C   -0.017474
    82  C   -0.088419
    83  C   -0.045339
    84  C   -0.062610
    85  N   -0.254770
    86  C   -0.050094
    87  C   -0.014953
    88  C   -0.090375
    89  C    0.045713
    90  C    0.114234
    91  C    0.062587
    92  C   -0.077535
    93  H    0.034000
    94  N   -0.423551
    95  C    0.163259
    96  C   -0.174977
    97  C   -0.007862
    98  C    0.152347
    99  C    0.099637
   100  C    0.015158
   101  O   -0.252653
   102  C    0.061380
   103  N   -0.350142
   104  C    0.038986
   105  C   -0.021012
   106  C   -0.034938
   107  C    0.089319
   108  C    0.071027
   109  C    0.034492
   110  C   -0.007436
   111  N   -0.323959
   112  C    0.078125
   113  C   -0.163315
   114  C    0.001384
   115  C    0.096396
   116  C    0.131865
   117  C    0.041469
   118  O   -0.189808
   119  C    0.001315
   120  C    0.211214
   121  O   -0.250885
   122  O   -0.306177
   123  C    0.152134
   124  H   -0.019390
   125  H   -0.014876
   126  H   -0.040210
   127  H   -0.002145
   128  H   -0.004429
   129  H    0.019985
   130  H    0.014913
   131  H    0.020050
   132  H    0.013989
   133  H    0.037311
   134  H    0.020386
   135  H    0.019852
   136  H    0.008867
   137  H    0.025133
   138  H    0.039382
   139  H    0.037466
   140  H    0.036124
   141  H    0.033735
   142  H    0.013288
   143  H    0.017188
   144  H    0.024115
   145  H    0.012998
   146  H    0.015368
   147  H    0.006896
   148  H    0.002849
   149  H    0.010777
   150  H    0.016844
   151  H    0.029311
   152  H    0.045048
   153  H    0.008802
   154  H    0.045804
   155  H    0.032924
   156  H    0.042957
   157  H    0.049635
   158  H    0.053589
 Sum of Mulliken charges =  -0.00000

 Dipole moment (field-independent basis, Debye):
    X=              2.9442    Y=              4.9926    Z=              1.2368  Tot=              5.9265
 Quadrupole moment (field-independent basis, Debye-Ang):
   XX=           -522.9575   YY=           -516.7766   ZZ=           -480.2267
   XY=              9.1743   XZ=            -38.8560   YZ=             13.0667

 Normal termination of Gaussian 16 at Thu Sep  9 21:31:57 2021.
