 Gaussian 16, Revision A.03,
 Gaussian 16:  ES64L-G16RevA.03 25-Dec-2016

 -----------------------------------
 #p cam-b3lyp/Def2SVP td=(nstates=5)
 -----------------------------------

 --------------------------------
 TDDFT excited states in gaussian
 --------------------------------
 Symbolic Z-matrix:
 Charge =  0 Multiplicity = 1

                         Standard orientation:
 ---------------------------------------------------------------------
 Center     Atomic      Atomic             Coordinates (Angstroms)
 Number     Number       Type             X           Y           Z
 ---------------------------------------------------------------------
      1         12           0       16.121158    0.523662    0.358092
      2          6           0       16.317632   -2.749575   -1.077014
      3          6           0       17.019096    1.754087   -2.695238
      4          6           0       16.397201    3.378606    1.710763
      5          6           0       16.357944   -0.994396    3.486205
      6          7           0       16.580971   -0.471884   -1.564953
      7          6           0       16.561662   -1.728515   -1.998171
      8          6           0       16.750599   -1.853583   -3.539610
      9          6           0       17.511029   -0.479046   -3.812361
     10          6           0       16.979371    0.329095   -2.641818
     11          6           0       19.027352   -0.586296   -3.686805
     12          6           0       15.384852   -1.914018   -4.303033
     13          6           0       15.472799   -2.361215   -5.765099
     14          1           0       14.396733   -3.171436   -6.315528
     15          7           0       16.153443    2.326309   -0.449542
     16          6           0       16.531347    2.641583   -1.711714
     17          6           0       16.378760    4.107778   -1.828627
     18          6           0       16.062921    4.641783   -0.474678
     19          6           0       16.219743    3.458225    0.331533
     20          6           0       16.483844    4.844933   -3.128361
     21          6           0       15.690695    6.005046    0.016337
     22          8           0       15.685494    6.302161    1.259828
     23          6           0       15.414396    7.021836   -1.014604
     24          7           0       16.565935    1.136282    2.303473
     25          6           0       16.564268    2.431721    2.636367
     26          6           0       16.628131    2.613287    4.123947
     27          6           0       16.428167    1.160437    4.755606
     28          6           0       16.362102    0.339868    3.443900
     29          6           0       17.923214    3.232308    4.667624
     30          6           0       15.285181    0.993832    5.788197
     31          6           0       13.946966    1.161590    5.103991
     32          7           0       16.127884   -1.510280    1.115772
     33          6           0       16.259151   -1.911395    2.453139
     34          6           0       16.316932   -3.384725    2.458561
     35          6           0       16.231381   -3.740008    1.113831
     36          6           0       16.153215   -2.562304    0.316839
     37          6           0       16.492149   -4.207639    3.605969
     38          6           0       16.212628   -4.839837    0.163104
     39          8           0       16.157395   -6.066837    0.257512
     40          6           0       16.390469   -4.239551   -1.301087
     41          6           0       15.345682   -4.870213   -2.180858
     42          8           0       14.133228   -4.632441   -2.005396
     43          8           0       15.942925   -5.458526   -3.228584
     44          6           0       14.960099   -6.078575   -4.156886
     45          1           0       17.520749    2.236973   -3.536134
     46          1           0       16.386356    4.340375    2.227793
     47          1           0       16.346464   -1.540254    4.431383
     48          1           0       17.372221   -2.691842   -3.854783
     49          1           0       17.206373   -0.025596   -4.755383
     50          1           0       19.327383   -1.561407   -3.303321
     51          1           0       19.318365    0.201937   -2.992187
     52          1           0       19.512373   -0.345775   -4.633210
     53          1           0       15.005212   -0.901670   -4.441181
     54          1           0       14.674717   -2.550156   -3.773541
     55          1           0       16.441160   -2.810664   -5.986866
     56          1           0       15.435147   -1.473544   -6.396622
     57          1           0       16.886396    4.210625   -3.917126
     58          1           0       17.236312    5.621736   -2.993903
     59          1           0       15.536393    5.297632   -3.421162
     60          1           0       16.294952    7.142768   -1.645909
     61          1           0       15.078327    7.909186   -0.479331
     62          1           0       14.618487    6.657963   -1.665046
     63          1           0       15.830009    3.267354    4.472693
     64          1           0       17.317476    0.819087    5.285968
     65          1           0       17.763559    4.138730    5.252102
     66          1           0       18.585839    3.422719    3.823845
     67          1           0       18.531342    2.561193    5.273596
     68          1           0       15.351999    1.764462    6.555408
     69          1           0       15.295276    0.025612    6.288895
     70          1           0       13.814913    2.242875    5.089331
     71          1           0       13.159703    0.679969    5.684912
     72          1           0       13.984356    0.823814    4.068136
     73          1           0       15.790677   -5.034842    3.498069
     74          1           0       16.309301   -3.650462    4.524513
     75          1           0       17.537766   -4.493176    3.491909
     76          1           0       17.401185   -4.489888   -1.621876
     77          1           0       15.236342   -7.127714   -4.262866
     78          1           0       14.953449   -5.463683   -5.057035
     79          1           0       13.938723   -6.171157   -3.785995
     80         12           0      -15.637579    0.666459    0.180001
     81          6           0      -17.979481   -2.050977    0.079574
     82          6           0      -17.511641    2.174404   -2.238372
     83          6           0      -13.358950    2.859230   -0.078956
     84          6           0      -13.386176   -1.512937    1.705499
     85          7           0      -17.485387    0.043107   -0.863681
     86          6           0      -18.319788   -0.981710   -0.775005
     87          6           0      -19.630009   -0.816812   -1.590904
     88          6           0      -19.102256    0.235383   -2.683247
     89          6           0      -17.984212    0.888529   -1.873270
     90          6           0      -18.484346   -0.424271   -3.904873
     91          6           0      -20.797518   -0.216040   -0.731822
     92          6           0      -22.183830   -0.314762   -1.372237
     93          1           0      -23.336204   -0.545003   -0.505350
     94          7           0      -15.690700    2.486836   -0.608653
     95          6           0      -16.531375    2.935373   -1.564350
     96          6           0      -16.149419    4.334311   -1.811880
     97          6           0      -14.908975    4.624991   -1.042768
     98          6           0      -14.586090    3.299979   -0.552689
     99          6           0      -16.979549    5.269750   -2.642102
    100          6           0      -14.133678    5.884504   -0.800411
    101          8           0      -12.954554    5.863315   -0.298359
    102          6           0      -14.757627    7.136002   -1.254226
    103          7           0      -13.590009    0.621153    0.537440
    104          6           0      -12.839027    1.727571    0.396797
    105          6           0      -11.456965    1.525350    0.970719
    106          6           0      -11.514045    0.127883    1.746231
    107          6           0      -12.956966   -0.297167    1.395905
    108          6           0      -10.313156    1.498253   -0.042873
    109          6           0      -11.087227    0.133849    3.239698
    110          6           0      -12.086529    0.918467    4.058940
    111          7           0      -15.707672   -1.347186    0.959988
    112          6           0      -14.643554   -2.077436    1.533123
    113          6           0      -15.147708   -3.438703    1.807404
    114          6           0      -16.473838   -3.412576    1.350027
    115          6           0      -16.768723   -2.131964    0.809129
    116          6           0      -14.391287   -4.510216    2.360406
    117          6           0      -17.688015   -4.180369    1.192111
    118          8           0      -18.060652   -5.298704    1.544544
    119          6           0      -18.677907   -3.371856    0.247230
    120          6           0      -20.036862   -3.368971    0.892028
    121          8           0      -20.223042   -2.780002    1.971408
    122          8           0      -20.936091   -3.872448    0.027003
    123          6           0      -22.301263   -3.880083    0.616980
    124          1           0      -17.896632    2.628566   -3.151828
    125          1           0      -12.568594    3.612639   -0.044567
    126          1           0      -12.775773   -2.221490    2.269462
    127          1           0      -19.976714   -1.718859   -2.080685
    128          1           0      -19.868929    0.964573   -2.931947
    129          1           0      -18.394925   -1.493567   -3.783416
    130          1           0      -17.507272    0.026435   -4.019971
    131          1           0      -19.047581   -0.156322   -4.803376
    132          1           0      -20.686873    0.875196   -0.690599
    133          1           0      -20.818418   -0.658540    0.245105
    134          1           0      -22.197092   -1.008662   -2.221514
    135          1           0      -22.432023    0.653615   -1.813451
    136          1           0      -17.745019    4.729528   -3.212720
    137          1           0      -16.318015    5.691450   -3.406570
    138          1           0      -17.407732    6.085794   -2.056093
    139          1           0      -14.947071    7.078075   -2.323437
    140          1           0      -14.094474    7.933484   -0.913458
    141          1           0      -15.733680    7.237150   -0.766695
    142          1           0      -11.212960    2.309449    1.676945
    143          1           0      -10.847112   -0.618605    1.290403
    144          1           0       -9.531951    2.254911    0.160249
    145          1           0      -10.729827    1.637826   -1.031536
    146          1           0       -9.804459    0.540619   -0.139637
    147          1           0      -10.125263    0.638926    3.356636
    148          1           0      -10.982932   -0.859564    3.663089
    149          1           0      -11.758642    1.953413    3.923062
    150          1           0      -12.039621    0.623719    5.105351
    151          1           0      -13.094556    0.833903    3.636589
    152          1           0      -15.023535   -4.991013    3.094987
    153          1           0      -13.464007   -4.154480    2.804676
    154          1           0      -14.213432   -5.107382    1.462061
    155          1           0      -18.685964   -3.870978   -0.722508
    156          1           0      -22.669481   -4.908916    0.556981
    157          1           0      -22.869811   -3.108579    0.064454
    158          1           0      -22.389181   -3.685596    1.679467
 ---------------------------------------------------------------------

 SCF Done:  E(RCAM-B3LYP) =  -4069.81176007     A.U. after   19 cycles

 Excitation energies and oscillator strengths:

 Excited State   1:      Singlet-A      1.6753 eV  740.08 nm  f=0.2131  <S**2>=0.000
     310 -> 316        0.16865
     311 -> 313        0.66672
     312 -> 314       -0.16175
     310 <- 316        0.10168
 This state for optimization and/or second-order correction.
 Total Energy, E(TD-HF/TD-DFT) =  -4069.75019450
 Copying the excited state density for this state as the 1-particle RhoCI density.

 Excited State   2:      Singlet-A      1.6801 eV  737.94 nm  f=0.5643  <S**2>=0.000
     309 -> 315        0.17067
     311 -> 313        0.16170
     312 -> 314        0.66635
     309 <- 315        0.10218

 Excited State   3:      Singlet-A      2.1861 eV  567.15 nm  f=0.1019  <S**2>=0.000
     310 -> 313        0.64242
     311 -> 316       -0.27310

 Excited State   4:      Singlet-A      2.1925 eV  565.48 nm  f=0.0995  <S**2>=0.000
     309 -> 314        0.64064
     312 -> 315       -0.27828

 Excited State   5:      Singlet-A      3.0628 eV  404.81 nm  f=0.0000  <S**2>=0.000
     312 -> 313        0.70710

 The electronic state is 1-A.
 Alpha  occ. eigenvalues --  -46.87778 -46.87660 -19.26350 -19.26267 -19.19161
 Alpha  occ. eigenvalues --  -19.19002 -19.18796 -19.18714 -19.18152 -19.18051
 Alpha  occ. eigenvalues --  -14.42497 -14.42432 -14.41431 -14.41358 -14.39385
 Alpha  occ. eigenvalues --  -14.39352 -14.38599 -14.38569 -10.39091 -10.39062
 Alpha  occ. eigenvalues --  -10.35430 -10.35392 -10.34372 -10.34228 -10.31757
 Alpha  occ. eigenvalues --  -10.31662 -10.31387 -10.31309 -10.31024 -10.30891
 Alpha  occ. eigenvalues --  -10.30552 -10.30489 -10.30397 -10.30360 -10.30189
 Alpha  occ. eigenvalues --  -10.30139 -10.29903 -10.29892 -10.29613 -10.29436
 Alpha  occ. eigenvalues --  -10.29400 -10.29236 -10.28731 -10.28721 -10.28656
 Alpha  occ. eigenvalues --  -10.28521 -10.28405 -10.28347 -10.28142 -10.28099
 Alpha  occ. eigenvalues --  -10.28001 -10.27775 -10.27709 -10.27669 -10.27566
 Alpha  occ. eigenvalues --  -10.27512 -10.27483 -10.27483 -10.27469 -10.27465
 Alpha  occ. eigenvalues --  -10.27463 -10.27431 -10.27385 -10.27371 -10.27141
 Alpha  occ. eigenvalues --  -10.27051 -10.26694 -10.26687 -10.26416 -10.26391
 Alpha  occ. eigenvalues --  -10.26217 -10.26165 -10.26129 -10.26028 -10.26001
 Alpha  occ. eigenvalues --  -10.25932 -10.25847 -10.25826 -10.25418 -10.25392
 Alpha  occ. eigenvalues --  -10.24872 -10.24815 -10.24770 -10.24724 -10.24689
 Alpha  occ. eigenvalues --  -10.24668  -3.16521  -3.16410  -1.91403  -1.91292
 Alpha  occ. eigenvalues --   -1.90989  -1.90881  -1.90832  -1.90718  -1.16644
 Alpha  occ. eigenvalues --   -1.16615  -1.08658  -1.08610  -1.07197  -1.06966
 Alpha  occ. eigenvalues --   -1.06946  -1.06625  -1.04563  -1.04495  -1.03742
 Alpha  occ. eigenvalues --   -1.03663  -1.03216  -1.03038  -1.02393  -1.02111
 Alpha  occ. eigenvalues --   -0.91987  -0.91954  -0.89501  -0.89492  -0.89170
 Alpha  occ. eigenvalues --   -0.89152  -0.88269  -0.88217  -0.87852  -0.87792
 Alpha  occ. eigenvalues --   -0.87684  -0.87655  -0.87255  -0.87120  -0.85000
 Alpha  occ. eigenvalues --   -0.84964  -0.83918  -0.83872  -0.82949  -0.82931
 Alpha  occ. eigenvalues --   -0.82653  -0.82631  -0.81596  -0.81568  -0.80578
 Alpha  occ. eigenvalues --   -0.80443  -0.78779  -0.78635  -0.77200  -0.77144
 Alpha  occ. eigenvalues --   -0.76917  -0.76898  -0.75906  -0.75839  -0.74880
 Alpha  occ. eigenvalues --   -0.74800  -0.72756  -0.72698  -0.71654  -0.71580
 Alpha  occ. eigenvalues --   -0.69889  -0.69753  -0.68855  -0.68828  -0.67623
 Alpha  occ. eigenvalues --   -0.67601  -0.67202  -0.67201  -0.65272  -0.65269
 Alpha  occ. eigenvalues --   -0.64836  -0.64769  -0.64653  -0.64603  -0.64251
 Alpha  occ. eigenvalues --   -0.64201  -0.62280  -0.62278  -0.60424  -0.60339
 Alpha  occ. eigenvalues --   -0.59797  -0.59786  -0.58992  -0.58969  -0.58486
 Alpha  occ. eigenvalues --   -0.58425  -0.57567  -0.57554  -0.57291  -0.57235
 Alpha  occ. eigenvalues --   -0.56292  -0.56204  -0.55961  -0.55887  -0.55502
 Alpha  occ. eigenvalues --   -0.55452  -0.55321  -0.55245  -0.54506  -0.54486
 Alpha  occ. eigenvalues --   -0.53914  -0.53877  -0.53281  -0.53227  -0.53204
 Alpha  occ. eigenvalues --   -0.53142  -0.52902  -0.52897  -0.52738  -0.52669
 Alpha  occ. eigenvalues --   -0.52420  -0.52396  -0.51897  -0.51883  -0.51660
 Alpha  occ. eigenvalues --   -0.51599  -0.51200  -0.51178  -0.50554  -0.50476
 Alpha  occ. eigenvalues --   -0.50013  -0.49980  -0.49900  -0.49864  -0.49497
 Alpha  occ. eigenvalues --   -0.49488  -0.49203  -0.49197  -0.49105  -0.49078
 Alpha  occ. eigenvalues --   -0.48575  -0.48559  -0.48443  -0.48427  -0.48373
 Alpha  occ. eigenvalues --   -0.48339  -0.47677  -0.47594  -0.47279  -0.47118
 Alpha  occ. eigenvalues --   -0.46779  -0.46708  -0.46555  -0.46537  -0.46341
 Alpha  occ. eigenvalues --   -0.46269  -0.46145  -0.46084  -0.45821  -0.45804
 Alpha  occ. eigenvalues --   -0.45206  -0.45183  -0.44560  -0.44514  -0.44489
 Alpha  occ. eigenvalues --   -0.44476  -0.44127  -0.44126  -0.44076  -0.44070
 Alpha  occ. eigenvalues --   -0.44001  -0.43939  -0.43553  -0.43477  -0.43385
 Alpha  occ. eigenvalues --   -0.43368  -0.43009  -0.42930  -0.42900  -0.42681
 Alpha  occ. eigenvalues --   -0.42637  -0.42550  -0.41991  -0.41962  -0.41686
 Alpha  occ. eigenvalues --   -0.41669  -0.41516  -0.41459  -0.41123  -0.40989
 Alpha  occ. eigenvalues --   -0.40851  -0.40805  -0.40723  -0.40698  -0.40553
 Alpha  occ. eigenvalues --   -0.40490  -0.40228  -0.40216  -0.39422  -0.39420
 Alpha  occ. eigenvalues --   -0.38451  -0.38347  -0.37730  -0.37655  -0.37302
 Alpha  occ. eigenvalues --   -0.37264  -0.37246  -0.37200  -0.36771  -0.36695
 Alpha  occ. eigenvalues --   -0.36216  -0.36175  -0.34268  -0.34253  -0.33862
 Alpha  occ. eigenvalues --   -0.33753  -0.33175  -0.33168  -0.31326  -0.31273
 Alpha  occ. eigenvalues --   -0.31017  -0.30972  -0.30011  -0.29955  -0.29431
 Alpha  occ. eigenvalues --   -0.29327  -0.29304  -0.29211  -0.24062  -0.24036
 Alpha  occ. eigenvalues --   -0.21116  -0.21110
 Alpha virt. eigenvalues --   -0.08791  -0.08756  -0.01732  -0.01683  -0.00040
 Alpha virt. eigenvalues --   -0.00029   0.02208   0.02218   0.03141   0.03229
 Alpha virt. eigenvalues --    0.04729   0.04736   0.05116   0.05165   0.06181

 Mulliken charges:
               1
     1  Mg   0.838764
     2  C   -0.002953
     3  C   -0.094111
     4  C   -0.045885
     5  C   -0.063983
     6  N   -0.256781
     7  C   -0.052484
     8  C   -0.013998
     9  C   -0.087010
    10  C    0.046320
    11  C    0.104816
    12  C    0.053462
    13  C   -0.071808
    14  H    0.036135
    15  N   -0.433154
    16  C    0.168425
    17  C   -0.177154
    18  C   -0.003996
    19  C    0.148730
    20  C    0.110184
    21  C    0.012294
    22  O   -0.249614
    23  C    0.062470
    24  N   -0.341159
    25  C    0.041263
    26  C   -0.028182
    27  C   -0.023988
    28  C    0.074881
    29  C    0.076180
    30  C    0.035127
    31  C   -0.004503
    32  N   -0.310458
    33  C    0.080414
    34  C   -0.169719
    35  C    0.008346
    36  C    0.082982
    37  C    0.127313
    38  C    0.046127
    39  O   -0.188451
    40  C   -0.005334
    41  C    0.212868
    42  O   -0.257097
    43  O   -0.304798
    44  C    0.157685
    45  H   -0.017610
    46  H   -0.016833
    47  H   -0.041494
    48  H    0.000926
    49  H   -0.004033
    50  H    0.025468
    51  H    0.016443
    52  H    0.016648
    53  H    0.011218
    54  H    0.044124
    55  H    0.017860
    56  H    0.017954
    57  H    0.005868
    58  H    0.026816
    59  H    0.039573
    60  H    0.037333
    61  H    0.035668
    62  H    0.031524
    63  H    0.016567
    64  H    0.009452
    65  H    0.023215
    66  H    0.012535
    67  H    0.004744
    68  H    0.006368
    69  H    0.004726
    70  H    0.008792
    71  H    0.018149
    72  H    0.028983
    73  H    0.047567
    74  H    0.009112
    75  H    0.045997
    76  H    0.035138
    77  H    0.042940
    78  H    0.046403
    79  H    0.053693
    80  Mg   0.837877
    81  C   -0.016837
    82  C   -0.087816
    83  C   -0.045517
    84  C   -0.064875
    85  N   -0.254571
    86  C   -0.049846
    87  C   -0.015086
    88  C   -0.090509
    89  C    0.045768
    90  C    0.114379
    91  C    0.062535
    92  C   -0.077904
    93  H    0.034908
    94  N   -0.423487
    95  C    0.162935
    96  C   -0.174653
    97  C   -0.007794
    98  C    0.152101
    99  C    0.099378
   100  C    0.015563
   101  O   -0.253162
   102  C    0.061202
   103  N   -0.350094
   104  C    0.037540
   105  C   -0.019849
   106  C   -0.034838
   107  C    0.088943
   108  C    0.073633
   109  C    0.034717
   110  C   -0.007694
   111  N   -0.324118
   112  C    0.078443
   113  C   -0.163101
   114  C    0.002253
   115  C    0.096206
   116  C    0.131481
   117  C    0.042391
   118  O   -0.187857
   119  C    0.000910
   120  C    0.211271
   121  O   -0.251011
   122  O   -0.305643
   123  C    0.152035
   124  H   -0.019688
   125  H   -0.015546
   126  H   -0.040368
   127  H   -0.000657
   128  H   -0.004336
   129  H    0.022457
   130  H    0.014426
   131  H    0.016263
   132  H    0.013920
   133  H    0.037686
   134  H    0.020779
   135  H    0.019587
   136  H    0.008746
   137  H    0.026121
   138  H    0.039792
   139  H    0.038229
   140  H    0.036400
   141  H    0.033896
   142  H    0.014427
   143  H    0.012494
   144  H    0.025193
   145  H    0.011595
   146  H    0.005755
   147  H    0.006354
   148  H    0.003719
   149  H    0.010937
   150  H    0.017982
   151  H    0.030044
   152  H    0.046032
   153  H    0.008585
   154  H    0.046971
   155  H    0.035018
   156  H    0.043914
   157  H    0.049481
   158  H    0.053588
 Sum of Mulliken charges =  -0.00000

 Dipole moment (field-independent basis, Debye):
    X=              1.2837    Y=              5.4259    Z=             -6.5175  Tot=              8.5771
 Quadrupole moment (field-independent basis, Debye-Ang):
   XX=           -402.5816   YY=           -558.1870   ZZ=           -464.6758
   XY=            -17.7650   XZ=             31.2111   YZ=             -7.9395

 Normal termination of Gaussian 16 at Sun Sep 12 21:40:29 2021.
