 Gaussian 16, Revision A.03,
 Gaussian 16:  ES64L-G16RevA.03 25-Dec-2016

 -----------------------------------
 #p cam-b3lyp/Def2SVP td=(nstates=5)
 -----------------------------------

 --------------------------------
 TDDFT excited states in gaussian
 --------------------------------
 Symbolic Z-matrix:
 Charge =  0 Multiplicity = 1

                         Standard orientation:
 ---------------------------------------------------------------------
 Center     Atomic      Atomic             Coordinates (Angstroms)
 Number     Number       Type             X           Y           Z
 ---------------------------------------------------------------------
      1         12           0        4.615905    0.397160    1.134674
      2          6           0        5.209284   -2.578012   -0.764923
      3          6           0        6.122181    2.130562   -1.389117
      4          6           0        4.512939    2.969540    2.986397
      5          6           0        4.208392   -1.645172    3.929038
      6          7           0        5.509925   -0.253236   -0.783232
      7          6           0        5.619696   -1.414887   -1.420168
      8          6           0        6.142611   -1.271620   -2.880787
      9          6           0        6.906210    0.120827   -2.739342
     10          6           0        6.110837    0.718588   -1.592177
     11          6           0        8.361315   -0.023598   -2.305390
     12          6           0        4.977702   -1.182868   -3.923305
     13          6           0        5.393646   -1.369481   -5.385331
     14          1           0        4.485605   -2.059345   -6.289154
     15          7           0        4.773629    2.312462    0.676862
     16          6           0        5.408137    2.838548   -0.398275
     17          6           0        5.244520    4.304304   -0.291179
     18          6           0        4.627351    4.597775    1.032102
     19          6           0        4.637491    3.290190    1.636665
     20          6           0        5.609450    5.255387   -1.389367
     21          6           0        4.120075    5.858729    1.657240
     22          8           0        3.836498    5.934716    2.901581
     23          6           0        4.046792    7.042591    0.781945
     24          7           0        4.610121    0.656505    3.205988
     25          6           0        4.500633    1.874080    3.748672
     26          6           0        4.234537    1.792999    5.222632
     27          6           0        3.941890    0.254653    5.535044
     28          6           0        4.185101   -0.324071    4.119348
     29          6           0        5.362977    2.293328    6.134940
     30          6           0        2.606740   -0.076500    6.247878
     31          6           0        1.445221    0.222833    5.326807
     32          7           0        4.513441   -1.737620    1.513171
     33          6           0        4.361730   -2.367021    2.757161
     34          6           0        4.457283   -3.819320    2.521011
     35          6           0        4.675918   -3.933932    1.149549
     36          6           0        4.740678   -2.634596    0.570044
     37          6           0        4.401307   -4.831443    3.519463
     38          6           0        4.894455   -4.851042    0.042748
     39          8           0        4.853646   -6.075032   -0.090207
     40          6           0        5.369880   -4.006891   -1.221058
     41          6           0        4.559045   -4.462929   -2.403380
     42          8           0        3.331401   -4.245822   -2.459227
     43          8           0        5.385685   -4.866366   -3.380338
     44          6           0        4.645565   -5.304193   -4.593880
     45          1           0        6.781244    2.746915   -2.003678
     46          1           0        4.363600    3.826593    3.646394
     47          1           0        4.006639   -2.347176    4.740173
     48          1           0        6.840609   -2.049051   -3.191952
     49          1           0        6.801575    0.735000   -3.633526
     50          1           0        8.597384   -1.053896   -2.039537
     51          1           0        8.472639    0.628272   -1.438692
     52          1           0        9.033729    0.372677   -3.066706
     53          1           0        4.609597   -0.157753   -3.964539
     54          1           0        4.187128   -1.893540   -3.679866
     55          1           0        6.398998   -1.784221   -5.463872
     56          1           0        5.469904   -0.385003   -5.847054
     57          1           0        6.191087    4.763725   -2.168156
     58          1           0        6.293117    5.988427   -0.961628
     59          1           0        4.736291    5.762734   -1.799884
     60          1           0        5.039892    7.261800    0.389199
     61          1           0        3.578206    7.826826    1.375453
     62          1           0        3.421617    6.806513   -0.079665
     63          1           0        3.362074    2.385192    5.495658
     64          1           0        4.703620   -0.183788    6.180188
     65          1           0        5.055296    3.085797    6.817604
     66          1           0        6.187737    2.620399    5.502417
     67          1           0        5.842953    1.520155    6.734310
     68          1           0        2.484017    0.547898    7.132193
     69          1           0        2.534246   -1.117191    6.564038
     70          1           0        1.289948    1.291547    5.470243
     71          1           0        0.563980   -0.343791    5.629397
     72          1           0        1.716173    0.070278    4.281916
     73          1           0        3.763003   -5.619306    3.119702
     74          1           0        4.007930   -4.440792    4.457680
     75          1           0        5.454129   -5.104413    3.589533
     76          1           0        6.432633   -4.208799   -1.351102
     77          1           0        4.966873   -6.321848   -4.816080
     78          1           0        4.817949   -4.541856   -5.353835
     79          1           0        3.570912   -5.448547   -4.477170
     80         12           0       -4.154670    0.550683   -0.868274
     81          6           0       -6.780550   -1.584177    0.325952
     82          6           0       -6.525637    2.959220   -1.328795
     83          6           0       -1.952552    2.296718   -2.341184
     84          6           0       -2.247283   -2.319242   -1.388895
     85          7           0       -6.337253    0.566098   -0.510026
     86          6           0       -7.215590   -0.281683    0.003916
     87          6           0       -8.621976    0.324332    0.257658
     88          6           0       -8.563814    1.522338   -0.810174
     89          6           0       -7.051226    1.726230   -0.866619
     90          6           0       -9.043305    1.118459   -2.194475
     91          6           0       -8.783985    0.866638    1.721098
     92          6           0      -10.222396    1.189116    2.131869
     93          1           0      -10.624226    0.939805    3.513484
     94          7           0       -4.106972    2.496195   -1.257220
     95          6           0       -5.163184    3.326035   -1.387865
     96          6           0       -4.599192    4.650288   -1.691896
     97          6           0       -3.132243    4.500508   -1.892770
     98          6           0       -3.007429    3.057150   -1.857927
     99          6           0       -5.422536    5.905496   -1.689266
    100          6           0       -2.026761    5.491686   -2.096882
    101          8           0       -0.861271    5.129336   -2.488237
    102          6           0       -2.374775    6.908519   -1.915312
    103          7           0       -2.441985    0.052005   -1.936151
    104          6           0       -1.631323    1.005705   -2.427288
    105          6           0       -0.328531    0.416946   -2.913575
    106          6           0       -0.335395   -1.105236   -2.423162
    107          6           0       -1.741975   -1.159998   -1.787597
    108          6           0       -0.100226    0.463631   -4.424234
    109          6           0        0.877639   -1.576977   -1.575416
    110          6           0        0.872509   -0.879386   -0.234252
    111          7           0       -4.358025   -1.553853   -0.423749
    112          6           0       -3.452988   -2.586564   -0.753127
    113          6           0       -4.079576   -3.860917   -0.345882
    114          6           0       -5.325314   -3.480106    0.175286
    115          6           0       -5.473604   -2.070009    0.079774
    116          6           0       -3.518849   -5.157310   -0.522098
    117          6           0       -6.552994   -3.951405    0.774779
    118          8           0       -6.960834   -5.039879    1.178049
    119          6           0       -7.602170   -2.757443    0.783137
    120          6           0       -8.218071   -2.689905    2.153762
    121          8           0       -7.526821   -2.390411    3.143251
    122          8           0       -9.556031   -2.775654    2.040329
    123          6           0      -10.212666   -2.702215    3.372720
    124          1           0       -7.218242    3.702995   -1.723735
    125          1           0       -1.116418    2.862081   -2.759182
    126          1           0       -1.676148   -3.249288   -1.427803
    127          1           0       -9.449390   -0.336934    0.029870
    128          1           0       -9.054877    2.414403   -0.430118
    129          1           0       -9.233399    0.057549   -2.261375
    130          1           0       -8.252099    1.404713   -2.874982
    131          1           0       -9.915879    1.713174   -2.479565
    132          1           0       -8.341802    1.869366    1.782376
    133          1           0       -8.349473    0.188060    2.429164
    134          1           0      -10.955186    0.763272    1.435709
    135          1           0      -10.372455    2.268512    2.051801
    136          1           0       -6.496407    5.682122   -1.671443
    137          1           0       -5.262860    6.394667   -2.656261
    138          1           0       -5.136132    6.595430   -0.892635
    139          1           0       -3.173961    7.175062   -2.602849
    140          1           0       -1.435219    7.455384   -2.015564
    141          1           0       -2.772013    7.044267   -0.903190
    142          1           0        0.516594    0.926242   -2.466941
    143          1           0       -0.345983   -1.806306   -3.270633
    144          1           0        0.831371    0.988206   -4.708858
    145          1           0       -0.958126    0.935356   -4.884683
    146          1           0       -0.077223   -0.506354   -4.918008
    147          1           0        1.813625   -1.299127   -2.066203
    148          1           0        0.903022   -2.650007   -1.417446
    149          1           0        1.351569    0.079622   -0.453077
    150          1           0        1.444237   -1.448694    0.495860
    151          1           0       -0.151350   -0.668682    0.095860
    152          1           0       -3.693008   -5.699528    0.397771
    153          1           0       -2.458044   -5.102980   -0.757729
    154          1           0       -4.110162   -5.511887   -1.370558
    155          1           0       -8.343445   -2.967308    0.011101
    156          1           0      -10.837131   -3.595576    3.470831
    157          1           0      -10.726658   -1.722996    3.398897
    158          1           0       -9.580343   -2.788949    4.248562
 ---------------------------------------------------------------------

 SCF Done:  E(RCAM-B3LYP) =  -4069.81646554     A.U. after   19 cycles

 Excitation energies and oscillator strengths:

 Excited State   1:      Singlet-A      1.6418 eV  755.17 nm  f=0.0039  <S**2>=0.000
     309 -> 315       -0.11199
     310 -> 316        0.12174
     311 -> 313       -0.46300
     312 -> 314        0.50875
 This state for optimization and/or second-order correction.
 Total Energy, E(TD-HF/TD-DFT) =  -4069.75613010
 Copying the excited state density for this state as the 1-particle RhoCI density.

 Excited State   2:      Singlet-A      1.7035 eV  727.83 nm  f=0.6899  <S**2>=0.000
     309 -> 315        0.13471
     310 -> 316        0.12106
     311 -> 313        0.50623
     312 -> 314        0.46052

 Excited State   3:      Singlet-A      2.1811 eV  568.46 nm  f=0.0864  <S**2>=0.000
     309 -> 313        0.15905
     310 -> 314        0.62424
     312 -> 316       -0.26040

 Excited State   4:      Singlet-A      2.1966 eV  564.44 nm  f=0.1093  <S**2>=0.000
     309 -> 313        0.62045
     310 -> 314       -0.15615
     311 -> 315       -0.27190

 Excited State   5:      Singlet-A      2.3662 eV  523.97 nm  f=0.0000  <S**2>=0.000
     312 -> 313        0.70638

 The electronic state is 1-A.
 Alpha  occ. eigenvalues --  -46.87792 -46.87362 -19.26633 -19.26170 -19.19523
 Alpha  occ. eigenvalues --  -19.18968 -19.18690 -19.18568 -19.18238 -19.17808
 Alpha  occ. eigenvalues --  -14.42466 -14.42213 -14.41417 -14.41019 -14.39364
 Alpha  occ. eigenvalues --  -14.39069 -14.38598 -14.38299 -10.39484 -10.38892
 Alpha  occ. eigenvalues --  -10.35315 -10.35252 -10.34476 -10.33984 -10.31973
 Alpha  occ. eigenvalues --  -10.31603 -10.31457 -10.31015 -10.30946 -10.30783
 Alpha  occ. eigenvalues --  -10.30585 -10.30492 -10.30124 -10.30091 -10.30048
 Alpha  occ. eigenvalues --  -10.29908 -10.29752 -10.29607 -10.29535 -10.29200
 Alpha  occ. eigenvalues --  -10.29147 -10.29109 -10.28876 -10.28742 -10.28508
 Alpha  occ. eigenvalues --  -10.28498 -10.28376 -10.28193 -10.28147 -10.27916
 Alpha  occ. eigenvalues --  -10.27767 -10.27721 -10.27718 -10.27533 -10.27458
 Alpha  occ. eigenvalues --  -10.27395 -10.27385 -10.27369 -10.27314 -10.27299
 Alpha  occ. eigenvalues --  -10.27265 -10.27205 -10.27195 -10.26966 -10.26929
 Alpha  occ. eigenvalues --  -10.26835 -10.26818 -10.26507 -10.26338 -10.26283
 Alpha  occ. eigenvalues --  -10.26163 -10.26021 -10.25976 -10.25823 -10.25803
 Alpha  occ. eigenvalues --  -10.25516 -10.25422 -10.25364 -10.25104 -10.24961
 Alpha  occ. eigenvalues --  -10.24838 -10.24766 -10.24598 -10.24474 -10.24393
 Alpha  occ. eigenvalues --  -10.24218  -3.16496  -3.16112  -1.91377  -1.90995
 Alpha  occ. eigenvalues --   -1.90967  -1.90809  -1.90582  -1.90420  -1.16992
 Alpha  occ. eigenvalues --   -1.16460  -1.08726  -1.08418  -1.07086  -1.07069
 Alpha  occ. eigenvalues --   -1.06830  -1.06752  -1.04605  -1.04219  -1.03739
 Alpha  occ. eigenvalues --   -1.03361  -1.03215  -1.02713  -1.02398  -1.01803
 Alpha  occ. eigenvalues --   -0.92030  -0.91710  -0.89464  -0.89279  -0.89056
 Alpha  occ. eigenvalues --   -0.88889  -0.88225  -0.87858  -0.87728  -0.87686
 Alpha  occ. eigenvalues --   -0.87471  -0.87380  -0.87167  -0.86894  -0.85049
 Alpha  occ. eigenvalues --   -0.84753  -0.83881  -0.83414  -0.82852  -0.82697
 Alpha  occ. eigenvalues --   -0.82657  -0.82379  -0.81703  -0.81332  -0.80629
 Alpha  occ. eigenvalues --   -0.80181  -0.78730  -0.78366  -0.77213  -0.77002
 Alpha  occ. eigenvalues --   -0.76865  -0.76588  -0.75985  -0.75584  -0.74865
 Alpha  occ. eigenvalues --   -0.74464  -0.72757  -0.72376  -0.71686  -0.71292
 Alpha  occ. eigenvalues --   -0.69802  -0.69176  -0.68913  -0.68562  -0.67653
 Alpha  occ. eigenvalues --   -0.67322  -0.67267  -0.66993  -0.65374  -0.65023
 Alpha  occ. eigenvalues --   -0.64910  -0.64652  -0.64456  -0.64352  -0.64219
 Alpha  occ. eigenvalues --   -0.63702  -0.62444  -0.61982  -0.60359  -0.60061
 Alpha  occ. eigenvalues --   -0.59860  -0.59545  -0.59002  -0.58675  -0.58529
 Alpha  occ. eigenvalues --   -0.58109  -0.57751  -0.57305  -0.57282  -0.56880
 Alpha  occ. eigenvalues --   -0.56349  -0.56124  -0.55906  -0.55647  -0.55497
 Alpha  occ. eigenvalues --   -0.55374  -0.55232  -0.54896  -0.54605  -0.54115
 Alpha  occ. eigenvalues --   -0.53989  -0.53683  -0.53297  -0.53224  -0.53034
 Alpha  occ. eigenvalues --   -0.52971  -0.52857  -0.52666  -0.52629  -0.52487
 Alpha  occ. eigenvalues --   -0.52323  -0.51923  -0.51742  -0.51651  -0.51516
 Alpha  occ. eigenvalues --   -0.51443  -0.51226  -0.50866  -0.50404  -0.50270
 Alpha  occ. eigenvalues --   -0.49971  -0.49861  -0.49746  -0.49563  -0.49434
 Alpha  occ. eigenvalues --   -0.49277  -0.49224  -0.49150  -0.48968  -0.48841
 Alpha  occ. eigenvalues --   -0.48665  -0.48470  -0.48357  -0.48318  -0.48157
 Alpha  occ. eigenvalues --   -0.48038  -0.47687  -0.47315  -0.47263  -0.46853
 Alpha  occ. eigenvalues --   -0.46797  -0.46635  -0.46393  -0.46379  -0.46272
 Alpha  occ. eigenvalues --   -0.46171  -0.45952  -0.45898  -0.45751  -0.45531
 Alpha  occ. eigenvalues --   -0.45152  -0.44891  -0.44637  -0.44483  -0.44296
 Alpha  occ. eigenvalues --   -0.44169  -0.44165  -0.44073  -0.43987  -0.43903
 Alpha  occ. eigenvalues --   -0.43725  -0.43693  -0.43589  -0.43416  -0.43264
 Alpha  occ. eigenvalues --   -0.43109  -0.43039  -0.42916  -0.42696  -0.42601
 Alpha  occ. eigenvalues --   -0.42580  -0.42147  -0.41998  -0.41743  -0.41578
 Alpha  occ. eigenvalues --   -0.41545  -0.41377  -0.41158  -0.41134  -0.40903
 Alpha  occ. eigenvalues --   -0.40766  -0.40715  -0.40555  -0.40514  -0.40416
 Alpha  occ. eigenvalues --   -0.40321  -0.40045  -0.39881  -0.39321  -0.38899
 Alpha  occ. eigenvalues --   -0.38429  -0.37912  -0.37862  -0.37417  -0.37320
 Alpha  occ. eigenvalues --   -0.37287  -0.36987  -0.36954  -0.36807  -0.36514
 Alpha  occ. eigenvalues --   -0.36251  -0.35824  -0.34302  -0.34138  -0.33942
 Alpha  occ. eigenvalues --   -0.33649  -0.33196  -0.32869  -0.31237  -0.31128
 Alpha  occ. eigenvalues --   -0.31040  -0.30680  -0.30112  -0.29710  -0.29407
 Alpha  occ. eigenvalues --   -0.29299  -0.29071  -0.28927  -0.24088  -0.23732
 Alpha  occ. eigenvalues --   -0.21115  -0.20812
 Alpha virt. eigenvalues --   -0.08749  -0.08509  -0.01731  -0.01386  -0.00011
 Alpha virt. eigenvalues --    0.00186   0.02177   0.02481   0.03146   0.03915
 Alpha virt. eigenvalues --    0.04649   0.04707   0.05005   0.05371   0.06015

 Mulliken charges:
               1
     1  Mg   0.819180
     2  C   -0.004256
     3  C   -0.092416
     4  C   -0.044494
     5  C   -0.062570
     6  N   -0.254476
     7  C   -0.058735
     8  C   -0.012616
     9  C   -0.087114
    10  C    0.045364
    11  C    0.104738
    12  C    0.042155
    13  C   -0.071332
    14  H    0.035180
    15  N   -0.431164
    16  C    0.168057
    17  C   -0.174173
    18  C   -0.001885
    19  C    0.149444
    20  C    0.109317
    21  C    0.014678
    22  O   -0.249865
    23  C    0.059861
    24  N   -0.338836
    25  C    0.042150
    26  C   -0.028322
    27  C   -0.023474
    28  C    0.074059
    29  C    0.076192
    30  C    0.034938
    31  C   -0.005605
    32  N   -0.310022
    33  C    0.079733
    34  C   -0.170973
    35  C    0.008478
    36  C    0.077025
    37  C    0.127642
    38  C    0.043969
    39  O   -0.189119
    40  C   -0.005870
    41  C    0.216233
    42  O   -0.259954
    43  O   -0.303369
    44  C    0.157205
    45  H   -0.017667
    46  H   -0.016491
    47  H   -0.041462
    48  H    0.000432
    49  H   -0.003476
    50  H    0.025505
    51  H    0.017210
    52  H    0.017012
    53  H    0.012084
    54  H    0.050323
    55  H    0.018967
    56  H    0.019430
    57  H    0.005373
    58  H    0.026268
    59  H    0.045596
    60  H    0.036311
    61  H    0.034670
    62  H    0.038646
    63  H    0.017217
    64  H    0.009316
    65  H    0.023368
    66  H    0.012307
    67  H    0.004892
    68  H    0.006384
    69  H    0.005143
    70  H    0.008596
    71  H    0.020293
    72  H    0.029951
    73  H    0.046926
    74  H    0.010098
    75  H    0.045936
    76  H    0.035941
    77  H    0.044500
    78  H    0.047323
    79  H    0.052340
    80  Mg   0.837194
    81  C   -0.017686
    82  C   -0.088500
    83  C   -0.046092
    84  C   -0.065531
    85  N   -0.254683
    86  C   -0.049772
    87  C   -0.015109
    88  C   -0.090359
    89  C    0.045470
    90  C    0.114609
    91  C    0.062630
    92  C   -0.077521
    93  H    0.034173
    94  N   -0.423180
    95  C    0.162459
    96  C   -0.175340
    97  C   -0.008800
    98  C    0.152159
    99  C    0.099545
   100  C    0.015284
   101  O   -0.256698
   102  C    0.061857
   103  N   -0.349996
   104  C    0.037389
   105  C   -0.019986
   106  C   -0.040693
   107  C    0.086916
   108  C    0.075381
   109  C    0.038999
   110  C   -0.040180
   111  N   -0.324277
   112  C    0.078950
   113  C   -0.161945
   114  C    0.001821
   115  C    0.096607
   116  C    0.130191
   117  C    0.042401
   118  O   -0.188168
   119  C    0.000972
   120  C    0.211185
   121  O   -0.251350
   122  O   -0.305641
   123  C    0.152224
   124  H   -0.020773
   125  H   -0.017569
   126  H   -0.032966
   127  H   -0.001072
   128  H   -0.004943
   129  H    0.022145
   130  H    0.014297
   131  H    0.015481
   132  H    0.013935
   133  H    0.037503
   134  H    0.020563
   135  H    0.019324
   136  H    0.008347
   137  H    0.024815
   138  H    0.039031
   139  H    0.038093
   140  H    0.032869
   141  H    0.034876
   142  H    0.013218
   143  H    0.016443
   144  H    0.020654
   145  H    0.009730
   146  H    0.006235
   147  H    0.011562
   148  H    0.022653
   149  H    0.014314
   150  H    0.047903
   151  H    0.025105
   152  H    0.045707
   153  H    0.014579
   154  H    0.046228
   155  H    0.034502
   156  H    0.043570
   157  H    0.049254
   158  H    0.053256
 Sum of Mulliken charges =  -0.00000

 Dipole moment (field-independent basis, Debye):
    X=              1.0290    Y=              6.5887    Z=             -3.7083  Tot=              7.6303
 Quadrupole moment (field-independent basis, Debye-Ang):
   XX=           -450.1654   YY=           -539.7279   ZZ=           -483.8722
   XY=            -26.8179   XZ=             -8.7326   YZ=             -3.1962

 Normal termination of Gaussian 16 at Thu Sep  9 14:17:18 2021.
