 Gaussian 16, Revision A.03,
 Gaussian 16:  ES64L-G16RevA.03 25-Dec-2016

 -----------------------------------
 #p cam-b3lyp/Def2SVP td=(nstates=5)
 -----------------------------------

 --------------------------------
 TDDFT excited states in gaussian
 --------------------------------
 Symbolic Z-matrix:
 Charge =  0 Multiplicity = 1

                         Standard orientation:
 ---------------------------------------------------------------------
 Center     Atomic      Atomic             Coordinates (Angstroms)
 Number     Number       Type             X           Y           Z
 ---------------------------------------------------------------------
      1         12           0        6.287086   -1.063538    0.368144
      2          6           0        6.757130    2.114407   -1.210441
      3          6           0        7.105410    0.446920    3.316352
      4          6           0        6.322310   -3.938527    1.705986
      5          6           0        6.622389   -2.512995   -2.783412
      6          7           0        6.839720    1.022394    0.862236
      7          6           0        6.924883    2.157394    0.175436
      8          6           0        7.134604    3.410724    1.076854
      9          6           0        7.783825    2.700641    2.348189
     10          6           0        7.180208    1.316483    2.187947
     11          6           0        9.302895    2.585824    2.272405
     12          6           0        5.783812    4.113942    1.440963
     13          6           0        5.918239    5.517393    2.038967
     14          1           0        4.915009    6.518325    1.708796
     15          7           0        6.179994   -1.593883    2.268175
     16          6           0        6.540540   -0.846631    3.339112
     17          6           0        6.271207   -1.682676    4.528721
     18          6           0        5.903437   -3.045356    4.053389
     19          6           0        6.149158   -2.919359    2.639486
     20          6           0        6.326119   -1.159882    5.931370
     21          6           0        5.419007   -4.270348    4.762513
     22          8           0        5.380751   -5.414915    4.194115
     23          6           0        5.069286   -4.110531    6.185606
     24          7           0        6.666760   -2.974268   -0.381920
     25          6           0        6.558301   -4.055719    0.397621
     26          6           0        6.596397   -5.318134   -0.411574
     27          6           0        6.509475   -4.865957   -1.940539
     28          6           0        6.519366   -3.331232   -1.733678
     29          6           0        7.833376   -6.204525   -0.211065
     30          6           0        5.376065   -5.487823   -2.794403
     31          6           0        4.033752   -4.992505   -2.304554
     32          7           0        6.452060   -0.349605   -1.674924
     33          6           0        6.605379   -1.129032   -2.830632
     34          6           0        6.781611   -0.197352   -3.959783
     35          6           0        6.734842    1.067274   -3.376362
     36          6           0        6.567923    0.933427   -1.968344
     37          6           0        7.014108   -0.564462   -5.314629
     38          6           0        6.811732    2.499934   -3.611796
     39          8           0        6.854824    3.212683   -4.615601
     40          6           0        6.951397    3.232178   -2.204621
     41          6           0        5.967301    4.369923   -2.184648
     42          8           0        4.738378    4.152869   -2.184098
     43          8           0        6.617678    5.515835   -1.930800
     44          6           0        5.694841    6.680564   -1.868092
     45          1           0        7.572702    0.756554    4.253211
     46          1           0        6.230228   -4.948247    2.111478
     47          1           0        6.647970   -2.890646   -3.807218
     48          1           0        7.824029    4.151685    0.671769
     49          1           0        7.450572    3.153616    3.281719
     50          1           0        9.677673    2.895576    1.296948
     51          1           0        9.524356    1.533007    2.448540
     52          1           0        9.773909    3.131973    3.090112
     53          1           0        5.324883    3.596495    2.283397
     54          1           0        5.123354    4.153192    0.574026
     55          1           0        6.921261    5.918917    1.891882
     56          1           0        5.813848    5.438964    3.121164
     57          1           0        6.784245   -0.172500    5.973112
     58          1           0        7.012560   -1.801385    6.483622
     59          1           0        5.347459   -1.169289    6.411440
     60          1           0        5.941855   -3.752886    6.732656
     61          1           0        4.658906   -5.068234    6.503793
     62          1           0        4.310077   -3.333288    6.277495
     63          1           0        5.745640   -5.957390   -0.179215
     64          1           0        7.419469   -5.106741   -2.490638
     65          1           0        7.596934   -7.222281    0.100339
     66          1           0        8.484693   -5.715446    0.512730
     67          1           0        8.489118   -6.277123   -1.078330
     68          1           0        5.374950   -6.572378   -2.691039
     69          1           0        5.460440   -5.255949   -3.856179
     70          1           0        3.815138   -5.662939   -1.474157
     71          1           0        3.283594   -5.086855   -3.090412
     72          1           0        4.105841   -3.983403   -1.898349
     73          1           0        6.382361    0.085845   -5.919580
     74          1           0        6.780227   -1.614962   -5.485959
     75          1           0        8.080138   -0.354600   -5.400618
     76          1           0        7.981325    3.580445   -2.133337
     77          1           0        6.055468    7.414958   -2.588402
     78          1           0        5.645298    6.980647   -0.821239
     79          1           0        4.681544    6.512998   -2.234820
     80         12           0       -6.907642   -0.277268   -0.300342
     81          6           0       -4.347670    2.209263    0.077475
     82          6           0       -8.853468    1.628852    1.752731
     83          6           0       -9.007918   -2.654979   -0.247741
     84          6           0       -4.419173   -2.480128   -1.349455
     85          7           0       -6.537160    1.650044    0.719695
     86          6           0       -5.550030    2.532938    0.740031
     87          6           0       -5.898035    3.870652    1.446436
     88          6           0       -7.080529    3.341066    2.395172
     89          6           0       -7.549647    2.151398    1.560132
     90          6           0       -6.589104    2.819768    3.735359
     91          6           0       -6.412161    4.960926    0.441957
     92          6           0       -6.476437    6.380131    1.010724
     93          1           0       -6.168424    7.499549    0.125010
     94          7           0       -8.828163   -0.283555    0.199818
     95          6           0       -9.456216    0.577433    1.027785
     96          6           0      -10.857681    0.133455    1.082141
     97          6           0      -10.969736   -1.156837    0.349122
     98          6           0       -9.571794   -1.431634    0.083961
     99          6           0      -11.946554    0.951653    1.713267
    100          6           0      -12.140307   -2.009532   -0.036726
    101          8           0      -11.988403   -3.208890   -0.462504
    102          6           0      -13.473842   -1.432285    0.186778
    103          7           0       -6.714563   -2.334444   -0.530776
    104          6           0       -7.794035   -3.135981   -0.516885
    105          6           0       -7.443133   -4.531546   -0.974773
    106          6           0       -5.947099   -4.437405   -1.532104
    107          6           0       -5.647242   -2.958381   -1.203489
    108          6           0       -7.520092   -5.621446    0.094138
    109          6           0       -5.703831   -4.936252   -2.982841
    110          6           0       -6.397875   -4.021655   -3.966300
    111          7           0       -4.803322   -0.137294   -0.769681
    112          6           0       -3.945844   -1.187348   -1.164906
    113          6           0       -2.583029   -0.624819   -1.258258
    114          6           0       -2.739645    0.718720   -0.885611
    115          6           0       -4.100304    0.970455   -0.562000
    116          6           0       -1.405844   -1.348684   -1.599393
    117          6           0       -2.061453    1.978628   -0.682163
    118          8           0       -0.920404    2.393138   -0.881945
    119          6           0       -3.049966    2.968584    0.072302
    120          6           0       -3.015631    4.292349   -0.641126
    121          8           0       -3.439468    4.393796   -1.805891
    122          8           0       -2.692731    5.258428    0.237958
    123          6           0       -2.656726    6.591646   -0.420111
    124          1           0       -9.459795    2.032988    2.563848
    125          1           0       -9.710232   -3.485386   -0.350992
    126          1           0       -3.605227   -3.078378   -1.764492
    127          1           0       -5.098812    4.288758    2.046601
    128          1           0       -7.873494    4.078697    2.487158
    129          1           0       -5.510894    2.782079    3.782171
    130          1           0       -7.007119    1.826692    3.835917
    131          1           0       -7.017457    3.410949    4.549826
    132          1           0       -7.477882    4.789981    0.242565
    133          1           0       -5.826104    4.957894   -0.456462
    134          1           0       -5.922744    6.472021    1.953021
    135          1           0       -7.511448    6.597192    1.285777
    136          1           0      -11.535993    1.771948    2.314913
    137          1           0      -12.450187    0.306511    2.441288
    138          1           0      -12.681436    1.306323    0.987438
    139          1           0      -13.589741   -1.188086    1.240052
    140          1           0      -14.178352   -2.153120   -0.232689
    141          1           0      -13.543230   -0.488006   -0.364703
    142          1           0       -8.097333   -4.851446   -1.776519
    143          1           0       -5.249957   -5.040277   -0.931796
    144          1           0       -8.200079   -6.451125   -0.176645
    145          1           0       -7.828903   -5.165160    1.025252
    146          1           0       -6.566541   -6.072676    0.363082
    147          1           0       -6.140505   -5.928505   -3.120349
    148          1           0       -4.653416   -5.007584   -3.244636
    149          1           0       -7.425365   -4.397626   -3.970157
    150          1           0       -5.943886   -4.103652   -4.951804
    151          1           0       -6.425343   -2.991153   -3.593553
    152          1           0       -0.847133   -0.728123   -2.287322
    153          1           0       -1.646347   -2.314288   -2.039320
    154          1           0       -0.946448   -1.450212   -0.612519
    155          1           0       -2.706816    3.050706    1.104317
    156          1           0       -1.667239    7.017053   -0.226151
    157          1           0       -3.529144    7.144221   -0.023508
    158          1           0       -2.689298    6.617078   -1.503045
 ---------------------------------------------------------------------

 SCF Done:  E(RCAM-B3LYP) =  -4069.81046266     A.U. after   19 cycles

 Excitation energies and oscillator strengths:

 Excited State   1:      Singlet-A      1.6708 eV  742.05 nm  f=0.2957  <S**2>=0.000
     309 -> 315        0.13841
     310 -> 316       -0.10321
     311 -> 313        0.55066
     312 -> 314       -0.40953
 This state for optimization and/or second-order correction.
 Total Energy, E(TD-HF/TD-DFT) =  -4069.74906050
 Copying the excited state density for this state as the 1-particle RhoCI density.

 Excited State   2:      Singlet-A      1.6844 eV  736.07 nm  f=0.4878  <S**2>=0.000
     309 -> 315        0.10469
     310 -> 316        0.14113
     311 -> 313        0.40918
     312 -> 314        0.54995

 Excited State   3:      Singlet-A      2.1847 eV  567.52 nm  f=0.0091  <S**2>=0.000
     309 -> 313        0.53820
     310 -> 314       -0.35233
     311 -> 315       -0.22783
     312 -> 316        0.14873

 Excited State   4:      Singlet-A      2.1922 eV  565.58 nm  f=0.1765  <S**2>=0.000
     309 -> 313        0.35037
     310 -> 314        0.53570
     311 -> 315       -0.15201
     312 -> 316       -0.23334

 Excited State   5:      Singlet-A      2.6193 eV  473.36 nm  f=0.0000  <S**2>=0.000
     312 -> 313        0.70645

 The electronic state is 1-A.
 Alpha  occ. eigenvalues --  -46.87527 -46.87502 -19.26162 -19.25858 -19.18953
 Alpha  occ. eigenvalues --  -19.18597 -19.18595 -19.18528 -19.17848 -19.17796
 Alpha  occ. eigenvalues --  -14.42372 -14.42157 -14.41227 -14.41179 -14.39218
 Alpha  occ. eigenvalues --  -14.39120 -14.38455 -14.38284 -10.38893 -10.38609
 Alpha  occ. eigenvalues --  -10.35275 -10.35234 -10.34061 -10.33982 -10.31586
 Alpha  occ. eigenvalues --  -10.31288 -10.31170 -10.31103 -10.30903 -10.30613
 Alpha  occ. eigenvalues --  -10.30273 -10.30252 -10.30228 -10.30209 -10.30026
 Alpha  occ. eigenvalues --  -10.29968 -10.29754 -10.29655 -10.29353 -10.29310
 Alpha  occ. eigenvalues --  -10.29254 -10.28991 -10.28615 -10.28567 -10.28427
 Alpha  occ. eigenvalues --  -10.28262 -10.28202 -10.28067 -10.28040 -10.27843
 Alpha  occ. eigenvalues --  -10.27823 -10.27543 -10.27512 -10.27449 -10.27407
 Alpha  occ. eigenvalues --  -10.27357 -10.27347 -10.27325 -10.27314 -10.27310
 Alpha  occ. eigenvalues --  -10.27263 -10.27256 -10.27254 -10.27103 -10.26868
 Alpha  occ. eigenvalues --  -10.26809 -10.26586 -10.26318 -10.26309 -10.26234
 Alpha  occ. eigenvalues --  -10.26036 -10.26035 -10.25978 -10.25953 -10.25803
 Alpha  occ. eigenvalues --  -10.25759 -10.25646 -10.25577 -10.25297 -10.25261
 Alpha  occ. eigenvalues --  -10.24710 -10.24624 -10.24562 -10.24555 -10.24539
 Alpha  occ. eigenvalues --  -10.24521  -3.16277  -3.16243  -1.91160  -1.91124
 Alpha  occ. eigenvalues --   -1.90748  -1.90712  -1.90585  -1.90554  -1.16451
 Alpha  occ. eigenvalues --   -1.16198  -1.08400  -1.08293  -1.07003  -1.06850
 Alpha  occ. eigenvalues --   -1.06737  -1.06166  -1.04366  -1.04286  -1.03530
 Alpha  occ. eigenvalues --   -1.03487  -1.02951  -1.02902  -1.02129  -1.01973
 Alpha  occ. eigenvalues --   -0.91833  -0.91663  -0.89366  -0.89288  -0.89045
 Alpha  occ. eigenvalues --   -0.88880  -0.88099  -0.88060  -0.87627  -0.87588
 Alpha  occ. eigenvalues --   -0.87556  -0.87387  -0.87027  -0.86994  -0.84883
 Alpha  occ. eigenvalues --   -0.84683  -0.83753  -0.83720  -0.82816  -0.82753
 Alpha  occ. eigenvalues --   -0.82533  -0.82362  -0.81439  -0.81259  -0.80300
 Alpha  occ. eigenvalues --   -0.80299  -0.78536  -0.78497  -0.77023  -0.76962
 Alpha  occ. eigenvalues --   -0.76772  -0.76640  -0.75706  -0.75623  -0.74678
 Alpha  occ. eigenvalues --   -0.74661  -0.72557  -0.72503  -0.71453  -0.71400
 Alpha  occ. eigenvalues --   -0.69714  -0.69644  -0.68706  -0.68587  -0.67459
 Alpha  occ. eigenvalues --   -0.67364  -0.67084  -0.66914  -0.65146  -0.64978
 Alpha  occ. eigenvalues --   -0.64634  -0.64564  -0.64517  -0.64331  -0.64076
 Alpha  occ. eigenvalues --   -0.64027  -0.62118  -0.61954  -0.60211  -0.60197
 Alpha  occ. eigenvalues --   -0.59676  -0.59505  -0.58853  -0.58708  -0.58279
 Alpha  occ. eigenvalues --   -0.58218  -0.57373  -0.57248  -0.57096  -0.57026
 Alpha  occ. eigenvalues --   -0.56060  -0.56036  -0.55733  -0.55623  -0.55313
 Alpha  occ. eigenvalues --   -0.55261  -0.55106  -0.55077  -0.54341  -0.54218
 Alpha  occ. eigenvalues --   -0.53800  -0.53583  -0.53093  -0.53043  -0.53007
 Alpha  occ. eigenvalues --   -0.52936  -0.52758  -0.52604  -0.52557  -0.52500
 Alpha  occ. eigenvalues --   -0.52279  -0.52228  -0.51701  -0.51629  -0.51538
 Alpha  occ. eigenvalues --   -0.51314  -0.51037  -0.50909  -0.50365  -0.50357
 Alpha  occ. eigenvalues --   -0.49866  -0.49825  -0.49746  -0.49668  -0.49366
 Alpha  occ. eigenvalues --   -0.49233  -0.49063  -0.48952  -0.48921  -0.48807
 Alpha  occ. eigenvalues --   -0.48407  -0.48297  -0.48242  -0.48220  -0.48180
 Alpha  occ. eigenvalues --   -0.48170  -0.47463  -0.47428  -0.47034  -0.46992
 Alpha  occ. eigenvalues --   -0.46580  -0.46535  -0.46439  -0.46248  -0.46134
 Alpha  occ. eigenvalues --   -0.46093  -0.45940  -0.45871  -0.45656  -0.45511
 Alpha  occ. eigenvalues --   -0.45086  -0.44974  -0.44383  -0.44330  -0.44276
 Alpha  occ. eigenvalues --   -0.44264  -0.43992  -0.43947  -0.43906  -0.43807
 Alpha  occ. eigenvalues --   -0.43788  -0.43723  -0.43405  -0.43250  -0.43179
 Alpha  occ. eigenvalues --   -0.43114  -0.42781  -0.42748  -0.42728  -0.42470
 Alpha  occ. eigenvalues --   -0.42433  -0.42285  -0.41841  -0.41756  -0.41498
 Alpha  occ. eigenvalues --   -0.41416  -0.41343  -0.41242  -0.40869  -0.40860
 Alpha  occ. eigenvalues --   -0.40610  -0.40609  -0.40589  -0.40586  -0.40371
 Alpha  occ. eigenvalues --   -0.40327  -0.40124  -0.39899  -0.39313  -0.39258
 Alpha  occ. eigenvalues --   -0.38237  -0.38236  -0.37541  -0.37431  -0.37143
 Alpha  occ. eigenvalues --   -0.37074  -0.37073  -0.36948  -0.36596  -0.36355
 Alpha  occ. eigenvalues --   -0.36075  -0.35849  -0.34113  -0.33996  -0.33668
 Alpha  occ. eigenvalues --   -0.33317  -0.33035  -0.32880  -0.31155  -0.31126
 Alpha  occ. eigenvalues --   -0.30839  -0.30748  -0.29701  -0.29699  -0.29187
 Alpha  occ. eigenvalues --   -0.29178  -0.29044  -0.29026  -0.23901  -0.23790
 Alpha  occ. eigenvalues --   -0.20981  -0.20850
 Alpha virt. eigenvalues --   -0.08648  -0.08496  -0.01555  -0.01479   0.00106
 Alpha virt. eigenvalues --    0.00207   0.02391   0.02496   0.03358   0.03505
 Alpha virt. eigenvalues --    0.04846   0.05010   0.05367   0.05539   0.06286

 Mulliken charges:
               1
     1  Mg   0.840960
     2  C   -0.000694
     3  C   -0.093973
     4  C   -0.046501
     5  C   -0.064632
     6  N   -0.256631
     7  C   -0.051519
     8  C   -0.014557
     9  C   -0.087088
    10  C    0.046752
    11  C    0.105020
    12  C    0.053420
    13  C   -0.071257
    14  H    0.036121
    15  N   -0.432872
    16  C    0.168554
    17  C   -0.177461
    18  C   -0.004528
    19  C    0.148623
    20  C    0.110400
    21  C    0.011804
    22  O   -0.250604
    23  C    0.062647
    24  N   -0.341148
    25  C    0.041009
    26  C   -0.027911
    27  C   -0.023942
    28  C    0.075023
    29  C    0.076398
    30  C    0.035373
    31  C   -0.004529
    32  N   -0.310855
    33  C    0.081271
    34  C   -0.169368
    35  C    0.008594
    36  C    0.084781
    37  C    0.127076
    38  C    0.047689
    39  O   -0.188100
    40  C   -0.006016
    41  C    0.211501
    42  O   -0.251573
    43  O   -0.305912
    44  C    0.157724
    45  H   -0.018300
    46  H   -0.017774
    47  H   -0.042099
    48  H    0.000457
    49  H   -0.004419
    50  H    0.025220
    51  H    0.016004
    52  H    0.015907
    53  H    0.011805
    54  H    0.048021
    55  H    0.016718
    56  H    0.016952
    57  H    0.005619
    58  H    0.026039
    59  H    0.038962
    60  H    0.037104
    61  H    0.034739
    62  H    0.031333
    63  H    0.015692
    64  H    0.009125
    65  H    0.022489
    66  H    0.012548
    67  H    0.004330
    68  H    0.005564
    69  H    0.004664
    70  H    0.007881
    71  H    0.016722
    72  H    0.030425
    73  H    0.048375
    74  H    0.008531
    75  H    0.045466
    76  H    0.034233
    77  H    0.041624
    78  H    0.045412
    79  H    0.055531
    80  Mg   0.837552
    81  C   -0.016695
    82  C   -0.087925
    83  C   -0.045664
    84  C   -0.065059
    85  N   -0.254384
    86  C   -0.050055
    87  C   -0.014900
    88  C   -0.090430
    89  C    0.045490
    90  C    0.114532
    91  C    0.062610
    92  C   -0.077620
    93  H    0.034892
    94  N   -0.423382
    95  C    0.162598
    96  C   -0.174974
    97  C   -0.008085
    98  C    0.151915
    99  C    0.099514
   100  C    0.015371
   101  O   -0.253544
   102  C    0.061276
   103  N   -0.350084
   104  C    0.037305
   105  C   -0.019696
   106  C   -0.034867
   107  C    0.089129
   108  C    0.073746
   109  C    0.034788
   110  C   -0.007627
   111  N   -0.324325
   112  C    0.078679
   113  C   -0.162924
   114  C    0.003265
   115  C    0.096231
   116  C    0.131276
   117  C    0.042035
   118  O   -0.182339
   119  C    0.000492
   120  C    0.212660
   121  O   -0.250528
   122  O   -0.306170
   123  C    0.152174
   124  H   -0.020200
   125  H   -0.015901
   126  H   -0.040367
   127  H   -0.001049
   128  H   -0.004623
   129  H    0.021979
   130  H    0.014325
   131  H    0.015671
   132  H    0.013883
   133  H    0.038135
   134  H    0.020251
   135  H    0.019288
   136  H    0.008409
   137  H    0.025678
   138  H    0.039469
   139  H    0.038027
   140  H    0.036073
   141  H    0.033813
   142  H    0.014206
   143  H    0.012402
   144  H    0.024851
   145  H    0.011475
   146  H    0.005574
   147  H    0.005966
   148  H    0.003568
   149  H    0.010777
   150  H    0.017877
   151  H    0.030388
   152  H    0.048883
   153  H    0.007928
   154  H    0.046342
   155  H    0.034137
   156  H    0.043581
   157  H    0.048449
   158  H    0.054506
 Sum of Mulliken charges =  -0.00000

 Dipole moment (field-independent basis, Debye):
    X=             -1.0254    Y=              1.4076    Z=              7.0597  Tot=              7.2713
 Quadrupole moment (field-independent basis, Debye-Ang):
   XX=           -471.3336   YY=           -487.3117   ZZ=           -502.2266
   XY=            -29.8325   XZ=              3.5336   YZ=             51.6058

 Normal termination of Gaussian 16 at Sat Sep 11 11:48:59 2021.
