 Gaussian 16, Revision A.03,
 Gaussian 16:  ES64L-G16RevA.03 25-Dec-2016

 -----------------------------------
 #p cam-b3lyp/Def2SVP td=(nstates=5)
 -----------------------------------

 --------------------------------
 TDDFT excited states in gaussian
 --------------------------------
 Symbolic Z-matrix:
 Charge =  0 Multiplicity = 1

                         Standard orientation:
 ---------------------------------------------------------------------
 Center     Atomic      Atomic             Coordinates (Angstroms)
 Number     Number       Type             X           Y           Z
 ---------------------------------------------------------------------
      1         12           0       -5.223653   -0.677645    0.109621
      2          6           0       -5.354552    2.884099    0.439858
      3          6           0       -6.110702   -0.258208   -3.158449
      4          6           0       -5.557808   -3.824850   -0.090545
      5          6           0       -5.467353   -0.860722    3.581328
      6          7           0       -5.648818    1.133136   -1.090777
      7          6           0       -5.605509    2.441744   -0.860907
      8          6           0       -5.777273    3.301295   -2.148945
      9          6           0       -6.556476    2.245245   -3.054261
     10          6           0       -6.049127    0.961556   -2.421281
     11          6           0       -8.072090    2.306299   -2.893985
     12          6           0       -4.403295    3.698672   -2.786133
     13          6           0       -4.469807    4.799657   -3.848565
     14          1           0       -3.375781    5.755026   -3.936453
     15          7           0       -5.276295   -1.862528   -1.470294
     16          6           0       -5.646659   -1.519901   -2.727563
     17          6           0       -5.515977   -2.748509   -3.540045
     18          6           0       -5.221910   -3.877269   -2.614021
     19          6           0       -5.368052   -3.229684   -1.335485
     20          6           0       -5.619823   -2.761737   -5.034297
     21          6           0       -4.875994   -5.314386   -2.844600
     22          8           0       -4.887703   -6.176694   -1.900745
     23          6           0       -4.605563   -5.709460   -4.238812
     24          7           0       -5.697130   -2.147572    1.514174
     25          6           0       -5.719087   -3.441916    1.177760
     26          6           0       -5.800438   -4.320115    2.391057
     27          6           0       -5.583907   -3.359045    3.647724
     28          6           0       -5.492051   -2.007173    2.897875
     29          6           0       -7.110374   -5.100926    2.565452
     30          6           0       -4.448667   -3.734661    4.632895
     31          6           0       -3.106582   -3.574737    3.954420
     32          7           0       -5.205892    0.734461    1.757858
     33          6           0       -5.344003    0.439917    3.121985
     34          6           0       -5.378687    1.727015    3.840487
     35          6           0       -5.274330    2.687559    2.836341
     36          6           0       -5.206829    2.042086    1.568627
     37          6           0       -5.552245    1.894227    5.242754
     38          6           0       -5.228945    4.109708    2.537528
     39          8           0       -5.155379    5.136157    3.214643
     40          6           0       -5.401768    4.297202    0.965648
     41          6           0       -4.338594    5.255628    0.502628
     42          8           0       -3.131810    4.940225    0.542139
     43          8           0       -4.916178    6.288766   -0.129483
     44          6           0       -3.914642    7.262565   -0.640162
     45          1           0       -6.611574   -0.263957   -4.128519
     46          1           0       -5.567162   -4.916712   -0.104208
     47          1           0       -5.456608   -0.841335    4.672640
     48          1           0       -6.382518    4.198655   -2.019150
     49          1           0       -6.249710    2.299787   -4.098599
     50          1           0       -8.360530    2.978982   -2.086383
     51          1           0       -8.382273    1.285787   -2.668521
     52          1           0       -8.551487    2.563337   -3.838912
     53          1           0       -4.038260    2.873107   -3.397078
     54          1           0       -3.688503    3.985445   -2.014019
     55          1           0       -5.428759    5.318117   -3.825783
     56          1           0       -4.439887    4.328460   -4.831051
     57          1           0       -6.004578   -1.817413   -5.417391
     58          1           0       -6.385687   -3.492373   -5.293784
     59          1           0       -4.676763   -3.033399   -5.508817
     60          1           0       -5.481651   -5.493135   -4.850549
     61          1           0       -4.288758   -6.751088   -4.200136
     62          1           0       -3.797671   -5.090860   -4.630723
     63          1           0       -5.016160   -5.075901    2.380048
     64          1           0       -6.472924   -3.300925    4.276170
     65          1           0       -6.970737   -6.179804    2.637757
     66          1           0       -7.767568   -4.846484    1.734401
     67          1           0       -7.713823   -4.796204    3.420093
     68          1           0       -4.535132   -4.779090    4.930616
     69          1           0       -4.448483   -3.130151    5.539988
     70          1           0       -2.991389   -4.515832    3.417854
     71          1           0       -2.317608   -3.449452    4.696738
     72          1           0       -3.128461   -2.776847    3.211871
     73          1           0       -4.836839    2.657026    5.549840
     74          1           0       -5.387224    0.958569    5.776527
     75          1           0       -6.592075    2.218577    5.280266
     76          1           0       -6.405221    4.690257    0.805296
     77          1           0       -4.173316    8.236649   -0.224851
     78          1           0       -3.908789    7.160650   -1.725512
     79          1           0       -2.895639    7.144980   -0.269829
     80         12           0        5.364908   -0.882055    0.037975
     81          6           0        5.229433    2.702655    0.140582
     82          6           0        4.471725   -0.672804   -3.247293
     83          6           0        5.035964   -4.037869    0.029125
     84          6           0        5.119299   -0.852307    3.514256
     85          7           0        4.934866    0.848119   -1.271145
     86          6           0        4.975311    2.165363   -1.138551
     87          6           0        4.809006    2.950937   -2.467002
     88          6           0        4.022123    1.833515   -3.310249
     89          6           0        4.529798    0.583956   -2.593621
     90          6           0        2.513638    1.902228   -3.139755
     91          6           0        6.187046    3.305185   -3.128455
     92          6           0        6.112100    4.333194   -4.259534
     93          1           0        7.211542    5.282197   -4.411540
     94          7           0        5.314499   -2.163771   -1.476362
     95          6           0        4.948939   -1.905188   -2.749462
     96          6           0        5.064268   -3.183317   -3.468666
     97          6           0        5.369243   -4.252389   -2.479337
     98          6           0        5.228090   -3.513414   -1.240754
     99          6           0        4.967383   -3.287738   -4.963028
    100          6           0        5.716325   -5.703228   -2.623548
    101          8           0        5.707739   -6.500605   -1.620077
    102          6           0        5.975504   -6.182722   -3.988982
    103          7           0        4.901709   -2.255568    1.528362
    104          6           0        4.874610   -3.574580    1.268736
    105          6           0        4.792234   -4.379877    2.543537
    106          6           0        5.014409   -3.330493    3.729717
    107          6           0        5.101741   -2.028840    2.902994
    108          6           0        3.482296   -5.134182    2.770405
    109          6           0        6.151745   -3.641652    4.740808
    110          6           0        7.494955   -3.536163    4.055223
    111          7           0        5.388325    0.624924    1.586047
    112          6           0        5.245127    0.422060    2.976158
    113          6           0        5.210847    1.756228    3.609601
    114          6           0        5.314162    2.650309    2.533287
    115          6           0        5.386002    1.924961    1.313365
    116          6           0        5.049146    2.012923    5.000309
    117          6           0        5.368096    4.042990    2.150880
    118          8           0        5.434625    5.109374    2.760898
    119          6           0        5.188290    4.141568    0.574705
    120          6           0        6.250314    5.064484    0.042877
    121          8           0        7.452125    4.752783    0.114287
    122          8           0        5.664430    6.055636   -0.653341
    123          6           0        6.677734    6.991009   -1.210214
    124          1           0        3.976065   -0.730972   -4.216743
    125          1           0        5.027002   -5.128456    0.092449
    126          1           0        5.143290   -0.759987    4.602181
    127          1           0        4.209468    3.850134   -2.391010
    128          1           0        4.335876    1.830229   -4.350880
    129          1           0        2.225742    2.618506   -2.384643
    130          1           0        2.204268    0.905573   -2.853373
    131          1           0        2.034175    2.101672   -4.102396
    132          1           0        6.549189    2.434283   -3.689799
    133          1           0        6.891748    3.632376   -2.388877
    134          1           0        5.147991    4.855768   -4.278362
    135          1           0        6.147884    3.802284   -5.213924
    136          1           0        4.574565   -2.364306   -5.406171
    137          1           0        4.202659   -4.040806   -5.182028
    138          1           0        5.907939   -3.594246   -5.425710
    139          1           0        5.100230   -6.000456   -4.607967
    140          1           0        6.293749   -7.221181   -3.878554
    141          1           0        6.792794   -5.592235   -4.417899
    142          1           0        5.577479   -5.124881    2.581751
    143          1           0        4.121670   -3.239495    4.365766
    144          1           0        3.623932   -6.222482    2.910436
    145          1           0        2.827322   -4.940813    1.931266
    146          1           0        2.887924   -4.784439    3.612784
    147          1           0        6.067183   -4.669785    5.101311
    148          1           0        6.145341   -2.993731    5.610950
    149          1           0        7.604427   -4.513240    3.575197
    150          1           0        8.284476   -3.363711    4.783890
    151          1           0        7.473667   -2.779775    3.262075
    152          1           0        5.757242    2.789249    5.258011
    153          1           0        5.210574    1.114175    5.591898
    154          1           0        4.004419    2.334560    5.019097
    155          1           0        4.183518    4.519887    0.382622
    156          1           0        6.415638    7.993162   -0.857097
    157          1           0        6.669360    6.824055   -2.303738
    158          1           0        7.695776    6.899426   -0.850116
 ---------------------------------------------------------------------

 SCF Done:  E(RCAM-B3LYP) =  -4069.81139448     A.U. after   19 cycles

 Excitation energies and oscillator strengths:

 Excited State   1:      Singlet-A      1.6569 eV  748.31 nm  f=0.0036  <S**2>=0.000
     309 -> 315       -0.11378
     310 -> 316        0.12510
     311 -> 313       -0.46044
     312 -> 314        0.51007
 This state for optimization and/or second-order correction.
 Total Energy, E(TD-HF/TD-DFT) =  -4069.75050598
 Copying the excited state density for this state as the 1-particle RhoCI density.

 Excited State   2:      Singlet-A      1.6968 eV  730.68 nm  f=0.7166  <S**2>=0.000
     309 -> 315        0.13373
     310 -> 316        0.11987
     311 -> 313        0.50814
     312 -> 314        0.45878

 Excited State   3:      Singlet-A      2.1828 eV  568.01 nm  f=0.0215  <S**2>=0.000
     309 -> 313       -0.27835
     310 -> 314        0.58068
     311 -> 315        0.11621
     312 -> 316       -0.24404

 Excited State   4:      Singlet-A      2.1945 eV  564.97 nm  f=0.1598  <S**2>=0.000
     309 -> 313        0.57708
     310 -> 314        0.27518
     311 -> 315       -0.25309
     312 -> 316       -0.12168

 Excited State   5:      Singlet-A      2.4845 eV  499.03 nm  f=0.0000  <S**2>=0.000
     312 -> 313        0.70710

 The electronic state is 1-A.
 Alpha  occ. eigenvalues --  -46.87876 -46.87487 -19.26332 -19.26171 -19.19071
 Alpha  occ. eigenvalues --  -19.18982 -19.18887 -19.18573 -19.18218 -19.17835
 Alpha  occ. eigenvalues --  -14.42535 -14.42326 -14.41527 -14.41189 -14.39483
 Alpha  occ. eigenvalues --  -14.39183 -14.38661 -14.38418 -10.39132 -10.38906
 Alpha  occ. eigenvalues --  -10.35522 -10.35255 -10.34439 -10.34009 -10.31719
 Alpha  occ. eigenvalues --  -10.31607 -10.31487 -10.31128 -10.30999 -10.30858
 Alpha  occ. eigenvalues --  -10.30647 -10.30579 -10.30287 -10.30218 -10.30179
 Alpha  occ. eigenvalues --  -10.29990 -10.29989 -10.29716 -10.29705 -10.29334
 Alpha  occ. eigenvalues --  -10.29276 -10.29228 -10.28859 -10.28700 -10.28556
 Alpha  occ. eigenvalues --  -10.28552 -10.28442 -10.28226 -10.28219 -10.27973
 Alpha  occ. eigenvalues --  -10.27864 -10.27821 -10.27812 -10.27662 -10.27594
 Alpha  occ. eigenvalues --  -10.27572 -10.27513 -10.27508 -10.27481 -10.27380
 Alpha  occ. eigenvalues --  -10.27370 -10.27304 -10.27301 -10.27229 -10.27217
 Alpha  occ. eigenvalues --  -10.26853 -10.26822 -10.26562 -10.26500 -10.26322
 Alpha  occ. eigenvalues --  -10.26314 -10.26261 -10.26097 -10.26020 -10.25888
 Alpha  occ. eigenvalues --  -10.25822 -10.25769 -10.25631 -10.25490 -10.25251
 Alpha  occ. eigenvalues --  -10.24901 -10.24860 -10.24776 -10.24683 -10.24616
 Alpha  occ. eigenvalues --  -10.24517  -3.16619  -3.16237  -1.91501  -1.91119
 Alpha  occ. eigenvalues --   -1.91088  -1.90930  -1.90708  -1.90545  -1.16681
 Alpha  occ. eigenvalues --   -1.16465  -1.08673  -1.08437  -1.07286  -1.06827
 Alpha  occ. eigenvalues --   -1.06765  -1.06692  -1.04665  -1.04322  -1.03839
 Alpha  occ. eigenvalues --   -1.03491  -1.03310  -1.02867  -1.02487  -1.01936
 Alpha  occ. eigenvalues --   -0.92044  -0.91797  -0.89594  -0.89336  -0.89292
 Alpha  occ. eigenvalues --   -0.88987  -0.88360  -0.88069  -0.87936  -0.87762
 Alpha  occ. eigenvalues --   -0.87602  -0.87520  -0.87360  -0.86979  -0.85082
 Alpha  occ. eigenvalues --   -0.84842  -0.84007  -0.83727  -0.83051  -0.82802
 Alpha  occ. eigenvalues --   -0.82738  -0.82498  -0.81651  -0.81424  -0.80671
 Alpha  occ. eigenvalues --   -0.80276  -0.78879  -0.78477  -0.77305  -0.77020
 Alpha  occ. eigenvalues --   -0.76988  -0.76740  -0.76002  -0.75667  -0.74967
 Alpha  occ. eigenvalues --   -0.74646  -0.72849  -0.72525  -0.71748  -0.71410
 Alpha  occ. eigenvalues --   -0.69984  -0.69619  -0.68967  -0.68670  -0.67717
 Alpha  occ. eigenvalues --   -0.67435  -0.67330  -0.67060  -0.65381  -0.65106
 Alpha  occ. eigenvalues --   -0.64927  -0.64700  -0.64603  -0.64490  -0.64344
 Alpha  occ. eigenvalues --   -0.64049  -0.62357  -0.62107  -0.60522  -0.60189
 Alpha  occ. eigenvalues --   -0.59898  -0.59627  -0.59062  -0.58822  -0.58577
 Alpha  occ. eigenvalues --   -0.58253  -0.57645  -0.57379  -0.57354  -0.57072
 Alpha  occ. eigenvalues --   -0.56385  -0.56046  -0.56037  -0.55723  -0.55598
 Alpha  occ. eigenvalues --   -0.55405  -0.55295  -0.55086  -0.54587  -0.54329
 Alpha  occ. eigenvalues --   -0.53998  -0.53753  -0.53376  -0.53311  -0.53069
 Alpha  occ. eigenvalues --   -0.52987  -0.52983  -0.52850  -0.52742  -0.52535
 Alpha  occ. eigenvalues --   -0.52514  -0.52265  -0.51971  -0.51715  -0.51677
 Alpha  occ. eigenvalues --   -0.51508  -0.51267  -0.51027  -0.50668  -0.50355
 Alpha  occ. eigenvalues --   -0.50112  -0.50004  -0.49828  -0.49720  -0.49602
 Alpha  occ. eigenvalues --   -0.49335  -0.49289  -0.49183  -0.49031  -0.48924
 Alpha  occ. eigenvalues --   -0.48662  -0.48533  -0.48511  -0.48386  -0.48220
 Alpha  occ. eigenvalues --   -0.48185  -0.47778  -0.47442  -0.47374  -0.46971
 Alpha  occ. eigenvalues --   -0.46878  -0.46655  -0.46550  -0.46434  -0.46402
 Alpha  occ. eigenvalues --   -0.46228  -0.46112  -0.45912  -0.45884  -0.45639
 Alpha  occ. eigenvalues --   -0.45272  -0.45051  -0.44644  -0.44598  -0.44345
 Alpha  occ. eigenvalues --   -0.44317  -0.44223  -0.44182  -0.44090  -0.43958
 Alpha  occ. eigenvalues --   -0.43929  -0.43778  -0.43558  -0.43473  -0.43387
 Alpha  occ. eigenvalues --   -0.43220  -0.43100  -0.42763  -0.42761  -0.42721
 Alpha  occ. eigenvalues --   -0.42719  -0.42407  -0.42091  -0.41815  -0.41776
 Alpha  occ. eigenvalues --   -0.41634  -0.41484  -0.41307  -0.41220  -0.40966
 Alpha  occ. eigenvalues --   -0.40911  -0.40820  -0.40647  -0.40584  -0.40552
 Alpha  occ. eigenvalues --   -0.40361  -0.40339  -0.40091  -0.39521  -0.39290
 Alpha  occ. eigenvalues --   -0.38550  -0.38201  -0.37865  -0.37513  -0.37398
 Alpha  occ. eigenvalues --   -0.37361  -0.37110  -0.37037  -0.36772  -0.36602
 Alpha  occ. eigenvalues --   -0.36263  -0.36056  -0.34363  -0.34079  -0.33826
 Alpha  occ. eigenvalues --   -0.33683  -0.33261  -0.33003  -0.31416  -0.31132
 Alpha  occ. eigenvalues --   -0.31112  -0.30800  -0.30077  -0.29737  -0.29526
 Alpha  occ. eigenvalues --   -0.29390  -0.29162  -0.29019  -0.24158  -0.23859
 Alpha  occ. eigenvalues --   -0.21206  -0.20946
 Alpha virt. eigenvalues --   -0.08851  -0.08618  -0.01828  -0.01516  -0.00136
 Alpha virt. eigenvalues --    0.00132   0.02139   0.02404   0.03020   0.03386
 Alpha virt. eigenvalues --    0.04622   0.04893   0.05044   0.05351   0.06055

 Mulliken charges:
               1
     1  Mg   0.838563
     2  C   -0.003097
     3  C   -0.094782
     4  C   -0.045630
     5  C   -0.063888
     6  N   -0.256714
     7  C   -0.052684
     8  C   -0.013860
     9  C   -0.086899
    10  C    0.046060
    11  C    0.104802
    12  C    0.053748
    13  C   -0.071463
    14  H    0.035247
    15  N   -0.433128
    16  C    0.168185
    17  C   -0.177615
    18  C   -0.004016
    19  C    0.148692
    20  C    0.110284
    21  C    0.012444
    22  O   -0.249109
    23  C    0.062589
    24  N   -0.341106
    25  C    0.041131
    26  C   -0.028253
    27  C   -0.024010
    28  C    0.074875
    29  C    0.076085
    30  C    0.035116
    31  C   -0.004503
    32  N   -0.310570
    33  C    0.080540
    34  C   -0.169421
    35  C    0.008687
    36  C    0.083070
    37  C    0.127205
    38  C    0.046503
    39  O   -0.187479
    40  C   -0.005489
    41  C    0.213169
    42  O   -0.257126
    43  O   -0.304850
    44  C    0.157351
    45  H   -0.017766
    46  H   -0.016583
    47  H   -0.041303
    48  H    0.001263
    49  H   -0.004593
    50  H    0.025701
    51  H    0.016623
    52  H    0.016618
    53  H    0.010067
    54  H    0.043919
    55  H    0.018543
    56  H    0.017308
    57  H    0.005560
    58  H    0.027034
    59  H    0.038449
    60  H    0.037282
    61  H    0.036054
    62  H    0.030585
    63  H    0.016766
    64  H    0.009660
    65  H    0.023432
    66  H    0.012583
    67  H    0.004857
    68  H    0.006515
    69  H    0.004747
    70  H    0.009124
    71  H    0.017220
    72  H    0.029205
    73  H    0.048209
    74  H    0.009081
    75  H    0.046222
    76  H    0.035285
    77  H    0.043621
    78  H    0.045713
    79  H    0.054346
    80  Mg   0.838092
    81  C   -0.016308
    82  C   -0.088001
    83  C   -0.045466
    84  C   -0.064754
    85  N   -0.254513
    86  C   -0.048946
    87  C   -0.015162
    88  C   -0.090774
    89  C    0.046009
    90  C    0.114156
    91  C    0.062635
    92  C   -0.077442
    93  H    0.034341
    94  N   -0.423400
    95  C    0.162793
    96  C   -0.175249
    97  C   -0.008007
    98  C    0.151868
    99  C    0.099709
   100  C    0.015363
   101  O   -0.253350
   102  C    0.061356
   103  N   -0.349967
   104  C    0.037398
   105  C   -0.019732
   106  C   -0.034805
   107  C    0.089189
   108  C    0.073755
   109  C    0.034772
   110  C   -0.007584
   111  N   -0.324405
   112  C    0.078974
   113  C   -0.162452
   114  C    0.003319
   115  C    0.096198
   116  C    0.131075
   117  C    0.043669
   118  O   -0.186969
   119  C    0.000305
   120  C    0.210940
   121  O   -0.251568
   122  O   -0.305129
   123  C    0.152228
   124  H   -0.020908
   125  H   -0.015794
   126  H   -0.040563
   127  H    0.000131
   128  H   -0.005473
   129  H    0.026197
   130  H    0.014205
   131  H    0.014114
   132  H    0.013564
   133  H    0.037667
   134  H    0.020611
   135  H    0.018935
   136  H    0.007910
   137  H    0.025055
   138  H    0.039249
   139  H    0.037731
   140  H    0.036052
   141  H    0.033595
   142  H    0.014048
   143  H    0.012182
   144  H    0.024779
   145  H    0.012416
   146  H    0.005038
   147  H    0.005852
   148  H    0.003524
   149  H    0.010780
   150  H    0.017650
   151  H    0.030290
   152  H    0.045785
   153  H    0.007824
   154  H    0.049286
   155  H    0.038092
   156  H    0.043858
   157  H    0.048907
   158  H    0.053255
 Sum of Mulliken charges =  -0.00000

 Dipole moment (field-independent basis, Debye):
    X=             -4.2060    Y=             -2.0992    Z=             -7.3878  Tot=              8.7566
 Quadrupole moment (field-independent basis, Debye-Ang):
   XX=           -518.2822   YY=           -551.2508   ZZ=           -448.1089
   XY=             -6.6494   XZ=              0.3449   YZ=            -48.2021

 Normal termination of Gaussian 16 at Sat Sep  4 05:36:55 2021.
