 Gaussian 16, Revision A.03,
 Gaussian 16:  ES64L-G16RevA.03 25-Dec-2016

 -----------------------------------
 #p cam-b3lyp/Def2SVP td=(nstates=5)
 -----------------------------------

 --------------------------------
 TDDFT excited states in gaussian
 --------------------------------
 Symbolic Z-matrix:
 Charge =  0 Multiplicity = 1

                         Standard orientation:
 ---------------------------------------------------------------------
 Center     Atomic      Atomic             Coordinates (Angstroms)
 Number     Number       Type             X           Y           Z
 ---------------------------------------------------------------------
      1         12           0       -4.949860    0.770900    0.014459
      2          6           0       -5.341063   -2.325491    1.767039
      3          6           0       -5.726194    2.351742    2.937011
      4          6           0       -5.056367    3.491318   -1.611765
      5          6           0       -5.325472   -1.027750   -2.946864
      6          7           0       -5.448876    0.001501    2.029317
      7          6           0       -5.506051   -1.205062    2.584390
      8          6           0       -5.682889   -1.165486    4.131819
      9          6           0       -6.348409    0.276504    4.272332
     10          6           0       -5.780252    0.928898    3.024332
     11          6           0       -7.869989    0.258099    4.167656
     12          6           0       -4.314285   -1.241025    4.888752
     13          6           0       -4.412402   -1.535788    6.388365
     14          1           0       -3.384516   -2.357557    7.009247
     15          7           0       -4.854021    2.642259    0.640305
     16          6           0       -5.194261    3.104191    1.867554
     17          6           0       -4.944812    4.561445    1.838118
     18          6           0       -4.612248    4.937924    0.436063
     19          6           0       -4.856350    3.693963   -0.248301
     20          6           0       -4.984817    5.427911    3.059341
     21          6           0       -4.158190    6.218771   -0.189552
     22          8           0       -4.149616    6.391435   -1.456314
     23          6           0       -3.802867    7.311277    0.734147
     24          7           0       -5.378711    1.217775   -1.979037
     25          6           0       -5.296781    2.471329   -2.438245
     26          6           0       -5.367803    2.509878   -3.936047
     27          6           0       -5.271239    0.992021   -4.422397
     28          6           0       -5.241991    0.301558   -3.036512
     29          6           0       -6.626613    3.156958   -4.529929
     30          6           0       -4.154951    0.649577   -5.440755
     31          6           0       -2.799944    0.794677   -4.785011
     32          7           0       -5.099077   -1.322642   -0.538586
     33          6           0       -5.273450   -1.843474   -1.828936
     34          6           0       -5.427335   -3.303150   -1.688457
     35          6           0       -5.347851   -3.529648   -0.315786
     36          6           0       -5.182731   -2.287196    0.360484
     37          6           0       -5.670645   -4.221265   -2.747843
     38          6           0       -5.388684   -4.529695    0.738773
     39          8           0       -5.414873   -5.760989    0.765655
     40          6           0       -5.508102   -3.778180    2.137627
     41          6           0       -4.495467   -4.387265    3.068698
     42          8           0       -3.272439   -4.248670    2.862883
     43          8           0       -5.116297   -4.829084    4.173192
     44          6           0       -4.164167   -5.418766    5.151904
     45          1           0       -6.184394    2.946965    3.729288
     46          1           0       -4.989429    4.394873   -2.221311
     47          1           0       -5.361813   -1.663276   -3.833565
     48          1           0       -6.353788   -1.925761    4.532196
     49          1           0       -6.002693    0.799126    5.163998
     50          1           0       -8.237937   -0.727917    3.884270
     51          1           0       -8.117853    0.991900    3.400458
     52          1           0       -8.326054    0.621912    5.088754
     53          1           0       -3.867632   -0.247378    4.923820
     54          1           0       -3.654058   -1.971670    4.420154
     55          1           0       -5.405098   -1.896191    6.659609
     56          1           0       -4.308767   -0.594883    6.928882
     57          1           0       -5.417724    4.902118    3.909445
     58          1           0       -5.686648    6.235886    2.853625
     59          1           0       -4.006149    5.843419    3.299953
     60          1           0       -4.665452    7.551615    1.356027
     61          1           0       -3.416517    8.117610    0.111725
     62          1           0       -3.024097    6.961083    1.412256
     63          1           0       -4.533249    3.072274   -4.352767
     64          1           0       -6.187685    0.659919   -4.910770
     65          1           0       -6.415675    3.989082   -5.202074
     66          1           0       -7.264480    3.472705   -3.704871
     67          1           0       -7.284998    2.471371   -5.062767
     68          1           0       -4.181200    1.343930   -6.279880
     69          1           0       -4.234664   -0.360298   -5.843309
     70          1           0       -2.597420    1.861053   -4.878054
     71          1           0       -2.053338    0.207308   -5.320536
     72          1           0       -2.845962    0.563396   -3.720644
     73          1           0       -5.023328   -5.078514   -2.563252
     74          1           0       -5.463661   -3.770246   -3.718071
     75          1           0       -6.731114   -4.424361   -2.599474
     76          1           0       -6.528789   -3.928350    2.488011
     77          1           0       -4.506910   -6.431836    5.362739
     78          1           0       -4.105811   -4.720311    5.986865
     79          1           0       -3.155872   -5.614726    4.785463
     80         12           0        5.604347    0.124809    0.006124
     81          6           0        3.359118   -1.713537   -2.105388
     82          6           0        4.167215    2.973806   -1.199073
     83          6           0        7.859136    1.778236    1.505968
     84          6           0        7.581642   -2.740728    0.163275
     85          7           0        3.981112    0.457712   -1.458988
     86          6           0        3.159899   -0.317935   -2.150596
     87          6           0        2.013185    0.440465   -2.871325
     88          6           0        2.710630    1.882811   -2.981163
     89          6           0        3.656874    1.788411   -1.786003
     90          6           0        3.545759    2.053231   -4.239271
     91          6           0        0.702600    0.500196   -2.010615
     92          6           0       -0.546172    0.951861   -2.771087
     93          1           0       -1.830625    0.353725   -2.417722
     94          7           0        5.664581    2.040659    0.520398
     95          6           0        5.000421    3.060846   -0.062182
     96          6           0        5.398989    4.271765    0.671965
     97          6           0        6.478442    3.906139    1.628957
     98          6           0        6.729178    2.535072    1.232219
     99          6           0        4.715513    5.595786    0.489672
    100          6           0        7.179098    4.668796    2.712301
    101          8           0        8.250410    4.228312    3.261028
    102          6           0        6.626807    5.989663    3.046590
    103          7           0        7.556242   -0.331563    0.557629
    104          6           0        8.303369    0.548130    1.247461
    105          6           0        9.564345   -0.098334    1.769377
    106          6           0        9.391586   -1.663650    1.490992
    107          6           0        8.040521   -1.640048    0.743006
    108          6           0       10.870358    0.388768    1.142101
    109          6           0        9.546056   -2.616197    2.708154
    110          6           0        8.405261   -2.404480    3.677252
    111          7           0        5.427351   -1.925120   -0.653056
    112          6           0        6.383625   -2.953783   -0.506629
    113          6           0        5.859495   -4.139524   -1.214968
    114          6           0        4.635523   -3.708052   -1.748083
    115          6           0        4.422036   -2.343417   -1.413878
    116          6           0        6.521784   -5.393107   -1.341522
    117          6           0        3.480542   -4.093635   -2.526570
    118          8           0        3.068225   -5.149747   -3.004455
    119          6           0        2.662164   -2.783113   -2.899661
    120          6           0        1.210370   -3.042019   -2.603373
    121          8           0        0.826396   -3.223252   -1.434476
    122          8           0        0.486942   -2.818099   -3.715523
    123          6           0       -0.961074   -3.051035   -3.468908
    124          1           0        3.943831    3.927589   -1.677898
    125          1           0        8.619274    2.270003    2.117383
    126          1           0        8.092788   -3.702032    0.248645
    127          1           0        1.772783    0.067465   -3.859680
    128          1           0        1.989370    2.682529   -2.834211
    129          1           0        3.628398    1.131566   -4.795906
    130          1           0        4.520763    2.380856   -3.903009
    131          1           0        3.147165    2.869423   -4.848624
    132          1           0        0.787576    1.319664   -1.285363
    133          1           0        0.515137   -0.443327   -1.536013
    134          1           0       -0.397742    0.929482   -3.857556
    135          1           0       -0.726676    2.005972   -2.546896
    136          1           0        4.071933    5.597319   -0.398705
    137          1           0        5.495888    6.329682    0.260989
    138          1           0        4.177659    5.918775    1.383573
    139          1           0        6.631296    6.618086    2.159164
    140          1           0        7.206644    6.340789    3.902382
    141          1           0        5.578212    5.866446    3.339662
    142          1           0        9.667019    0.059680    2.835954
    143          1           0       10.140172   -2.035405    0.775976
    144          1           0       11.591440    0.780590    1.884116
    145          1           0       10.633951    1.145090    0.405473
    146          1           0       11.402643   -0.352951    0.549044
    147          1           0       10.464131   -2.386642    3.254580
    148          1           0        9.588511   -3.664837    2.433310
    149          1           0        8.736320   -1.542041    4.263496
    150          1           0        8.269933   -3.281406    4.307111
    151          1           0        7.489746   -2.112618    3.149712
    152          1           0        5.776431   -6.157898   -1.168182
    153          1           0        7.349840   -5.477813   -0.640867
    154          1           0        6.865512   -5.328405   -2.377344
    155          1           0        2.834166   -2.579470   -3.957256
    156          1           0       -1.297106   -3.784687   -4.208185
    157          1           0       -1.434030   -2.051492   -3.500208
    158          1           0       -1.239366   -3.540931   -2.543171
 ---------------------------------------------------------------------

 SCF Done:  E(RCAM-B3LYP) =  -4069.80183256     A.U. after   19 cycles

 Excitation energies and oscillator strengths:

 Excited State   1:      Singlet-A      1.6527 eV  750.18 nm  f=0.0052  <S**2>=0.000
     309 -> 315       -0.11644
     310 -> 316        0.12011
     311 -> 313       -0.47758
     312 -> 314        0.49440
 This state for optimization and/or second-order correction.
 Total Energy, E(TD-HF/TD-DFT) =  -4069.74109636
 Copying the excited state density for this state as the 1-particle RhoCI density.

 Excited State   2:      Singlet-A      1.6977 eV  730.33 nm  f=0.7072  <S**2>=0.000
     309 -> 315        0.12879
     310 -> 316        0.12409
     311 -> 313        0.49219
     312 -> 314        0.47568

 Excited State   3:      Singlet-A      2.1821 eV  568.19 nm  f=0.0728  <S**2>=0.000
     309 -> 313        0.29537
     310 -> 314        0.57251
     311 -> 315       -0.12273
     312 -> 316       -0.23944

 Excited State   4:      Singlet-A      2.1916 eV  565.73 nm  f=0.1246  <S**2>=0.000
     309 -> 313        0.56937
     310 -> 314       -0.29273
     311 -> 315       -0.24695
     312 -> 316        0.12782

 Excited State   5:      Singlet-A      2.4565 eV  504.73 nm  f=0.0000  <S**2>=0.000
     312 -> 313        0.70665

 The electronic state is 1-A.
 Alpha  occ. eigenvalues --  -46.87928 -46.87462 -19.26107 -19.25969 -19.19037
 Alpha  occ. eigenvalues --  -19.18813 -19.18711 -19.18575 -19.18187 -19.17798
 Alpha  occ. eigenvalues --  -14.42578 -14.42295 -14.41615 -14.41167 -14.39553
 Alpha  occ. eigenvalues --  -14.39160 -14.38721 -14.38394 -10.38901 -10.38673
 Alpha  occ. eigenvalues --  -10.35673 -10.35258 -10.34402 -10.33970 -10.31511
 Alpha  occ. eigenvalues --  -10.31478 -10.31369 -10.31088 -10.31004 -10.30817
 Alpha  occ. eigenvalues --  -10.30705 -10.30675 -10.30421 -10.30201 -10.30148
 Alpha  occ. eigenvalues --  -10.30092 -10.29975 -10.29795 -10.29702 -10.29442
 Alpha  occ. eigenvalues --  -10.29260 -10.29206 -10.28770 -10.28483 -10.28476
 Alpha  occ. eigenvalues --  -10.28464 -10.28199 -10.28180 -10.28167 -10.27934
 Alpha  occ. eigenvalues --  -10.27914 -10.27865 -10.27803 -10.27748 -10.27681
 Alpha  occ. eigenvalues --  -10.27646 -10.27639 -10.27512 -10.27470 -10.27371
 Alpha  occ. eigenvalues --  -10.27325 -10.27280 -10.27271 -10.27227 -10.27142
 Alpha  occ. eigenvalues --  -10.26775 -10.26658 -10.26652 -10.26330 -10.26301
 Alpha  occ. eigenvalues --  -10.26285 -10.26266 -10.26233 -10.26020 -10.26003
 Alpha  occ. eigenvalues --  -10.25837 -10.25749 -10.25651 -10.25607 -10.25269
 Alpha  occ. eigenvalues --  -10.24958 -10.24951 -10.24684 -10.24665 -10.24595
 Alpha  occ. eigenvalues --  -10.24499  -3.16671  -3.16211  -1.91552  -1.91139
 Alpha  occ. eigenvalues --   -1.91094  -1.90982  -1.90682  -1.90519  -1.16455
 Alpha  occ. eigenvalues --   -1.16250  -1.08623  -1.08388  -1.07445  -1.06832
 Alpha  occ. eigenvalues --   -1.06516  -1.06447  -1.04699  -1.04288  -1.03912
 Alpha  occ. eigenvalues --   -1.03467  -1.03385  -1.02847  -1.02556  -1.01914
 Alpha  occ. eigenvalues --   -0.92059  -0.91760  -0.89687  -0.89314  -0.89234
 Alpha  occ. eigenvalues --   -0.88919  -0.88455  -0.88052  -0.88021  -0.87795
 Alpha  occ. eigenvalues --   -0.87589  -0.87476  -0.87449  -0.86960  -0.85054
 Alpha  occ. eigenvalues --   -0.84787  -0.84110  -0.83705  -0.83171  -0.82793
 Alpha  occ. eigenvalues --   -0.82732  -0.82438  -0.81601  -0.81329  -0.80673
 Alpha  occ. eigenvalues --   -0.80210  -0.78955  -0.78456  -0.77412  -0.77037
 Alpha  occ. eigenvalues --   -0.76913  -0.76662  -0.75967  -0.75613  -0.75038
 Alpha  occ. eigenvalues --   -0.74618  -0.72929  -0.72506  -0.71786  -0.71384
 Alpha  occ. eigenvalues --   -0.70307  -0.69599  -0.68983  -0.68565  -0.67770
 Alpha  occ. eigenvalues --   -0.67399  -0.67286  -0.66995  -0.65359  -0.65116
 Alpha  occ. eigenvalues --   -0.64912  -0.64683  -0.64567  -0.64481  -0.64261
 Alpha  occ. eigenvalues --   -0.64019  -0.62270  -0.61985  -0.60615  -0.60172
 Alpha  occ. eigenvalues --   -0.59881  -0.59584  -0.59109  -0.58786  -0.58612
 Alpha  occ. eigenvalues --   -0.58207  -0.57623  -0.57386  -0.57273  -0.57034
 Alpha  occ. eigenvalues --   -0.56445  -0.56004  -0.55932  -0.55667  -0.55611
 Alpha  occ. eigenvalues --   -0.55473  -0.55247  -0.55036  -0.54582  -0.54243
 Alpha  occ. eigenvalues --   -0.53941  -0.53679  -0.53460  -0.53319  -0.53047
 Alpha  occ. eigenvalues --   -0.52992  -0.52933  -0.52906  -0.52750  -0.52582
 Alpha  occ. eigenvalues --   -0.52480  -0.52228  -0.52065  -0.51679  -0.51670
 Alpha  occ. eigenvalues --   -0.51512  -0.51290  -0.50964  -0.50772  -0.50340
 Alpha  occ. eigenvalues --   -0.50325  -0.50071  -0.49793  -0.49704  -0.49606
 Alpha  occ. eigenvalues --   -0.49307  -0.49298  -0.49149  -0.48977  -0.48898
 Alpha  occ. eigenvalues --   -0.48691  -0.48615  -0.48528  -0.48316  -0.48206
 Alpha  occ. eigenvalues --   -0.48146  -0.47868  -0.47453  -0.47417  -0.47045
 Alpha  occ. eigenvalues --   -0.46925  -0.46621  -0.46586  -0.46524  -0.46383
 Alpha  occ. eigenvalues --   -0.46169  -0.46077  -0.45884  -0.45860  -0.45653
 Alpha  occ. eigenvalues --   -0.45379  -0.45076  -0.44870  -0.44649  -0.44468
 Alpha  occ. eigenvalues --   -0.44297  -0.44173  -0.44145  -0.44082  -0.43906
 Alpha  occ. eigenvalues --   -0.43859  -0.43743  -0.43532  -0.43525  -0.43271
 Alpha  occ. eigenvalues --   -0.43238  -0.43074  -0.42937  -0.42699  -0.42570
 Alpha  occ. eigenvalues --   -0.42564  -0.42389  -0.42242  -0.41820  -0.41761
 Alpha  occ. eigenvalues --   -0.41643  -0.41443  -0.41271  -0.41240  -0.41096
 Alpha  occ. eigenvalues --   -0.41017  -0.40791  -0.40733  -0.40603  -0.40358
 Alpha  occ. eigenvalues --   -0.40285  -0.40206  -0.39862  -0.39325  -0.39182
 Alpha  occ. eigenvalues --   -0.38618  -0.38104  -0.37790  -0.37512  -0.37316
 Alpha  occ. eigenvalues --   -0.37178  -0.37055  -0.36706  -0.36465  -0.36323
 Alpha  occ. eigenvalues --   -0.36134  -0.35892  -0.34414  -0.34041  -0.33651
 Alpha  occ. eigenvalues --   -0.33452  -0.33281  -0.32955  -0.31564  -0.31157
 Alpha  occ. eigenvalues --   -0.31133  -0.30766  -0.30040  -0.29696  -0.29607
 Alpha  occ. eigenvalues --   -0.29448  -0.29144  -0.29002  -0.24220  -0.23832
 Alpha  occ. eigenvalues --   -0.21282  -0.20922
 Alpha virt. eigenvalues --   -0.08924  -0.08596  -0.01927  -0.01496  -0.00208
 Alpha virt. eigenvalues --    0.00151   0.02044   0.02164   0.02454   0.03470
 Alpha virt. eigenvalues --    0.04611   0.05070   0.05236   0.05554   0.06044

 Mulliken charges:
               1
     1  Mg   0.830383
     2  C   -0.000615
     3  C   -0.093146
     4  C   -0.048428
     5  C   -0.067276
     6  N   -0.256268
     7  C   -0.051751
     8  C   -0.014163
     9  C   -0.087144
    10  C    0.046407
    11  C    0.104753
    12  C    0.053333
    13  C   -0.072181
    14  H    0.037807
    15  N   -0.432933
    16  C    0.168591
    17  C   -0.176974
    18  C   -0.004617
    19  C    0.148894
    20  C    0.110061
    21  C    0.010847
    22  O   -0.250793
    23  C    0.062871
    24  N   -0.341080
    25  C    0.042281
    26  C   -0.028607
    27  C   -0.025115
    28  C    0.073443
    29  C    0.076572
    30  C    0.072972
    31  C   -0.038415
    32  N   -0.309837
    33  C    0.077329
    34  C   -0.174059
    35  C    0.010366
    36  C    0.085048
    37  C    0.125671
    38  C    0.048692
    39  O   -0.185826
    40  C   -0.006380
    41  C    0.212330
    42  O   -0.252154
    43  O   -0.305764
    44  C    0.157138
    45  H   -0.017205
    46  H   -0.017912
    47  H   -0.042576
    48  H    0.001495
    49  H   -0.003678
    50  H    0.025786
    51  H    0.016073
    52  H    0.016957
    53  H    0.011035
    54  H    0.046511
    55  H    0.017600
    56  H    0.017528
    57  H    0.006540
    58  H    0.026965
    59  H    0.039100
    60  H    0.038228
    61  H    0.034754
    62  H    0.030584
    63  H    0.014941
    64  H    0.010117
    65  H    0.022757
    66  H    0.013006
    67  H    0.005212
    68  H    0.002655
    69  H    0.000126
    70  H    0.009012
    71  H    0.027497
    72  H    0.020780
    73  H    0.048636
    74  H    0.007438
    75  H    0.047441
    76  H    0.035220
    77  H    0.042880
    78  H    0.045748
    79  H    0.056059
    80  Mg   0.837998
    81  C   -0.015650
    82  C   -0.087811
    83  C   -0.045913
    84  C   -0.065364
    85  N   -0.254675
    86  C   -0.048399
    87  C   -0.018114
    88  C   -0.091438
    89  C    0.045936
    90  C    0.114513
    91  C    0.093538
    92  C   -0.129720
    93  H    0.063380
    94  N   -0.423293
    95  C    0.162442
    96  C   -0.175090
    97  C   -0.008433
    98  C    0.151982
    99  C    0.099419
   100  C    0.015074
   101  O   -0.253782
   102  C    0.061531
   103  N   -0.350158
   104  C    0.037326
   105  C   -0.019628
   106  C   -0.034829
   107  C    0.089207
   108  C    0.073847
   109  C    0.034840
   110  C   -0.007643
   111  N   -0.324378
   112  C    0.079012
   113  C   -0.162832
   114  C    0.002631
   115  C    0.096889
   116  C    0.131273
   117  C    0.043769
   118  O   -0.186700
   119  C    0.000325
   120  C    0.210867
   121  O   -0.245523
   122  O   -0.308230
   123  C    0.148566
   124  H   -0.019622
   125  H   -0.016225
   126  H   -0.040701
   127  H   -0.001940
   128  H   -0.003071
   129  H    0.021789
   130  H    0.014094
   131  H    0.016100
   132  H    0.007611
   133  H    0.038461
   134  H    0.031600
   135  H    0.023661
   136  H    0.009292
   137  H    0.025675
   138  H    0.038257
   139  H    0.038166
   140  H    0.035632
   141  H    0.033002
   142  H    0.013959
   143  H    0.012138
   144  H    0.024627
   145  H    0.011535
   146  H    0.005349
   147  H    0.005767
   148  H    0.003640
   149  H    0.010472
   150  H    0.017778
   151  H    0.030696
   152  H    0.046985
   153  H    0.008189
   154  H    0.046516
   155  H    0.033806
   156  H    0.040619
   157  H    0.047397
   158  H    0.062412
 Sum of Mulliken charges =  -0.00000

 Dipole moment (field-independent basis, Debye):
    X=             -2.2873    Y=              6.9585    Z=              1.5762  Tot=              7.4925
 Quadrupole moment (field-independent basis, Debye-Ang):
   XX=           -486.4360   YY=           -540.3430   ZZ=           -472.2269
   XY=            -24.9870   XZ=            -19.5412   YZ=             -3.4323

 Normal termination of Gaussian 16 at Fri Sep 10 16:47:08 2021.
